Title
82282
    1SAPS     N    1   4.073   3.998  11.082  0.1842  0.4405 -0.0038
    1SAPS   HN1    2   4.030   3.911  11.120  1.0471 -1.2877 -2.6581
    1SAPS   HN2    3   4.082   4.077  11.149 -0.4750 -0.2958  0.9941
    1SAPS   HN3    4   4.000   4.029  11.016 -1.0141  0.3202  1.2274
    1SAPS   C12    5   4.198   3.980  11.012  0.6141 -0.3574  0.7641
    1SAPS  H12A    6   4.278   3.982  11.085  0.5832  0.9751  0.7812
    1SAPS   C13    7   4.215   3.846  10.929 -0.6203  0.2046  0.4743
    1SAPS  O13A    8   4.131   3.757  10.937  0.3556  0.6970 -0.4113
    1SAPS  O13B    9   4.329   3.812  10.886 -0.5661 -0.6646 -0.2809
    1SAPS   C11   10   4.218   4.104  10.921  0.3118 -0.6395  0.5947
    1SAPS  H11A   11   4.145   4.094  10.838 -0.4085 -2.5426  1.3982
    1SAPS  H11B   12   4.323   4.086  10.890  0.6226  0.0060  1.2392
    1SAPS     P   13   4.268   4.355  10.934 -0.0275 -0.0895  0.1165
    1SAPS   O13   14   4.207   4.470  11.006  0.1272  0.1403 -0.3596
    1SAPS   O14   15   4.416   4.328  10.945 -0.1433  0.4147  0.6414
    1SAPS   O12   16   4.201   4.222  10.992  0.5895  0.6062  0.2551
    1SAPS   O11   17   4.230   4.354  10.783  0.0826 -0.8123  0.1153
    1SAPS    C1   18   4.088   4.364  10.755 -0.4877 -0.3577  0.1342
    1SAPS    HA   19   4.037   4.281  10.809  1.5160 -1.0758  1.0169
    1SAPS    HB   20   4.044   4.455  10.800 -1.1015 -2.2868  3.8258
    1SAPS    C2   21   4.064   4.367  10.601  0.1264 -0.1497 -0.5469
    1SAPS    HS   22   3.959   4.384  10.569  0.2311  1.1748 -0.2371
    1SAPS   O21   23   4.115   4.242  10.547 -0.0495  0.0125  0.3304
    1SAPS   C21   24   4.026   4.142  10.567 -1.1137 -0.6756 -0.4805
    1SAPS   O22   25   3.919   4.144  10.620  0.5618  0.3545  0.4233
    1SAPS   C22   26   4.106   4.025  10.521 -0.2861 -0.1153 -0.0537
    1SAPS   H2R   27   4.169   4.054  10.435  3.3168 -3.4918  1.1804
    1SAPS   H2S   28   4.176   3.982  10.596 -1.3346 -0.9389  0.4775
    1SAPS    C3   29   4.142   4.495  10.540 -0.0128  0.9440 -0.7519
    1SAPS    HX   30   4.246   4.502  10.578 -0.6474  2.9252  0.7491
    1SAPS    HY   31   4.093   4.585  10.583 -0.5888  0.8111 -1.1174
    1SAPS   O31   32   4.134   4.511  10.400  0.0121 -1.0119 -0.4644
    1SAPS   C31   33   4.234   4.465  10.326  0.3609 -0.2119  0.1349
    1SAPS   O32   34   4.316   4.385  10.359 -0.6644 -0.8490 -0.1487
    1SAPS   C32   35   4.224   4.535  10.188  0.4437 -0.4799  0.2502
    1SAPS   H2X   36   4.267   4.633  10.218 -1.1557  0.2194  0.3778
    1SAPS   H2Y   37   4.117   4.537  10.157  1.0961  0.9546 -2.1455
    1SAPS   C23   38   4.021   3.892  10.498 -0.2066 -0.3236 -0.3302
    1SAPS   H3R   39   3.961   3.861  10.586 -0.9249 -0.5333 -0.8912
    1SAPS   H3S   40   4.097   3.815  10.471  1.8795  1.1960  0.9087
    1SAPS   C24   41   3.929   3.894  10.375  0.6674  0.1945 -1.0768
    1SAPS   H4R   42   3.858   3.808  10.378 -0.7105  1.3081  1.0520
    1SAPS   H4S   43   3.984   3.879  10.280 -0.2461  0.9026 -1.7485
    1SAPS   C25   44   3.837   4.011  10.339 -0.7601  0.3976 -0.1202
    1SAPS   H5R   45   3.744   4.002  10.398 -2.5459 -0.0363 -2.8034
    1SAPS   C26   46   3.857   4.115  10.252  0.1981 -0.5528  0.5418
    1SAPS   H6R   47   3.769   4.181  10.251 -0.1582 -1.0383 -0.0357
    1SAPS   C27   48   3.974   4.140  10.160 -0.4103  0.8256 -0.7902
    1SAPS   H7R   49   4.064   4.089  10.200  0.1300  0.9877 -1.7743
    1SAPS   H7S   50   3.992   4.248  10.142  0.9527  0.5060 -1.4791
    1SAPS   C28   51   3.934   4.075  10.030 -0.3946  0.0558  0.3893
    1SAPS   H8R   52   3.888   3.976  10.040 -0.3507 -0.2570 -1.8526
    1SAPS   C29   53   3.965   4.112   9.907  0.6619 -0.5079 -0.2759
    1SAPS   H9R   54   3.916   4.058   9.824  0.1086 -1.0360  0.3823
    1SAPS  C210   55   4.041   4.230   9.870 -0.1740  0.0752  0.0624
    1SAPS  H10R   56   4.067   4.301   9.951  1.3978  1.1646 -1.3154
    1SAPS  H10S   57   3.970   4.286   9.806  0.1255 -2.0887 -2.3377
    1SAPS  C211   58   4.167   4.200   9.801  0.1144  0.9389 -0.4005
    1SAPS  H11R   59   4.237   4.159   9.875  1.3315  2.1706 -0.8179
    1SAPS  C212   60   4.203   4.197   9.676 -0.6458 -0.0706 -0.6425
    1SAPS  H12R   61   4.299   4.155   9.644 -0.1466 -1.9608  2.8717
    1SAPS  C213   62   4.111   4.234   9.562 -0.3732 -0.7375 -0.0835
    1SAPS  H13R   63   4.004   4.241   9.593 -0.7529  0.6154 -1.5087
    1SAPS  H13S   64   4.123   4.168   9.474  0.5916  1.7562 -1.9455
    1SAPS  C214   65   4.154   4.377   9.527 -0.5054  0.5286 -0.4467
    1SAPS  H14R   66   4.147   4.453   9.606  3.5928 -0.4492  1.0862
    1SAPS  C215   67   4.196   4.418   9.405 -0.4555  0.0116  0.7324
    1SAPS  H15R   68   4.233   4.522   9.395  0.2788 -0.3481 -0.6972
    1SAPS  C216   69   4.219   4.337   9.276 -0.0983  0.2352 -0.0474
    1SAPS  H16R   70   4.205   4.227   9.282 -2.1373  0.3867 -1.2116
    1SAPS  H16S   71   4.324   4.351   9.242  0.0774 -0.0436  0.3693
    1SAPS  C217   72   4.131   4.376   9.156  0.5478 -0.3847  0.2559
    1SAPS  H17R   73   4.150   4.480   9.123 -0.8100 -0.1293  0.2360
    1SAPS  H17S   74   4.022   4.369   9.176  0.2753  0.4708 -0.8477
    1SAPS  C218   75   4.144   4.289   9.031  0.5064  0.1181  0.0128
    1SAPS  H18R   76   4.062   4.333   8.971  0.4176  3.1838  2.1632
    1SAPS  H18S   77   4.105   4.187   9.053 -0.9227  0.7285  0.4666
    1SAPS  C219   78   4.275   4.301   8.953 -1.2074  0.2920 -0.1100
    1SAPS  H19R   79   4.362   4.295   9.023 -1.2808 -0.3238 -0.0596
    1SAPS  H19S   80   4.298   4.398   8.905  0.8481  0.0418  0.2576
    1SAPS  C220   81   4.282   4.191   8.843 -0.4223 -0.2861 -0.3630
    1SAPS  H20R   82   4.201   4.202   8.768 -1.6929 -1.5476  0.7711
    1SAPS  H20S   83   4.256   4.093   8.887  0.4986 -0.7627 -0.8435
    1SAPS  H20T   84   4.383   4.194   8.797 -0.4285 -1.5404 -0.4992
    1SAPS   C33   85   4.312   4.465  10.086  0.4795 -0.2977 -0.2944
    1SAPS   H3X   86   4.299   4.355  10.080  2.9732 -0.8264  1.8625
    1SAPS   H3Y   87   4.416   4.489  10.119  0.0215 -0.3890  1.3055
    1SAPS   C34   88   4.307   4.525   9.945 -0.2115  0.0018 -0.8953
    1SAPS   H4X   89   4.208   4.503   9.897 -1.6129  0.8940  1.4266
    1SAPS   H4Y   90   4.380   4.471   9.882  2.1675  2.7405 -0.6960
    1SAPS   C35   91   4.347   4.670   9.942 -0.1503 -0.3250  0.3658
    1SAPS   H5X   92   4.433   4.675  10.013 -0.3669 -0.9876  0.6800
    1SAPS   H5Y   93   4.259   4.718   9.989  1.0049  0.4542  1.8328
    1SAPS   C36   94   4.391   4.730   9.812 -0.7563  0.5156  0.1597
    1SAPS   H6X   95   4.459   4.658   9.763 -0.9261  0.4766 -0.0198
    1SAPS   H6Y   96   4.443   4.827   9.827  1.0804 -0.3242 -0.4406
    1SAPS   C37   97   4.288   4.751   9.700  0.5096  0.0447  0.3044
    1SAPS   H7X   98   4.226   4.839   9.724 -1.7735 -1.4860  0.3996
    1SAPS   H7Y   99   4.224   4.662   9.684 -2.8189  2.6876 -2.6073
    1SAPS   C38  100   4.344   4.797   9.560  0.0697 -0.2688 -0.1685
    1SAPS   H8X  101   4.418   4.722   9.525  2.0461  0.7173  1.6930
    1SAPS   H8Y  102   4.392   4.896   9.575 -3.3110  1.1798  2.6952
    1SAPS   C39  103   4.242   4.815   9.449 -0.2702  0.0301 -0.8959
    1SAPS   H9X  104   4.186   4.910   9.463  0.4822  0.1694  1.6350
    1SAPS   H9Y  105   4.173   4.728   9.460  0.6558 -0.7181 -0.8857
    1SAPS  C310  106   4.300   4.796   9.307  1.0078  0.2296 -0.0036
    1SAPS  H10X  107   4.341   4.692   9.307 -2.0819 -1.1984  2.8629
    1SAPS  H10Y  108   4.387   4.864   9.301  0.9316  0.4002  0.7798
    1SAPS  C311  109   4.191   4.810   9.208  0.0049 -0.3283 -0.5059
    1SAPS  H11X  110   4.124   4.898   9.216 -0.2772 -0.6343  0.7822
    1SAPS  H11Y  111   4.119   4.726   9.197  1.0324 -1.7033  2.2267
    1SAPS  C312  112   4.260   4.818   9.067  0.3969  0.9836  0.1313
    1SAPS  H12X  113   4.306   4.721   9.040 -2.8595 -0.2055 -1.7380
    1SAPS  H12Y  114   4.331   4.903   9.057  2.2053 -0.6876 -2.3454
    1SAPS  C313  115   4.155   4.856   8.969 -0.0559 -0.5569  0.0450
    1SAPS  H13X  116   4.103   4.950   8.997 -0.1963 -1.0138  1.3789
    1SAPS  H13Y  117   4.075   4.780   8.959 -2.2587  1.8679 -2.2274
    1SAPS  C314  118   4.204   4.875   8.824  0.6251  0.1511 -0.2212
    1SAPS  H14X  119   4.238   4.773   8.798  0.7638  0.4459 -1.2356
    1SAPS  H14Y  120   4.289   4.946   8.816  0.1660  0.5250 -2.1739
    1SAPS  C315  121   4.092   4.912   8.725 -0.1011  0.0761 -0.2238
    1SAPS  H15X  122   4.010   4.837   8.735  1.6788 -1.9550 -0.1991
    1SAPS  H15Y  123   4.120   4.911   8.618 -3.6916  1.0941 -1.3386
    1SAPS  C316  124   4.018   5.044   8.768 -0.1509  0.2452  0.0547
    1SAPS  H16X  125   4.087   5.126   8.794  0.4095  0.9131 -3.0653
    1SAPS  H16Y  126   3.959   5.018   8.859 -1.5666  2.2930 -0.2070
    1SAPS  C317  127   3.920   5.081   8.654  0.7534  0.9299 -0.4733
    1SAPS  H17X  128   3.859   4.991   8.632  1.3774  0.0404  1.1751
    1SAPS  H17Y  129   3.974   5.113   8.562 -0.4243  0.2546 -1.4218
    1SAPS  C318  130   3.822   5.186   8.693  0.6598 -0.0781 -0.0326
    1SAPS  H18X  131   3.760   5.154   8.779  0.7462 -0.2878 -0.0473
    1SAPS  H18Y  132   3.748   5.201   8.611 -0.2319 -2.1606  0.3204
    1SAPS  H18Z  133   3.863   5.287   8.715  0.9428 -0.0615 -0.6112
    2SAPS     N  134   0.854   5.478  10.805  0.2193 -0.1492 -0.1218
    2SAPS   HN1  135   0.858   5.577  10.774 -1.1487  0.0864  0.3851
    2SAPS   HN2  136   0.789   5.478  10.887  0.9823  0.6804  0.5020
    2SAPS   HN3  137   0.946   5.442  10.836  1.2341  2.1345 -0.2561
    2SAPS   C12  138   0.817   5.388  10.693  0.0002  0.2345 -0.2744
    2SAPS  H12A  139   0.884   5.402  10.610 -1.4243 -0.7936 -1.6555
    2SAPS   C13  140   0.805   5.238  10.733 -0.4453 -0.3323 -0.2628
    2SAPS  O13A  141   0.812   5.200  10.851  0.6375  0.2020  0.5997
    2SAPS  O13B  142   0.795   5.156  10.637  0.4290  0.2649 -0.3247
    2SAPS   C11  143   0.681   5.436  10.643 -0.5063  0.3065  0.4603
    2SAPS  H11A  144   0.611   5.428  10.729 -0.5519  1.2396  0.5136
    2SAPS  H11B  145   0.647   5.366  10.564  1.0415 -0.1326  0.1474
    2SAPS     P  146   0.556   5.653  10.563  0.0047  0.1710 -0.2027
    2SAPS   O13  147   0.468   5.571  10.480  0.3628 -0.1653 -0.5643
    2SAPS   O14  148   0.499   5.699  10.693  0.4976 -0.1836 -0.2581
    2SAPS   O12  149   0.685   5.572  10.595  0.2101  0.4423  0.1970
    2SAPS   O11  150   0.600   5.780  10.481 -0.2814  0.0667 -0.0394
    2SAPS    C1  151   0.669   5.768  10.362  0.4696 -0.4132 -0.3828
    2SAPS    HA  152   0.777   5.745  10.378  0.4871 -2.1378 -2.6208
    2SAPS    HB  153   0.628   5.681  10.308 -0.1322 -0.1638 -0.3390
    2SAPS    C2  154   0.650   5.891  10.269  0.2128  0.1173 -0.5218
    2SAPS    HS  155   0.720   5.877  10.185  0.3864 -1.1867 -0.1829
    2SAPS   O21  156   0.693   6.013  10.330  0.0538  0.0181 -0.8216
    2SAPS   C21  157   0.819   6.021  10.372 -0.1509  0.4578 -0.1225
    2SAPS   O22  158   0.907   5.940  10.357 -0.2353 -0.0159  0.4056
    2SAPS   C22  159   0.841   6.150  10.439 -0.2083 -0.2535 -0.0864
    2SAPS   H2R  160   0.750   6.212  10.425  0.5926  1.0650  0.3420
    2SAPS   H2S  161   0.854   6.125  10.546  0.9958  1.7168  0.2875
    2SAPS    C3  162   0.510   5.903  10.201 -0.3819 -0.1008  0.1146
    2SAPS    HX  163   0.508   5.997  10.143 -1.2278 -0.0946  0.1469
    2SAPS    HY  164   0.436   5.911  10.284  0.2941 -1.1110  0.8445
    2SAPS   O31  165   0.490   5.790  10.110 -0.2410 -0.4038  0.6277
    2SAPS   C31  166   0.524   5.806   9.977  0.1788  0.3013  0.1488
    2SAPS   O32  167   0.557   5.913   9.930 -0.0178  0.4464  0.1028
    2SAPS   C32  168   0.493   5.676   9.906 -0.0875  0.5154 -0.1973
    2SAPS   H2X  169   0.383   5.671   9.900 -0.0040 -0.0242 -1.7290
    2SAPS   H2Y  170   0.530   5.592   9.969  0.1495 -0.1052 -1.1413
    2SAPS   C23  171   0.965   6.223  10.384 -0.3406  0.5036 -0.1725
    2SAPS   H3R  172   1.060   6.166  10.398  0.2716  1.1320 -1.5178
    2SAPS   H3S  173   0.981   6.308  10.453  0.6383 -1.5386  2.2644
    2SAPS   C24  174   0.958   6.263  10.235  0.2054  0.1044 -0.0072
    2SAPS   H4R  175   0.941   6.168  10.179  2.3573 -0.4382  0.1482
    2SAPS   H4S  176   1.057   6.298  10.199  0.7288 -1.8654 -0.6106
    2SAPS   C25  177   0.844   6.360  10.216 -0.2452 -0.1558 -0.2446
    2SAPS   H5R  178   0.812   6.407  10.310 -0.8777 -4.5152  1.9474
    2SAPS   C26  179   0.767   6.366  10.110  0.2912  0.7233  0.0894
    2SAPS   H6R  180   0.687   6.441  10.104 -0.4595 -0.0857 -0.3227
    2SAPS   C27  181   0.783   6.293   9.975  1.0855  0.0513  0.2592
    2SAPS   H7R  182   0.688   6.295   9.917  1.3658 -0.5658 -0.2274
    2SAPS   H7S  183   0.812   6.187   9.986 -0.7400 -0.5160 -0.1734
    2SAPS   C28  184   0.891   6.367   9.905 -0.6878  0.2907  0.5846
    2SAPS   H8R  185   0.994   6.358   9.944 -0.7941 -0.5398  0.7061
    2SAPS   C29  186   0.870   6.442   9.793 -0.4740 -0.2294 -0.0857
    2SAPS   H9R  187   0.956   6.492   9.745 -0.6521 -0.6596 -0.8540
    2SAPS  C210  188   0.734   6.468   9.730  0.0249 -0.7956  0.6730
    2SAPS  H10R  189   0.734   6.564   9.674 -2.5786 -2.0292 -1.6783
    2SAPS  H10S  190   0.654   6.489   9.804 -0.9428  0.5562 -0.7012
    2SAPS  C211  191   0.708   6.354   9.636  0.0402 -0.4370 -0.3522
    2SAPS  H11R  192   0.678   6.263   9.691 -1.5427  0.1793 -0.1708
    2SAPS  C212  193   0.742   6.344   9.504  0.1324 -0.4968  0.0164
    2SAPS  H12R  194   0.707   6.253   9.453  0.7347 -1.8234  1.8688
    2SAPS  C213  195   0.802   6.458   9.418 -0.1179  0.4530  0.0475
    2SAPS  H13R  196   0.897   6.421   9.375 -0.3404  0.0607 -0.1187
    2SAPS  H13S  197   0.823   6.545   9.482 -0.0478 -1.1245  2.2908
    2SAPS  C214  198   0.709   6.499   9.302 -0.0980 -0.1126 -0.2410
    2SAPS  H14R  199   0.642   6.580   9.334 -1.6793 -1.4910  0.0782
    2SAPS  C215  200   0.709   6.457   9.172  0.6179 -0.5626 -0.0350
    2SAPS  H15R  201   0.629   6.485   9.102 -0.6570 -1.8855  0.8285
    2SAPS  C216  202   0.799   6.359   9.099  0.8334  0.1640 -0.2468
    2SAPS  H16R  203   0.737   6.281   9.050 -0.7083  0.8803  0.4774
    2SAPS  H16S  204   0.857   6.294   9.167 -2.9908 -0.7581  2.4525
    2SAPS  C217  205   0.894   6.436   9.013 -0.0490  0.3363  0.4386
    2SAPS  H17R  206   0.974   6.478   9.078 -0.2996 -1.5124  2.0353
    2SAPS  H17S  207   0.840   6.513   8.955 -0.5938 -0.4615 -0.1384
    2SAPS  C218  208   0.962   6.356   8.900  0.2480  0.1874 -0.3619
    2SAPS  H18R  209   0.874   6.322   8.841  0.7621 -0.0316 -1.0140
    2SAPS  H18S  210   1.003   6.266   8.950 -1.6295 -0.8565 -0.5995
    2SAPS  C219  211   1.052   6.432   8.798  0.6509 -0.1405 -0.0173
    2SAPS  H19R  212   0.989   6.513   8.757  0.9123 -0.6237 -1.4226
    2SAPS  H19S  213   1.069   6.376   8.704 -0.7410  0.6677 -0.7897
    2SAPS  C220  214   1.168   6.493   8.856 -0.2655 -0.8210  0.4923
    2SAPS  H20R  215   1.237   6.541   8.783  0.1240 -1.9320  0.1093
    2SAPS  H20S  216   1.219   6.421   8.923 -1.3389 -2.0910 -0.0057
    2SAPS  H20T  217   1.132   6.567   8.930 -1.9658 -1.0004 -0.1077
    2SAPS   C33  218   0.568   5.658   9.778 -0.3279  0.3832  0.7919
    2SAPS   H3X  219   0.571   5.553   9.743 -1.0925  1.1843 -1.9132
    2SAPS   H3Y  220   0.672   5.695   9.788 -0.3380  1.1673 -1.4589
    2SAPS   C34  221   0.493   5.724   9.658  0.0783  0.0236 -0.2558
    2SAPS   H4X  222   0.482   5.834   9.671 -0.3304  0.0078 -0.4444
    2SAPS   H4Y  223   0.386   5.694   9.666 -0.1374  0.7675 -0.3246
    2SAPS   C35  224   0.556   5.689   9.525  0.0598  0.4289 -0.0792
    2SAPS   H5X  225   0.532   5.585   9.496  0.6326  0.1466  0.4527
    2SAPS   H5Y  226   0.664   5.685   9.549  0.3194  2.9109 -0.4925
    2SAPS   C36  227   0.524   5.786   9.414 -0.4493  0.2589 -1.2924
    2SAPS   H6X  228   0.548   5.887   9.454  0.8899 -1.1124  1.6784
    2SAPS   H6Y  229   0.423   5.792   9.370 -0.5053  1.4039 -1.0391
    2SAPS   C37  230   0.632   5.770   9.301 -0.0367  0.7452  0.0109
    2SAPS   H7X  231   0.612   5.666   9.266  2.7258 -0.7984  2.5437
    2SAPS   H7Y  232   0.729   5.748   9.350 -0.7464  0.8362  1.5156
    2SAPS   C38  233   0.626   5.870   9.188  0.3420  0.1996  0.0776
    2SAPS   H8X  234   0.655   5.970   9.225  0.8900  0.6632 -1.5253
    2SAPS   H8Y  235   0.522   5.884   9.152 -0.2609 -1.8619  0.8791
    2SAPS   C39  236   0.702   5.831   9.057  0.3836  0.3218 -0.2136
    2SAPS   H9X  237   0.639   5.760   8.999  0.1238  0.3966 -0.0281
    2SAPS   H9Y  238   0.794   5.777   9.087  1.0189  0.4133 -1.9118
    2SAPS  C310  239   0.738   5.950   8.969 -0.1439 -0.7787  0.6930
    2SAPS  H10X  240   0.811   6.013   9.024 -1.5783  0.1628  1.5892
    2SAPS  H10Y  241   0.643   6.007   8.958  0.8862  0.8601 -0.1130
    2SAPS  C311  242   0.800   5.903   8.834 -0.2552 -0.1526 -0.1350
    2SAPS  H11X  243   0.730   5.830   8.788 -2.3747 -0.1839  2.8607
    2SAPS  H11Y  244   0.896   5.857   8.865  0.6429  0.0119 -2.4733
    2SAPS  C312  245   0.811   6.021   8.734 -0.2979 -0.3392  0.0450
    2SAPS  H12X  246   0.853   5.985   8.638 -0.3645 -1.3370  0.3761
    2SAPS  H12Y  247   0.881   6.099   8.771 -0.0952 -0.4869 -0.0215
    2SAPS  C313  248   0.680   6.080   8.685  0.5010  0.1081  0.1295
    2SAPS  H13X  249   0.636   6.134   8.771  1.2831  0.3382  0.3856
    2SAPS  H13Y  250   0.615   5.997   8.646  0.0781  0.3424  0.3281
    2SAPS  C314  251   0.703   6.180   8.575  0.0476  0.2968  0.1115
    2SAPS  H14X  252   0.758   6.138   8.487 -1.7351 -2.6094  0.2316
    2SAPS  H14Y  253   0.776   6.258   8.606  1.2412 -0.3060 -1.0422
    2SAPS  C315  254   0.583   6.255   8.526 -0.4563  0.3873  1.4189
    2SAPS  H15X  255   0.618   6.319   8.442 -0.5623  0.4665  1.4348
    2SAPS  H15Y  256   0.528   6.314   8.602 -1.1788  1.7777 -0.1236
    2SAPS  C316  257   0.472   6.156   8.478  0.0105  0.2021 -0.3447
    2SAPS  H16X  258   0.386   6.216   8.441  0.5171  1.0181 -0.2060
    2SAPS  H16Y  259   0.433   6.097   8.563 -0.0185 -0.5048 -0.8379
    2SAPS  C317  260   0.526   6.058   8.380  0.7143  0.3023 -0.0553
    2SAPS  H17X  261   0.580   5.975   8.430  0.6474 -0.2593 -0.9062
    2SAPS  H17Y  262   0.596   6.100   8.305  0.2789 -1.9391 -1.8346
    2SAPS  C318  263   0.411   6.005   8.302 -0.1190  0.6115  0.2029
    2SAPS  H18X  264   0.370   5.926   8.369  0.6928  0.7763  0.9039
    2SAPS  H18Y  265   0.453   5.953   8.213 -0.8996  1.8375 -0.9247
    2SAPS  H18Z  266   0.346   6.088   8.267 -0.4815  0.8509  1.3759
    3SAPS     N  267   1.212   0.516  11.187 -0.0512  0.4575  0.1005
    3SAPS   HN1  268   1.219   0.423  11.233  0.9626  0.2932 -0.3531
    3SAPS   HN2  269   1.155   0.501  11.101  0.4213 -1.8413  0.1116
    3SAPS   HN3  270   1.301   0.545  11.142  1.2157 -2.2511  0.5994
    3SAPS   C12  271   1.153   0.629  11.274 -0.3122 -0.2750  0.2703
    3SAPS  H12A  272   1.057   0.592  11.307  1.1155 -4.2553  0.5642
    3SAPS   C13  273   1.232   0.662  11.405  0.1617 -0.4585 -0.0971
    3SAPS  O13A  274   1.352   0.635  11.416 -0.1421 -0.5519 -0.0333
    3SAPS  O13B  275   1.170   0.722  11.497 -0.5460 -0.2277  0.0013
    3SAPS   C11  276   1.119   0.757  11.190 -1.3100 -0.0245  0.7305
    3SAPS  H11A  277   1.220   0.801  11.171 -0.9322 -0.6357  1.3025
    3SAPS  H11B  278   1.062   0.831  11.250  0.0499  2.1931 -0.5926
    3SAPS     P  279   1.010   0.846  10.968  0.2891 -0.1866 -0.1808
    3SAPS   O13  280   0.923   0.782  10.863 -0.3165  0.0604 -0.2563
    3SAPS   O14  281   0.944   0.956  11.037 -0.0785  0.1159  0.6419
    3SAPS   O12  282   1.045   0.725  11.069  0.4167  0.0516  0.4712
    3SAPS   O11  283   1.149   0.882  10.906  0.8503  0.0515 -0.2243
    3SAPS    C1  284   1.261   0.794  10.886 -0.4072 -0.2747  0.2614
    3SAPS    HA  285   1.348   0.824  10.949 -0.0436 -0.3801 -0.1856
    3SAPS    HB  286   1.242   0.687  10.910  0.8871 -0.4292  0.7103
    3SAPS    C2  287   1.310   0.801  10.739 -0.2353  0.0710  0.4901
    3SAPS    HS  288   1.376   0.712  10.732 -2.0619 -1.3692  0.8418
    3SAPS   O21  289   1.371   0.925  10.704  0.6197  0.8345 -0.0512
    3SAPS   C21  290   1.475   0.920  10.619  0.3160  0.9674  0.5525
    3SAPS   O22  291   1.532   0.820  10.586 -0.1687  0.1370  0.0609
    3SAPS   C22  292   1.504   1.062  10.568  1.1701  0.2986  0.0317
    3SAPS   H2R  293   1.521   1.128  10.656 -0.1448  2.5578 -1.3064
    3SAPS   H2S  294   1.605   1.063  10.522  1.7461 -2.5638  1.0473
    3SAPS    C3  295   1.188   0.787  10.645 -0.4402  0.2063 -0.5147
    3SAPS    HX  296   1.134   0.883  10.663 -0.5823  0.0712 -0.2213
    3SAPS    HY  297   1.112   0.711  10.671 -0.4611  0.2820 -0.3491
    3SAPS   O31  298   1.226   0.775  10.504  0.2410 -0.0736 -0.4895
    3SAPS   C31  299   1.224   0.650  10.450 -0.0350  0.0528  0.0176
    3SAPS   O32  300   1.206   0.551  10.526  0.5029 -0.3757 -0.7003
    3SAPS   C32  301   1.251   0.654  10.306  0.1308 -0.8284  0.0694
    3SAPS   H2X  302   1.345   0.710  10.286 -0.1002 -0.2661  0.5067
    3SAPS   H2Y  303   1.175   0.716  10.252  0.6603 -1.2555 -1.1990
    3SAPS   C23  304   1.391   1.113  10.472  0.3253 -0.2484 -0.1596
    3SAPS   H3R  305   1.422   1.213  10.437 -1.4141  0.9183  1.4665
    3SAPS   H3S  306   1.295   1.129  10.524 -0.6878  0.6332 -2.2003
    3SAPS   C24  307   1.372   1.036  10.335 -0.7424  0.4861  0.5623
    3SAPS   H4R  308   1.271   1.069  10.301 -0.7637  0.2908  0.4346
    3SAPS   H4S  309   1.357   0.926  10.346 -1.8076  0.6137  0.5163
    3SAPS   C25  310   1.494   1.054  10.243 -0.1688  0.6905 -0.0647
    3SAPS   H5R  311   1.588   1.060  10.299  0.6779 -0.2853 -1.3292
    3SAPS   C26  312   1.489   1.069  10.111  0.5345  0.3476  0.2885
    3SAPS   H6R  313   1.580   1.080  10.050  0.3716 -0.0204 -0.0258
    3SAPS   C27  314   1.363   1.054  10.030 -0.1296  0.9703 -0.2215
    3SAPS   H7R  315   1.347   1.148   9.973  3.2869 -0.0394 -3.2360
    3SAPS   H7S  316   1.273   1.032  10.091 -0.8115  0.7643 -1.2895
    3SAPS   C28  317   1.377   0.937   9.938  0.4918 -0.3825  0.8222
    3SAPS   H8R  318   1.372   0.838   9.987 -0.7082 -1.2219 -0.8725
    3SAPS   C29  319   1.410   0.943   9.806 -0.3339 -0.5032 -0.2350
    3SAPS   H9R  320   1.420   0.845   9.757  2.4494  0.5371 -1.9945
    3SAPS  C210  321   1.436   1.070   9.726  0.1850 -0.1506 -0.1973
    3SAPS  H10R  322   1.450   1.151   9.801  2.8144 -1.7356  1.1534
    3SAPS  H10S  323   1.342   1.094   9.671 -0.2575 -1.3357  0.0055
    3SAPS  C211  324   1.560   1.055   9.634 -0.0751  0.4125 -0.5813
    3SAPS  H11R  325   1.656   1.051   9.687  0.5918 -0.0357 -1.7763
    3SAPS  C212  326   1.567   1.059   9.501 -0.1592 -0.6628 -0.0527
    3SAPS  H12R  327   1.668   1.057   9.457  0.5741 -3.9041  1.4782
    3SAPS  C213  328   1.460   1.070   9.400 -0.2040  0.3179 -0.3333
    3SAPS  H13R  329   1.364   1.042   9.449 -0.3898 -0.1065 -0.9203
    3SAPS  H13S  330   1.486   0.986   9.333  2.0721 -0.1592  1.0632
    3SAPS  C214  331   1.435   1.195   9.317 -0.1538 -0.0911  0.0411
    3SAPS  H14R  332   1.402   1.282   9.375 -1.4219 -1.3892  1.3332
    3SAPS  C215  333   1.459   1.220   9.183  0.0357  0.7032  0.2966
    3SAPS  H15R  334   1.447   1.321   9.141  0.4044  0.7497  0.3020
    3SAPS  C216  335   1.513   1.113   9.088 -0.3726 -0.2193  0.5284
    3SAPS  H16R  336   1.427   1.065   9.036  1.0510  0.7461 -2.9892
    3SAPS  H16S  337   1.568   1.034   9.142 -2.0474 -1.3989  0.5970
    3SAPS  C217  338   1.607   1.171   8.981 -0.5972  0.4339  0.0211
    3SAPS  H17R  339   1.690   1.212   9.043  0.1526 -2.6730  1.2746
    3SAPS  H17S  340   1.566   1.242   8.906  1.1605 -0.2852 -1.7069
    3SAPS  C218  341   1.682   1.061   8.905 -0.3265  0.1600  0.1446
    3SAPS  H18R  342   1.605   1.011   8.843  0.3755 -0.1299 -0.5066
    3SAPS  H18S  343   1.723   0.985   8.975 -0.8250 -1.5367 -1.3220
    3SAPS  C219  344   1.794   1.106   8.811 -0.2882  0.0713  0.6922
    3SAPS  H19R  345   1.859   1.169   8.875  0.7610 -0.9136  0.6216
    3SAPS  H19S  346   1.745   1.163   8.729 -1.7199 -0.2497  1.2990
    3SAPS  C220  347   1.868   0.978   8.768 -0.2425  0.5752  0.1585
    3SAPS  H20R  348   1.916   0.937   8.859  1.1884 -0.4390 -1.0279
    3SAPS  H20S  349   1.947   0.995   8.693 -0.9036 -0.6582 -0.8507
    3SAPS  H20T  350   1.804   0.902   8.719 -1.3174  1.1167  0.6758
    3SAPS   C33  351   1.252   0.516  10.235  0.1297  0.2611  0.2336
    3SAPS   H3X  352   1.156   0.468  10.264 -1.3227  2.2109 -1.0110
    3SAPS   H3Y  353   1.324   0.443  10.276 -0.9690 -0.6722  0.5550
    3SAPS   C34  354   1.255   0.517  10.086  0.3774  0.4081  0.5279
    3SAPS   H4X  355   1.356   0.559  10.067  1.5524 -2.6588 -0.6669
    3SAPS   H4Y  356   1.176   0.572  10.030 -0.3346 -0.9008  0.2270
    3SAPS   C35  357   1.254   0.374  10.020 -0.0561  0.3684 -0.4740
    3SAPS   H5X  358   1.146   0.350  10.013 -0.1942  0.1801  1.6249
    3SAPS   H5Y  359   1.301   0.299  10.087  0.9307  1.1625 -0.2428
    3SAPS   C36  360   1.325   0.379   9.886 -1.4582 -0.6508  0.1384
    3SAPS   H6X  361   1.358   0.279   9.853  1.8765  1.2231 -2.8389
    3SAPS   H6Y  362   1.420   0.434   9.900 -2.0602  0.3932  0.2516
    3SAPS   C37  363   1.250   0.454   9.770 -0.2824  0.3233 -0.5001
    3SAPS   H7X  364   1.228   0.561   9.792 -0.3154  0.4344 -1.0689
    3SAPS   H7Y  365   1.156   0.400   9.743  0.8209 -1.7895 -0.3139
    3SAPS   C38  366   1.325   0.442   9.641  0.2422  0.5429  0.8729
    3SAPS   H8X  367   1.350   0.336   9.622  0.6434  1.0063 -1.4835
    3SAPS   H8Y  368   1.428   0.485   9.648  0.0960  1.2776 -0.8762
    3SAPS   C39  369   1.244   0.504   9.534  0.4313  0.5090  0.2746
    3SAPS   H9X  370   1.231   0.605   9.579 -1.5070  0.4748 -0.1017
    3SAPS   H9Y  371   1.146   0.451   9.530  0.3739  0.3979  2.0026
    3SAPS  C310  372   1.310   0.507   9.402  0.4232 -0.3364 -0.3561
    3SAPS  H10X  373   1.311   0.404   9.361 -0.2543  0.2346 -1.8859
    3SAPS  H10Y  374   1.414   0.544   9.410  0.6712 -0.6890 -1.7472
    3SAPS  C311  375   1.241   0.590   9.289 -0.4025 -0.1187 -0.1864
    3SAPS  H11X  376   1.131   0.585   9.301 -0.4181 -1.9412 -0.6866
    3SAPS  H11Y  377   1.264   0.525   9.202  1.8453 -1.2096  1.1248
    3SAPS  C312  378   1.289   0.731   9.265  0.2106 -0.8151  0.1134
    3SAPS  H12X  379   1.398   0.746   9.253 -0.1517  1.5463 -0.5512
    3SAPS  H12Y  380   1.265   0.795   9.352  1.9162  0.4864 -0.3385
    3SAPS  C313  381   1.211   0.784   9.148 -0.2478 -0.6996 -0.9741
    3SAPS  H13X  382   1.198   0.891   9.178 -2.2208 -1.4377  1.2015
    3SAPS  H13Y  383   1.111   0.736   9.155 -0.3517 -0.5804 -1.6495
    3SAPS  C314  384   1.276   0.754   9.014  0.7500 -0.0181  0.1140
    3SAPS  H14X  385   1.266   0.646   8.991 -0.3469 -0.5377  2.6861
    3SAPS  H14Y  386   1.386   0.768   9.015  0.6469  0.8878 -0.0234
    3SAPS  C315  387   1.235   0.840   8.888  0.0921 -0.9763 -0.4101
    3SAPS  H15X  388   1.235   0.944   8.929 -0.8304 -0.9811 -0.3863
    3SAPS  H15Y  389   1.134   0.815   8.849  0.5297  0.6242 -2.8010
    3SAPS  C316  390   1.329   0.842   8.773  0.4285 -0.0852  0.1515
    3SAPS  H16X  391   1.275   0.779   8.698  1.0419 -1.1184  0.5660
    3SAPS  H16Y  392   1.423   0.786   8.793 -0.2104 -0.9175  0.8972
    3SAPS  C317  393   1.359   0.973   8.699  0.3872 -0.2629 -0.5473
    3SAPS  H17X  394   1.397   1.046   8.773  0.7796  0.5460 -1.5216
    3SAPS  H17Y  395   1.261   0.994   8.651 -0.6782 -0.2958  1.4975
    3SAPS  C318  396   1.465   0.947   8.597 -0.2342  0.0909 -0.4957
    3SAPS  H18X  397   1.478   1.039   8.537  0.9653 -0.1517 -0.6378
    3SAPS  H18Y  398   1.422   0.871   8.528 -3.0567  0.1726  1.0235
    3SAPS  H18Z  399   1.556   0.907   8.647  0.6086  0.7024 -1.5128
    4SAPS     N  400   3.956   1.556  10.956 -0.0553 -0.2447 -0.2596
    4SAPS   HN1  401   3.943   1.656  10.931 -1.5297 -0.6048 -1.0058
    4SAPS   HN2  402   3.911   1.505  10.878  1.3257  1.0093 -1.9717
    4SAPS   HN3  403   3.912   1.537  11.048 -0.2151  2.2734  0.2505
    4SAPS   C12  404   4.102   1.533  10.958  0.2150 -0.1160  0.3924
    4SAPS  H12A  405   4.150   1.588  11.038  2.0267  0.0754 -0.7786
    4SAPS   C13  406   4.152   1.381  10.973  0.5564 -0.5034  0.4189
    4SAPS  O13A  407   4.069   1.287  10.975 -0.5042  0.3066 -0.4078
    4SAPS  O13B  408   4.275   1.363  10.964 -0.4874 -0.7851 -0.8141
    4SAPS   C11  409   4.163   1.598  10.834 -0.3316  0.1954 -0.0129
    4SAPS  H11A  410   4.121   1.561  10.738  1.4608 -0.9583 -0.4189
    4SAPS  H11B  411   4.267   1.559  10.832  0.0769  1.1783 -2.8217
    4SAPS     P  412   4.197   1.844  10.737 -0.0390 -0.2616  0.0803
    4SAPS   O13  413   4.098   1.955  10.728  0.0065 -0.1495  0.0940
    4SAPS   O14  414   4.339   1.882  10.764  0.6926 -0.5141  0.0115
    4SAPS   O12  415   4.167   1.739  10.846  0.5615  0.4837 -0.9289
    4SAPS   O11  416   4.194   1.754  10.605 -0.0667 -0.8632 -0.0023
    4SAPS    C1  417   4.078   1.717  10.536  0.7685  0.3827 -0.3784
    4SAPS    HA  418   4.088   1.623  10.478  0.1296  0.0664  0.0140
    4SAPS    HB  419   3.995   1.703  10.609  0.5388 -2.1064 -1.0181
    4SAPS    C2  420   4.024   1.833  10.438 -0.1728 -0.1799  0.5155
    4SAPS    HS  421   4.031   1.926  10.498  1.2591 -0.5692  1.0068
    4SAPS   O21  422   3.889   1.805  10.401  0.8362  0.5077  0.6304
    4SAPS   C21  423   3.834   1.909  10.338 -0.5409 -0.8784 -0.0245
    4SAPS   O22  424   3.889   2.020  10.339  0.4634 -0.1966 -0.5693
    4SAPS   C22  425   3.698   1.867  10.280 -0.0367 -0.1238 -0.5354
    4SAPS   H2R  426   3.656   1.793  10.351 -1.4318  0.7628 -0.4010
    4SAPS   H2S  427   3.630   1.955  10.276 -0.0164 -0.0290  0.7595
    4SAPS    C3  428   4.116   1.835  10.312 -0.6616  0.1800  0.7002
    4SAPS    HX  429   4.220   1.858  10.345 -0.2576  1.4386 -1.2819
    4SAPS    HY  430   4.076   1.917  10.249  0.4337 -0.1073 -0.4036
    4SAPS   O31  431   4.112   1.706  10.241  0.7375 -0.4033 -0.5889
    4SAPS   C31  432   4.187   1.701  10.132 -0.3525  0.0633 -0.4373
    4SAPS   O32  433   4.269   1.786  10.100 -0.2293  0.4519 -0.4779
    4SAPS   C32  434   4.138   1.575  10.055  0.4972 -0.2911  0.2896
    4SAPS   H2X  435   4.105   1.501  10.132 -2.0667  0.7730  0.3302
    4SAPS   H2Y  436   4.222   1.538   9.991  0.9965  0.4730  0.4984
    4SAPS   C23  437   3.704   1.811  10.135 -0.5284  0.3393 -0.5036
    4SAPS   H3R  438   3.744   1.709  10.155  0.6282  1.2003  1.9753
    4SAPS   H3S  439   3.790   1.860  10.084 -0.7572  0.4205 -0.8186
    4SAPS   C24  440   3.582   1.817  10.052 -0.4135 -0.5109 -0.0482
    4SAPS   H4R  441   3.491   1.760  10.081 -1.3765 -0.5345 -2.7854
    4SAPS   H4S  442   3.604   1.760   9.959 -0.4168  0.1331 -0.4529
    4SAPS   C25  443   3.540   1.959  10.027 -0.7507 -0.7742 -0.6479
    4SAPS   H5R  444   3.498   2.009  10.116  2.9623 -2.4389  2.3626
    4SAPS   C26  445   3.557   2.031   9.912 -0.5138  0.2787  0.3223
    4SAPS   H6R  446   3.514   2.132   9.919  0.9618  0.9534 -0.0202
    4SAPS   C27  447   3.610   1.994   9.780 -0.3008 -0.5978  1.2831
    4SAPS   H7R  448   3.719   1.972   9.790  0.0908  1.6913  2.6877
    4SAPS   H7S  449   3.608   2.088   9.721  0.6429  0.7983  3.3786
    4SAPS   C28  450   3.534   1.898   9.695  0.1803  0.5052  0.5731
    4SAPS   H8R  451   3.466   1.834   9.752  1.0315 -1.3152 -0.3602
    4SAPS   C29  452   3.535   1.895   9.560  0.1337 -0.0898  0.2232
    4SAPS   H9R  453   3.480   1.820   9.501  2.0350 -1.0427 -0.4127
    4SAPS  C210  454   3.623   1.988   9.478 -0.3952  0.7954  0.0099
    4SAPS  H10R  455   3.730   1.980   9.504 -0.0434  0.2092 -1.5319
    4SAPS  H10S  456   3.593   2.095   9.481 -0.6190  0.9925 -3.9420
    4SAPS  C211  457   3.630   1.942   9.334 -0.0425 -0.6113 -0.1353
    4SAPS  H11R  458   3.674   1.847   9.301 -0.7536 -0.3949 -1.8502
    4SAPS  C212  459   3.584   2.010   9.235 -0.0769 -0.7776  0.8151
    4SAPS  H12R  460   3.598   1.967   9.135  3.1233 -2.3100  1.7955
    4SAPS  C213  461   3.519   2.142   9.246 -0.1390 -0.3292 -0.3473
    4SAPS  H13R  462   3.473   2.162   9.346 -3.5615  0.1511 -1.8565
    4SAPS  H13S  463   3.428   2.135   9.183  0.7228 -2.6370 -1.4499
    4SAPS  C214  464   3.613   2.260   9.209 -0.1636  0.5414 -0.1776
    4SAPS  H14R  465   3.701   2.232   9.149  0.4344  1.2550  0.3435
    4SAPS  C215  466   3.581   2.391   9.213  0.0647 -0.2434  0.1502
    4SAPS  H15R  467   3.654   2.466   9.178  2.5839 -1.5670  2.2602
    4SAPS  C216  468   3.460   2.446   9.281 -0.2034  0.2707  0.0830
    4SAPS  H16R  469   3.483   2.549   9.315  1.7666 -0.2341  0.3901
    4SAPS  H16S  470   3.432   2.394   9.374 -2.2812  0.2010 -0.5185
    4SAPS  C217  471   3.335   2.459   9.191 -0.2484  0.0925  0.3325
    4SAPS  H17R  472   3.256   2.502   9.256 -0.4264 -0.3787  0.4306
    4SAPS  H17S  473   3.300   2.354   9.180  0.2366 -0.0910  0.4845
    4SAPS  C218  474   3.346   2.530   9.055  0.4204 -0.5416  0.2505
    4SAPS  H18R  475   3.417   2.474   8.990 -1.0603 -0.5497 -1.4383
    4SAPS  H18S  476   3.386   2.633   9.062  2.0076 -1.0580 -0.6642
    4SAPS  C219  477   3.211   2.523   8.976 -0.0326 -0.0587 -0.6369
    4SAPS  H19R  478   3.134   2.563   9.047  1.1143 -1.2398  1.3533
    4SAPS  H19S  479   3.185   2.420   8.943  0.7622  0.2662 -2.3272
    4SAPS  C220  480   3.212   2.603   8.846  0.1225 -0.4711 -0.0587
    4SAPS  H20R  481   3.118   2.580   8.792 -0.9808 -1.0152  1.9808
    4SAPS  H20S  482   3.292   2.578   8.773 -0.0503  0.0244 -0.4286
    4SAPS  H20T  483   3.229   2.711   8.869  2.6429 -0.7371 -0.3613
    4SAPS   C33  484   4.023   1.614   9.958 -0.5963  0.1027 -0.6037
    4SAPS   H3X  485   3.973   1.704   9.999 -2.1555 -1.1368  0.3797
    4SAPS   H3Y  486   3.945   1.535   9.946  0.3063 -0.5871 -2.1668
    4SAPS   C34  487   4.069   1.641   9.817 -0.2536  0.7495 -0.0317
    4SAPS   H4X  488   4.141   1.726   9.816  1.4520 -0.5860  1.5782
    4SAPS   H4Y  489   3.989   1.680   9.751  0.1077 -1.4552 -1.8920
    4SAPS   C35  490   4.123   1.513   9.746  0.2517 -0.2355  0.3937
    4SAPS   H5X  491   4.046   1.435   9.767 -0.0856  0.0215  0.1276
    4SAPS   H5Y  492   4.215   1.463   9.784  1.5350 -1.1098 -3.4586
    4SAPS   C36  493   4.161   1.528   9.596  0.8294  0.4018 -0.2209
    4SAPS   H6X  494   4.220   1.436   9.576  1.3492  0.4045  1.1869
    4SAPS   H6Y  495   4.222   1.621   9.592  1.1606  0.1671 -0.6360
    4SAPS   C37  496   4.061   1.563   9.490 -0.3154 -0.0974  0.2425
    4SAPS   H7X  497   4.006   1.655   9.519  0.5908  0.5570 -0.0809
    4SAPS   H7Y  498   3.988   1.479   9.495 -1.1234  0.6415  1.8010
    4SAPS   C38  499   4.128   1.591   9.349  0.5204  0.5681  0.4339
    4SAPS   H8X  500   4.226   1.641   9.367 -0.0432  1.0968  2.2183
    4SAPS   H8Y  501   4.059   1.663   9.300 -1.9498 -1.6269  0.4707
    4SAPS   C39  502   4.147   1.468   9.269 -0.1951 -0.4669 -0.5527
    4SAPS   H9X  503   4.052   1.412   9.274 -1.1657  1.1752  0.0348
    4SAPS   H9Y  504   4.226   1.396   9.301 -0.8435 -0.3627  1.4488
    4SAPS  C310  505   4.151   1.506   9.119  0.2643 -0.0227 -0.0824
    4SAPS  H10X  506   4.252   1.549   9.101  1.1599 -1.7968  0.5330
    4SAPS  H10Y  507   4.074   1.585   9.106  0.4910  0.9803  3.5527
    4SAPS  C311  508   4.134   1.393   9.015  0.2347  0.5205  0.0046
    4SAPS  H11X  509   4.041   1.339   9.046 -1.3682  2.3584 -1.3570
    4SAPS  H11Y  510   4.212   1.317   9.034  1.4680  0.8687 -3.1915
    4SAPS  C312  511   4.124   1.439   8.872  0.1343  0.0154 -0.7689
    4SAPS  H12X  512   4.225   1.473   8.843 -0.3491  0.0498 -2.5700
    4SAPS  H12Y  513   4.061   1.530   8.865  2.9431  2.1054 -0.4549
    4SAPS  C313  514   4.079   1.325   8.778  0.0581 -0.0849 -0.3561
    4SAPS  H13X  515   4.047   1.375   8.684  0.7307  2.1234  0.5444
    4SAPS  H13Y  516   3.979   1.291   8.813 -1.1677  3.1152 -0.4592
    4SAPS  C314  517   4.187   1.217   8.764 -0.0206 -0.3743  0.1328
    4SAPS  H14X  518   4.149   1.125   8.713  0.2600 -0.6478  0.4064
    4SAPS  H14Y  519   4.231   1.185   8.861  2.9979 -1.0002 -1.3146
    4SAPS  C315  520   4.302   1.263   8.684 -0.2666 -0.0301 -0.0545
    4SAPS  H15X  521   4.312   1.373   8.673 -1.9432  0.0014 -1.6552
    4SAPS  H15Y  522   4.292   1.224   8.581 -1.8559 -0.8105  0.3754
    4SAPS  C316  523   4.436   1.214   8.743  0.6562 -0.0732 -0.1077
    4SAPS  H16X  524   4.424   1.108   8.774  2.2137  0.6877  3.6403
    4SAPS  H16Y  525   4.453   1.260   8.842  0.2573 -2.4325  1.1284
    4SAPS  C317  526   4.550   1.231   8.647 -0.8460 -0.7157  0.2044
    4SAPS  H17X  527   4.510   1.250   8.545 -1.0942 -3.5004 -0.3077
    4SAPS  H17Y  528   4.595   1.129   8.649  0.6304 -0.1203 -0.8423
    4SAPS  C318  529   4.660   1.321   8.705  0.2184 -0.1088 -0.2528
    4SAPS  H18X  530   4.752   1.288   8.653 -1.1091 -0.3145 -2.6305
    4SAPS  H18Y  531   4.667   1.304   8.815 -0.3194  0.7486 -0.0816
    4SAPS  H18Z  532   4.646   1.429   8.684 -2.1503 -0.2907  0.1290
    5SAPS     N  533   0.538   6.587  10.929  0.2286 -0.2912  1.1702
    5SAPS   HN1  534   0.486   6.511  10.880  0.7956 -1.3492  2.1443
    5SAPS   HN2  535   0.617   6.616  10.868  0.8604 -0.4440  1.8975
    5SAPS   HN3  536   0.577   6.545  11.016  0.7846 -0.2751  0.9314
    5SAPS   C12  537   0.455   6.700  10.973  0.6337  0.2002  0.3733
    5SAPS  H12A  538   0.432   6.756  10.884  2.6041  2.6458  1.2499
    5SAPS   C13  539   0.319   6.663  11.042 -1.1007 -0.4350 -0.4233
    5SAPS  O13A  540   0.298   6.538  11.066  0.4024 -0.5857  0.4521
    5SAPS  O13B  541   0.230   6.743  11.066  0.5284 -0.4882  0.1398
    5SAPS   C11  542   0.536   6.799  11.060 -0.4629 -0.0389  0.0463
    5SAPS  H11A  543   0.584   6.739  11.140 -0.0543 -0.1482 -0.2722
    5SAPS  H11B  544   0.462   6.861  11.114 -0.0490  1.0320 -0.5699
    5SAPS     P  545   0.774   6.918  11.005  0.0908  0.0027 -0.3192
    5SAPS   O13  546   0.775   7.031  11.098  0.5325  0.0363 -0.2351
    5SAPS   O14  547   0.849   6.797  11.038 -0.5588  0.0435 -0.6420
    5SAPS   O12  548   0.623   6.883  10.985  0.2434 -0.8854 -0.2300
    5SAPS   O11  549   0.809   6.968  10.861 -0.3322 -0.5014  0.0616
    5SAPS    C1  550   0.718   7.037  10.768 -0.8146 -0.4435  0.3955
    5SAPS    HA  551   0.655   7.107  10.827  1.3848 -0.4599  2.9706
    5SAPS    HB  552   0.772   7.102  10.696 -3.6914  1.4494 -0.2432
    5SAPS    C2  553   0.626   6.945  10.686 -0.5456 -0.1045 -0.1777
    5SAPS    HS  554   0.571   6.869  10.745 -1.3057 -0.5073 -1.3732
    5SAPS   O21  555   0.698   6.888  10.571  0.0158  0.1134 -0.2189
    5SAPS   C21  556   0.634   6.790  10.511 -0.1590  1.1001 -0.1941
    5SAPS   O22  557   0.523   6.749  10.543  0.3175 -0.3415 -0.1417
    5SAPS   C22  558   0.731   6.720  10.405  0.6590 -0.3605 -0.0574
    5SAPS   H2R  559   0.814   6.794  10.395  1.2874 -1.0314  0.0795
    5SAPS   H2S  560   0.768   6.632  10.463  3.7529  1.2040  0.5889
    5SAPS    C3  561   0.503   7.035  10.640 -0.3993 -0.1010  0.0802
    5SAPS    HX  562   0.448   7.071  10.730 -1.6345 -0.1914 -0.6089
    5SAPS    HY  563   0.433   6.971  10.582  1.3509 -1.9463 -0.1054
    5SAPS   O31  564   0.556   7.146  10.568 -0.4472  0.1025  0.2254
    5SAPS   C31  565   0.475   7.249  10.552  0.6676 -0.5004 -0.0689
    5SAPS   O32  566   0.367   7.264  10.605  0.0882  0.1692 -0.0694
    5SAPS   C32  567   0.532   7.347  10.445  0.0070 -0.6331  0.7376
    5SAPS   H2X  568   0.631   7.380  10.484  0.3424  1.8645 -1.8911
    5SAPS   H2Y  569   0.469   7.439  10.441 -1.8829 -1.7632  2.5768
    5SAPS   C23  570   0.666   6.680  10.269 -1.2119  0.6357  0.2732
    5SAPS   H3R  571   0.594   6.597  10.286 -1.8953  1.0345 -0.5753
    5SAPS   H3S  572   0.753   6.642  10.211 -1.0201  0.7924  0.4566
    5SAPS   C24  573   0.610   6.800  10.202 -0.3060  0.6497  0.1285
    5SAPS   H4R  574   0.697   6.867  10.183  0.9952 -0.7738  0.8288
    5SAPS   H4S  575   0.539   6.864  10.260  1.7953  1.8508  1.5458
    5SAPS   C25  576   0.538   6.760  10.074  0.4084 -0.0869 -0.3400
    5SAPS   H5R  577   0.464   6.681  10.092  1.8784 -1.5745 -0.5453
    5SAPS   C26  578   0.571   6.791   9.948  0.0941 -0.3362  0.4432
    5SAPS   H6R  579   0.520   6.733   9.870  0.9932 -1.3598  0.5900
    5SAPS   C27  580   0.672   6.887   9.900  0.6673  0.1964  0.4906
    5SAPS   H7R  581   0.738   6.914   9.986 -1.0285 -1.7394  2.5301
    5SAPS   H7S  582   0.616   6.979   9.873  2.8120  0.6741 -2.8771
    5SAPS   C28  583   0.741   6.829   9.777 -0.2286  0.5322 -0.0935
    5SAPS   H8R  584   0.802   6.742   9.807 -0.5703  0.1901 -0.3851
    5SAPS   C29  585   0.727   6.848   9.646 -0.5354 -0.5628  0.4759
    5SAPS   H9R  586   0.797   6.802   9.575 -2.1733  0.1705 -1.7285
    5SAPS  C210  587   0.635   6.950   9.581  0.0984  0.4339  0.0921
    5SAPS  H10R  588   0.671   7.052   9.606  1.2612  0.1095 -0.1862
    5SAPS  H10S  589   0.532   6.943   9.622 -0.0655  0.1240 -0.3644
    5SAPS  C211  590   0.625   6.938   9.429  0.4799  0.1220 -0.8129
    5SAPS  H11R  591   0.681   7.012   9.370 -2.3775  2.5683 -0.6910
    5SAPS  C212  592   0.545   6.860   9.359  0.5707  0.5165  0.3228
    5SAPS  H12R  593   0.539   6.858   9.249 -0.7890  0.1487  0.3870
    5SAPS  C213  594   0.448   6.757   9.412 -0.4870  0.0317 -0.0361
    5SAPS  H13R  595   0.495   6.690   9.488 -2.2473 -1.2052  0.0426
    5SAPS  H13S  596   0.427   6.689   9.327  1.4044  1.7361 -1.9597
    5SAPS  C214  597   0.315   6.820   9.466 -0.3582 -0.1121  0.0979
    5SAPS  H14R  598   0.294   6.925   9.441 -0.6828  0.3677  2.1664
    5SAPS  C215  599   0.232   6.753   9.548  0.2846  0.6080 -0.7381
    5SAPS  H15R  600   0.153   6.815   9.594  1.4182  2.2736 -0.9669
    5SAPS  C216  601   0.245   6.609   9.606 -0.3570  0.4620 -0.2871
    5SAPS  H16R  602   0.349   6.588   9.640 -0.2583 -1.4432 -1.6014
    5SAPS  H16S  603   0.222   6.532   9.529  2.3443  0.2060 -0.9280
    5SAPS  C217  604   0.156   6.582   9.733 -0.5444  0.0630 -0.4714
    5SAPS  H17R  605   0.154   6.472   9.746  1.1808  0.1355  0.7279
    5SAPS  H17S  606   0.051   6.605   9.706 -1.0192 -2.1677 -0.7534
    5SAPS  C218  607   0.192   6.654   9.859  0.1547  0.1265  0.0884
    5SAPS  H18R  608   0.292   6.627   9.900  0.5732  0.1091 -0.9067
    5SAPS  H18S  609   0.206   6.763   9.842 -0.7241  0.0070 -1.6434
    5SAPS  C219  610   0.091   6.634   9.973 -0.0075 -0.4676  0.6984
    5SAPS  H19R  611   0.087   6.526   9.997  0.9067 -0.1040  2.6668
    5SAPS  H19S  612  -0.012   6.664   9.944 -0.6381 -2.5876  0.6146
    5SAPS  C220  613   0.135   6.699  10.107  0.2770 -0.4191 -0.4331
    5SAPS  H20R  614   0.066   6.669  10.189  2.1224  0.2238  1.4421
    5SAPS  H20S  615   0.130   6.810  10.097  2.2490 -0.2807 -0.2855
    5SAPS  H20T  616   0.239   6.683  10.144 -0.4533  0.0603  2.0719
    5SAPS   C33  617   0.552   7.308  10.306 -0.1354 -0.2566  0.6569
    5SAPS   H3X  618   0.560   7.404  10.252 -1.1494 -0.9959 -0.8716
    5SAPS   H3Y  619   0.464   7.272  10.248  0.7790  1.7325 -2.1895
    5SAPS   C34  620   0.684   7.230  10.291 -0.4991 -0.6530 -0.0905
    5SAPS   H4X  621   0.686   7.142  10.359 -2.7269 -0.0244  0.8824
    5SAPS   H4Y  622   0.754   7.298  10.344 -2.7428 -0.0007  2.2547
    5SAPS   C35  623   0.716   7.203  10.141 -0.5758 -0.8308 -0.3025
    5SAPS   H5X  624   0.627   7.185  10.077 -0.2746  0.0053 -0.9745
    5SAPS   H5Y  625   0.780   7.112  10.133 -0.9049 -1.1480  0.5296
    5SAPS   C36  626   0.798   7.316  10.074 -0.0155  0.8103  0.2879
    5SAPS   H6X  627   0.892   7.325  10.133 -0.2299 -1.9328  1.1495
    5SAPS   H6Y  628   0.741   7.411  10.066 -2.2604 -0.6262 -2.1009
    5SAPS   C37  629   0.837   7.279   9.927  0.7701 -0.1119  0.1821
    5SAPS   H7X  630   0.830   7.168   9.916 -2.9512  0.1473 -1.9052
    5SAPS   H7Y  631   0.943   7.311   9.925  1.4641 -2.1771  1.1307
    5SAPS   C38  632   0.759   7.326   9.809 -0.3160 -0.0657  0.7992
    5SAPS   H8X  633   0.754   7.437   9.811  2.3523  0.1002  1.9383
    5SAPS   H8Y  634   0.660   7.275   9.813 -0.0522 -0.5717  0.9395
    5SAPS   C39  635   0.844   7.283   9.685  0.2799  0.1063 -0.1223
    5SAPS   H9X  636   0.860   7.173   9.683 -2.2652 -0.5134  3.3626
    5SAPS   H9Y  637   0.944   7.330   9.681  0.2207  0.4597  1.6191
    5SAPS  C310  638   0.767   7.322   9.555  0.7461 -0.2455  0.7499
    5SAPS  H10X  639   0.741   7.429   9.569  1.5477 -0.0885  1.1446
    5SAPS  H10Y  640   0.671   7.266   9.563  0.3555  0.5495  1.9849
    5SAPS  C311  641   0.845   7.283   9.433  0.0886 -0.5005  0.3362
    5SAPS  H11X  642   0.846   7.172   9.437  2.0932 -0.4852  3.1400
    5SAPS  H11Y  643   0.950   7.319   9.426 -0.7018  1.6257 -3.2589
    5SAPS  C312  644   0.785   7.332   9.300 -0.0216  0.0758 -0.0317
    5SAPS  H12X  645   0.792   7.443   9.302 -3.4995  0.4069 -0.3509
    5SAPS  H12Y  646   0.679   7.301   9.284 -0.3540 -0.2670  2.4515
    5SAPS  C313  647   0.868   7.292   9.176 -0.2840  0.1850 -0.2342
    5SAPS  H13X  648   0.883   7.182   9.170 -0.6288  0.0941  0.5021
    5SAPS  H13Y  649   0.969   7.335   9.192 -1.1961  1.7836  1.6278
    5SAPS  C314  650   0.810   7.339   9.048  0.5621 -0.5747  0.4538
    5SAPS  H14X  651   0.707   7.300   9.034 -1.3430  3.3436  2.0114
    5SAPS  H14Y  652   0.881   7.294   8.976 -1.3009 -4.4138  0.7411
    5SAPS  C315  653   0.808   7.492   9.012  0.0235 -0.0396  1.0067
    5SAPS  H15X  654   0.905   7.547   9.019 -1.2590  2.2795  1.6698
    5SAPS  H15Y  655   0.748   7.533   9.096 -0.2461 -0.7254  1.1535
    5SAPS  C316  656   0.747   7.523   8.876 -0.9437  0.9767  0.4369
    5SAPS  H16X  657   0.748   7.634   8.873 -0.8149  0.9604 -0.1614
    5SAPS  H16Y  658   0.640   7.494   8.866 -1.0147  1.4012 -0.1031
    5SAPS  C317  659   0.833   7.463   8.761  0.2471 -0.4736  0.4542
    5SAPS  H17X  660   0.826   7.353   8.753 -0.8387 -0.3881  0.0901
    5SAPS  H17Y  661   0.941   7.486   8.771  0.5473 -1.6312 -0.0202
    5SAPS  C318  662   0.792   7.509   8.619  0.7664 -0.0887 -0.5632
    5SAPS  H18X  663   0.706   7.453   8.576  0.2004 -0.9322  1.5471
    5SAPS  H18Y  664   0.883   7.493   8.557 -0.4775  0.6478 -2.6865
    5SAPS  H18Z  665   0.770   7.618   8.616 -1.0345 -0.3291  1.3432
    6SAPS     N  666   0.009   6.560  11.053  0.3231 -0.0896 -0.4840
    6SAPS   HN1  667  -0.045   6.646  11.034  1.9254  2.1219  3.5793
    6SAPS   HN2  668  -0.007   6.545  11.155 -1.1503 -0.3855 -0.7373
    6SAPS   HN3  669   0.110   6.576  11.035 -0.1771  0.8685 -2.6984
    6SAPS   C12  670  -0.042   6.444  10.967  0.4468  0.1168  0.0999
    6SAPS  H12A  671  -0.018   6.358  11.028 -0.1257 -0.8595 -1.0051
    6SAPS   C13  672  -0.196   6.437  10.954  0.4935  0.0390  0.0868
    6SAPS  O13A  673  -0.267   6.515  11.015  0.2030  0.2735 -0.8458
    6SAPS  O13B  674  -0.244   6.342  10.890 -0.2296 -0.7379 -0.7645
    6SAPS   C11  675   0.015   6.454  10.824  1.2901 -0.0207 -0.5796
    6SAPS  H11A  676  -0.021   6.548  10.778  2.3681  1.5936  1.6787
    6SAPS  H11B  677  -0.024   6.368  10.766 -0.3911 -0.6969  1.4519
    6SAPS     P  678   0.257   6.382  10.768  0.5210  0.4676 -0.4355
    6SAPS   O13  679   0.393   6.429  10.792 -0.4607  0.4022  0.0582
    6SAPS   O14  680   0.239   6.246  10.824  0.2222 -0.0215  0.5555
    6SAPS   O12  681   0.150   6.477  10.835  0.0333 -0.1932 -0.1247
    6SAPS   O11  682   0.227   6.382  10.614  0.2423 -0.0389 -0.4656
    6SAPS    C1  683   0.253   6.504  10.544 -0.5839 -0.5676 -0.2556
    6SAPS    HA  684   0.181   6.584  10.570  0.1794 -0.6580  2.4842
    6SAPS    HB  685   0.350   6.554  10.564 -0.8810  0.2210 -0.7471
    6SAPS    C2  686   0.264   6.488  10.384  0.6308  0.2280 -0.6546
    6SAPS    HS  687   0.270   6.590  10.341  0.7028 -0.6082 -2.7487
    6SAPS   O21  688   0.152   6.416  10.327  0.5265  0.4594 -0.5134
    6SAPS   C21  689   0.035   6.458  10.363  0.0219  0.1527  0.7766
    6SAPS   O22  690   0.001   6.564  10.410 -0.7043 -0.3065 -0.6143
    6SAPS   C22  691  -0.065   6.355  10.308 -0.0212 -0.1077 -0.3330
    6SAPS   H2R  692  -0.046   6.256  10.355 -0.4158 -0.5683 -1.1387
    6SAPS   H2S  693  -0.166   6.395  10.330  0.5166  0.2087  1.8214
    6SAPS    C3  694   0.397   6.413  10.347  0.1877 -0.2093  0.1116
    6SAPS    HX  695   0.396   6.316  10.400  1.9684  0.6068  1.7624
    6SAPS    HY  696   0.471   6.477  10.399 -0.2711  0.4622 -0.0461
    6SAPS   O31  697   0.421   6.410  10.201  0.9323  0.3158 -0.4267
    6SAPS   C31  698   0.386   6.292  10.148 -0.2015 -0.9157 -0.2385
    6SAPS   O32  699   0.369   6.189  10.211 -0.6106 -0.7467 -0.3337
    6SAPS   C32  700   0.375   6.300   9.996 -0.3396  0.2491  0.2578
    6SAPS   H2X  701   0.475   6.308   9.948 -0.9516  1.2897 -0.8883
    6SAPS   H2Y  702   0.327   6.398   9.975  0.8224  0.8555  0.3591
    6SAPS   C23  703  -0.058   6.336  10.153 -0.3895 -0.3554 -0.5021
    6SAPS   H3R  704   0.044   6.314  10.115 -0.0002  2.1252 -1.1084
    6SAPS   H3S  705  -0.088   6.433  10.106  0.8210  0.5763  0.5752
    6SAPS   C24  706  -0.155   6.220  10.133 -0.7495  0.3196  0.0079
    6SAPS   H4R  707  -0.132   6.146  10.213 -0.4531 -1.0479 -1.3041
    6SAPS   H4S  708  -0.133   6.179  10.032  0.2349 -0.3033  0.4619
    6SAPS   C25  709  -0.300   6.243  10.132  0.2444  0.2463 -0.2882
    6SAPS   H5R  710  -0.337   6.274  10.230  0.0416  0.1460 -0.3336
    6SAPS   C26  711  -0.379   6.253  10.020 -0.1850  0.6819 -0.4458
    6SAPS   H6R  712  -0.483   6.285  10.035 -0.3646 -0.1625  0.2766
    6SAPS   C27  713  -0.336   6.237   9.877 -0.4962 -0.1774 -0.0877
    6SAPS   H7R  714  -0.419   6.222   9.805  0.1822  0.2553 -0.9842
    6SAPS   H7S  715  -0.285   6.138   9.881 -2.2617 -1.2064 -1.5046
    6SAPS   C28  716  -0.244   6.342   9.824  0.2526 -0.2282  0.1509
    6SAPS   H8R  717  -0.222   6.426   9.892  0.8831 -0.7714  0.6317
    6SAPS   C29  718  -0.176   6.334   9.707  0.3427 -0.0312  0.0267
    6SAPS   H9R  719  -0.111   6.419   9.682  2.2395 -0.8320  1.8965
    6SAPS  C210  720  -0.180   6.223   9.602 -0.0798 -0.2811 -0.0682
    6SAPS  H10R  721  -0.231   6.138   9.652 -0.1513  0.2348  0.7476
    6SAPS  H10S  722  -0.076   6.185   9.588  0.0005  0.2642 -1.0957
    6SAPS  C211  723  -0.256   6.239   9.472  0.0468 -0.5047 -0.4317
    6SAPS  H11R  724  -0.364   6.220   9.486  0.0790  0.1448  0.8540
    6SAPS  C212  725  -0.208   6.297   9.363 -0.1394 -0.1100  0.3909
    6SAPS  H12R  726  -0.275   6.324   9.279  0.9658 -0.8522 -0.7783
    6SAPS  C213  727  -0.062   6.329   9.335  0.3106 -0.2175  0.0953
    6SAPS  H13R  728  -0.003   6.240   9.365  1.0609  0.1192 -0.3499
    6SAPS  H13S  729  -0.031   6.421   9.390 -1.1811  0.6502 -0.4514
    6SAPS  C214  730  -0.025   6.351   9.192 -0.5249 -0.1085 -0.2785
    6SAPS  H14R  731   0.030   6.264   9.151 -0.3422 -0.5290  0.8189
    6SAPS  C215  732  -0.035   6.458   9.117 -0.9575 -0.1000  0.5458
    6SAPS  H15R  733   0.009   6.458   9.016 -1.9935 -0.3652  0.0792
    6SAPS  C216  734  -0.089   6.596   9.151 -0.3828 -0.2531 -0.1869
    6SAPS  H16R  735  -0.154   6.590   9.241 -0.0568 -1.1560 -0.0056
    6SAPS  H16S  736  -0.150   6.640   9.069 -0.0335  1.0265  0.2180
    6SAPS  C217  737   0.019   6.696   9.181 -0.6564  0.1161  0.0915
    6SAPS  H17R  738   0.071   6.673   9.276  0.1613  1.8583  0.1048
    6SAPS  H17S  739  -0.039   6.790   9.197 -1.9344 -0.8200  1.1202
    6SAPS  C218  740   0.135   6.711   9.083  0.1569  0.1142  0.2309
    6SAPS  H18R  741   0.197   6.619   9.090 -1.2969 -0.8320  1.4231
    6SAPS  H18S  742   0.202   6.790   9.122  1.6016 -1.2540  0.6533
    6SAPS  C219  743   0.093   6.742   8.935  0.3408 -0.2254 -0.1076
    6SAPS  H19R  744   0.011   6.668   8.931 -1.5420  1.8016 -0.3464
    6SAPS  H19S  745   0.173   6.714   8.863 -1.0419 -1.0641 -1.3568
    6SAPS  C220  746   0.048   6.880   8.911  0.3275  0.0033 -0.3232
    6SAPS  H20R  747  -0.049   6.913   8.953  0.4883 -0.6673  0.6126
    6SAPS  H20S  748   0.042   6.890   8.800 -2.2999 -0.9390 -0.3369
    6SAPS  H20T  749   0.132   6.947   8.939  1.1218 -1.3495  0.7133
    6SAPS   C33  750   0.294   6.176   9.942 -1.6980 -0.2219 -0.2701
    6SAPS   H3X  751   0.186   6.200   9.953 -1.8136 -1.2219  1.1011
    6SAPS   H3Y  752   0.305   6.088  10.009  1.6157 -1.8129 -2.6621
    6SAPS   C34  753   0.334   6.126   9.807 -1.3709  0.1935  0.3190
    6SAPS   H4X  754   0.303   6.020   9.804 -0.5730 -0.0459  0.1905
    6SAPS   H4Y  755   0.445   6.129   9.803 -1.3903 -0.0185 -0.4213
    6SAPS   C35  756   0.282   6.207   9.687 -0.2175 -0.1686 -0.1826
    6SAPS   H5X  757   0.300   6.316   9.700  2.4654 -0.3735 -1.5200
    6SAPS   H5Y  758   0.171   6.199   9.682 -0.3709  1.2216  0.6080
    6SAPS   C36  759   0.355   6.163   9.558 -0.0126  0.5154  0.3837
    6SAPS   H6X  760   0.326   6.058   9.540  0.5074  0.6280 -1.3435
    6SAPS   H6Y  761   0.463   6.167   9.584  0.3880  2.5064 -1.3157
    6SAPS   C37  762   0.327   6.249   9.433 -0.4203  0.1037  0.3984
    6SAPS   H7X  763   0.357   6.356   9.442 -0.1194  0.0747 -0.2242
    6SAPS   H7Y  764   0.218   6.260   9.418 -0.0386  2.2838 -1.2133
    6SAPS   C38  765   0.406   6.191   9.314  0.5927  0.4457  0.2023
    6SAPS   H8X  766   0.388   6.082   9.306  0.0206  0.3585  2.2483
    6SAPS   H8Y  767   0.512   6.204   9.342  0.6783  0.5658 -0.1708
    6SAPS   C39  768   0.372   6.270   9.195 -0.6168  0.0856  0.6319
    6SAPS   H9X  769   0.413   6.373   9.198 -3.5981  1.3805  3.5414
    6SAPS   H9Y  770   0.261   6.271   9.180 -0.4343 -1.2986 -1.2288
    6SAPS  C310  771   0.427   6.213   9.066 -0.1811  0.7354  0.3771
    6SAPS  H10X  772   0.368   6.122   9.043 -0.8658  1.1869  0.3019
    6SAPS  H10Y  773   0.526   6.165   9.081 -0.5543 -0.3436 -0.4985
    6SAPS  C311  774   0.417   6.293   8.939 -0.3649 -0.1188  0.5715
    6SAPS  H11X  775   0.455   6.234   8.853  0.7137 -0.1121  1.0227
    6SAPS  H11Y  776   0.481   6.384   8.943 -1.4074  0.6282  0.8919
    6SAPS  C312  777   0.277   6.334   8.900  0.6980 -0.0316  0.7670
    6SAPS  H12X  778   0.230   6.408   8.968 -2.0063 -1.1721  0.2680
    6SAPS  H12Y  779   0.225   6.236   8.910  0.2913 -0.0369 -1.0040
    6SAPS  C313  780   0.264   6.376   8.747  0.7689 -0.1158 -0.0596
    6SAPS  H13X  781   0.289   6.293   8.679 -0.0298 -1.2262  0.9496
    6SAPS  H13Y  782   0.332   6.462   8.728  0.1454  0.4912  0.3639
    6SAPS  C314  783   0.121   6.426   8.724  0.2394  0.6388 -0.0980
    6SAPS  H14X  784   0.087   6.506   8.794 -0.4409 -0.2442  0.6119
    6SAPS  H14Y  785   0.058   6.339   8.754  3.0617 -1.9075 -1.0442
    6SAPS  C315  786   0.092   6.484   8.580  0.4327 -0.4048 -0.8892
    6SAPS  H15X  787  -0.017   6.475   8.562  0.0476 -0.6882  1.2616
    6SAPS  H15Y  788   0.160   6.434   8.508  2.1058  1.4224 -0.6768
    6SAPS  C316  789   0.121   6.641   8.577  0.3054  0.4822 -0.1982
    6SAPS  H16X  790   0.062   6.693   8.655 -1.1594 -1.1192 -0.1786
    6SAPS  H16Y  791   0.076   6.674   8.481  1.5506 -2.1233 -1.7862
    6SAPS  C317  792   0.264   6.687   8.593  0.3693  0.6297  0.1802
    6SAPS  H17X  793   0.320   6.644   8.508 -1.6220 -1.2442 -0.2869
    6SAPS  H17Y  794   0.299   6.646   8.690 -1.3956 -0.1443  0.5403
    6SAPS  C318  795   0.285   6.836   8.599  0.0060  0.1235  0.9567
    6SAPS  H18X  796   0.206   6.881   8.662 -0.0805  2.1086 -0.4828
    6SAPS  H18Y  797   0.267   6.880   8.499  0.4825 -0.0479  0.7908
    6SAPS  H18Z  798   0.386   6.866   8.635  0.3177 -1.3414  1.3638
    7SAPS     N  799   2.633   1.577  10.849 -0.1928 -0.1262 -0.2282
    7SAPS   HN1  800   2.539   1.535  10.863 -0.0406 -0.5751 -0.5263
    7SAPS   HN2  801   2.642   1.657  10.915 -2.8134 -1.4550  1.9488
    7SAPS   HN3  802   2.645   1.593  10.747 -0.4635 -0.8473 -0.3783
    7SAPS   C12  803   2.732   1.474  10.906  0.0922 -0.7893  0.5966
    7SAPS  H12A  804   2.833   1.509  10.890 -0.0916 -0.0914  0.9090
    7SAPS   C13  805   2.726   1.467  11.060  0.3057 -0.3752 -0.6058
    7SAPS  O13A  806   2.633   1.526  11.125  0.4396  0.5045  0.2889
    7SAPS  O13B  807   2.808   1.398  11.123  0.2232 -0.1410 -0.4150
    7SAPS   C11  808   2.713   1.337  10.838  0.2829  0.1037 -0.0112
    7SAPS  H11A  809   2.629   1.276  10.878 -1.0694  1.6273 -0.4119
    7SAPS  H11B  810   2.807   1.283  10.862  0.0547 -0.3847 -0.2024
    7SAPS     P  811   2.714   1.229  10.596 -0.0872 -0.2564 -0.2428
    7SAPS   O13  812   2.649   1.114  10.657  0.2821 -0.1454  0.5067
    7SAPS   O14  813   2.647   1.276  10.469 -0.2225 -0.3580 -0.3282
    7SAPS   O12  814   2.698   1.355  10.690  0.1773 -0.5144  0.0561
    7SAPS   O11  815   2.871   1.203  10.597 -0.3351  0.4847 -0.8547
    7SAPS    C1  816   2.970   1.305  10.588  0.5467 -0.1373 -0.1299
    7SAPS    HA  817   2.933   1.400  10.632 -2.2469 -0.5129 -1.4438
    7SAPS    HB  818   3.058   1.279  10.650 -0.2097  0.0183  1.0450
    7SAPS    C2  819   3.008   1.341  10.449  0.3128  0.0972  0.7053
    7SAPS    HS  820   2.918   1.368  10.390  0.1244 -0.3178  0.8011
    7SAPS   O21  821   3.067   1.221  10.396  0.0563  0.2752  0.2435
    7SAPS   C21  822   3.032   1.199  10.266 -0.0576  0.7069  0.0737
    7SAPS   O22  823   2.966   1.269  10.198 -0.6064 -0.2655  0.3570
    7SAPS   C22  824   3.091   1.064  10.219  0.2599  0.2553  0.7545
    7SAPS   H2R  825   3.189   1.058  10.271  0.2647  1.1278  0.8615
    7SAPS   H2S  826   3.025   0.976  10.236 -1.7132  0.8972 -2.6689
    7SAPS    C3  827   3.110   1.456  10.428  0.5859 -0.2725  0.6763
    7SAPS    HX  828   3.202   1.425  10.482 -0.3091 -1.0011  1.8500
    7SAPS    HY  829   3.060   1.547  10.469 -0.2021  0.8310 -2.4747
    7SAPS   O31  830   3.146   1.477  10.291  0.0543  0.4562  0.0458
    7SAPS   C31  831   3.059   1.566  10.220 -1.2774  0.7079 -0.2971
    7SAPS   O32  832   2.965   1.620  10.266 -0.0548 -0.3208  0.4727
    7SAPS   C32  833   3.121   1.599  10.085  0.6853  0.8417 -0.0538
    7SAPS   H2X  834   3.230   1.593  10.107  0.5158 -0.2919  0.5427
    7SAPS   H2Y  835   3.102   1.708  10.077  1.2934  1.0434  1.0380
    7SAPS   C23  836   3.108   1.053  10.063  0.3330 -0.7522  0.2161
    7SAPS   H3R  837   3.138   1.152  10.023 -0.4491 -1.4116 -2.1419
    7SAPS   H3S  838   3.007   1.033  10.021  0.8510  0.6743 -1.8589
    7SAPS   C24  839   3.198   0.940  10.021  0.0124  0.0421 -0.1174
    7SAPS   H4R  840   3.292   0.956  10.080  0.7620  0.5656 -1.4202
    7SAPS   H4S  841   3.230   0.940   9.915 -1.2809  5.2517 -0.7545
    7SAPS   C25  842   3.142   0.810  10.077 -0.0041 -0.2172 -0.1775
    7SAPS   H5R  843   3.159   0.801  10.185 -1.1796  1.4669  0.1715
    7SAPS   C26  844   3.094   0.711   9.999 -0.0183  0.0246  0.3626
    7SAPS   H6R  845   3.046   0.623  10.044 -1.7125  0.6542 -0.1466
    7SAPS   C27  846   3.083   0.711   9.845 -0.0253  1.0351  0.8220
    7SAPS   H7R  847   3.107   0.608   9.812  2.4942  1.5618  0.7912
    7SAPS   H7S  848   3.157   0.776   9.794 -1.6157  2.8285  0.6995
    7SAPS   C28  849   2.940   0.750   9.804  0.2590  0.2718 -0.0231
    7SAPS   H8R  850   2.906   0.834   9.866 -0.4054 -0.3002  0.3950
    7SAPS   C29  851   2.868   0.693   9.708  0.3337  0.1284  0.3637
    7SAPS   H9R  852   2.768   0.733   9.689  0.1070 -0.9451 -0.7859
    7SAPS  C210  853   2.886   0.575   9.618 -0.2327 -0.4199 -0.3431
    7SAPS  H10R  854   2.984   0.527   9.638 -0.1271 -0.5916 -1.2657
    7SAPS  H10S  855   2.888   0.607   9.512 -1.1728 -1.6434 -0.7628
    7SAPS  C211  856   2.775   0.474   9.648 -0.2037  0.8749 -0.5755
    7SAPS  H11R  857   2.762   0.460   9.756 -3.7163  0.1931 -0.9449
    7SAPS  C212  858   2.686   0.416   9.568  0.2668  0.4294  0.4705
    7SAPS  H12R  859   2.616   0.341   9.608  2.2220 -0.4484  2.4969
    7SAPS  C213  860   2.669   0.448   9.415 -0.8923 -0.7456  0.0099
    7SAPS  H13R  861   2.724   0.543   9.396  0.9292 -1.0911  2.8594
    7SAPS  H13S  862   2.564   0.473   9.390 -0.5300  2.6269  1.2915
    7SAPS  C214  863   2.716   0.324   9.328  0.0779 -0.7610  0.6406
    7SAPS  H14R  864   2.722   0.226   9.376 -0.5943 -1.6085 -0.9329
    7SAPS  C215  865   2.732   0.332   9.190  0.1850 -0.5335 -0.0351
    7SAPS  H15R  866   2.761   0.243   9.132  0.6434  1.5552 -3.2288
    7SAPS  C216  867   2.708   0.463   9.111 -0.8683 -0.8227 -0.0481
    7SAPS  H16R  868   2.690   0.546   9.183  0.5100 -0.2982 -0.2830
    7SAPS  H16S  869   2.608   0.467   9.062 -2.3666 -1.4245  2.7237
    7SAPS  C217  870   2.818   0.507   9.011 -0.5181 -0.7225 -0.2705
    7SAPS  H17R  871   2.775   0.601   8.971 -1.6769 -0.0595  2.3388
    7SAPS  H17S  872   2.824   0.433   8.929 -1.2912 -1.8582  0.6663
    7SAPS  C218  873   2.962   0.541   9.062  0.0904  0.0443  0.5929
    7SAPS  H18R  874   3.010   0.459   9.120 -1.5256  0.0557  2.0528
    7SAPS  H18S  875   2.961   0.627   9.132  1.2053 -0.1618  0.8722
    7SAPS  C219  876   3.055   0.582   8.946  0.7449 -0.3223  1.0113
    7SAPS  H19R  877   3.044   0.521   8.854  0.3133  0.9552  0.1832
    7SAPS  H19S  878   3.161   0.566   8.975  0.9076  0.2508  0.7620
    7SAPS  C220  879   3.034   0.720   8.897  0.2798  0.3165 -0.5221
    7SAPS  H20R  880   3.049   0.788   8.983 -0.4262  2.5709 -2.1145
    7SAPS  H20S  881   2.929   0.728   8.865 -1.7817 -0.5212  4.8853
    7SAPS  H20T  882   3.113   0.746   8.823  0.0410 -0.4703 -1.0727
    7SAPS   C33  883   3.080   1.500   9.974 -0.3776 -0.0069 -0.1573
    7SAPS   H3X  884   2.971   1.478   9.986 -0.3247 -0.1881  0.0056
    7SAPS   H3Y  885   3.155   1.420   9.991 -0.1805  0.1613 -0.2327
    7SAPS   C34  886   3.116   1.556   9.831  1.0248  0.4369 -0.2621
    7SAPS   H4X  887   3.224   1.580   9.829  0.9621  0.6977 -0.8243
    7SAPS   H4Y  888   3.060   1.647   9.803 -0.3405 -0.6409 -1.1993
    7SAPS   C35  889   3.080   1.450   9.729 -0.2698  0.2361  0.1820
    7SAPS   H5X  890   2.972   1.427   9.741 -0.0844 -0.2742  0.9146
    7SAPS   H5Y  891   3.133   1.356   9.755  0.4041 -0.1797 -2.4377
    7SAPS   C36  892   3.096   1.491   9.578  0.4369 -0.6884 -1.1250
    7SAPS   H6X  893   3.195   1.538   9.557 -0.8215  1.1758 -3.3465
    7SAPS   H6Y  894   3.026   1.570   9.543 -2.0507 -1.9876  0.6130
    7SAPS   C37  895   3.068   1.373   9.489  0.0456  0.0757  0.5498
    7SAPS   H7X  896   2.974   1.324   9.523  0.0237  0.2295  0.7122
    7SAPS   H7Y  897   3.144   1.293   9.504  0.0146 -0.1808 -0.5578
    7SAPS   C38  898   3.059   1.410   9.345 -0.0339  0.2530 -0.5087
    7SAPS   H8X  899   2.976   1.482   9.328 -1.5647 -1.0426  1.0505
    7SAPS   H8Y  900   3.045   1.317   9.287  1.2968  1.1394 -2.3713
    7SAPS   C39  901   3.187   1.460   9.287 -0.4723  0.0118  0.7158
    7SAPS   H9X  902   3.261   1.379   9.274  0.5716  1.2071 -1.3768
    7SAPS   H9Y  903   3.218   1.551   9.343 -1.4556 -0.8476  2.7559
    7SAPS  C310  904   3.152   1.508   9.143  0.0085 -0.6382  0.0918
    7SAPS  H10X  905   3.055   1.561   9.133 -0.2637 -1.4880 -3.0460
    7SAPS  H10Y  906   3.126   1.419   9.081  1.9458 -1.6631  0.6464
    7SAPS  C311  907   3.266   1.597   9.096 -0.2125 -0.7172 -0.1129
    7SAPS  H11X  908   3.357   1.534   9.102  1.5661  1.3896 -2.5340
    7SAPS  H11Y  909   3.282   1.689   9.156 -2.2659  0.5065 -1.3106
    7SAPS  C312  910   3.248   1.643   8.952 -0.4316  0.4821  0.6342
    7SAPS  H12X  911   3.146   1.686   8.945 -0.9165 -0.1556  2.9989
    7SAPS  H12Y  912   3.256   1.553   8.888  3.1650 -0.8072  2.5871
    7SAPS  C313  913   3.349   1.750   8.913 -0.0437  1.1750  0.2184
    7SAPS  H13X  914   3.450   1.712   8.939 -1.6617 -1.6772  3.1333
    7SAPS  H13Y  915   3.328   1.833   8.984 -2.2623  0.8061  0.0735
    7SAPS  C314  916   3.340   1.809   8.776  0.4587 -0.5873 -0.0658
    7SAPS  H14X  917   3.238   1.851   8.772  1.2319  1.3822  0.0470
    7SAPS  H14Y  918   3.352   1.725   8.704 -1.5991 -0.2354 -0.8772
    7SAPS  C315  919   3.443   1.920   8.748 -0.2870 -0.3475 -0.2259
    7SAPS  H15X  920   3.445   1.944   8.640 -0.8745  1.9497  0.2192
    7SAPS  H15Y  921   3.539   1.885   8.792  0.7325  1.2894 -1.0654
    7SAPS  C316  922   3.408   2.043   8.831  0.1283  0.8168 -0.3915
    7SAPS  H16X  923   3.445   2.027   8.935  2.7735  0.2643 -1.3225
    7SAPS  H16Y  924   3.298   2.055   8.842 -0.3179  0.1556 -3.2772
    7SAPS  C317  925   3.460   2.175   8.778  0.7192  0.7227 -0.2089
    7SAPS  H17X  926   3.422   2.249   8.852 -1.3654 -0.5359  0.0756
    7SAPS  H17Y  927   3.407   2.199   8.683 -1.1205  1.0854  0.8597
    7SAPS  C318  928   3.611   2.187   8.758  0.0239 -0.2724  0.0799
    7SAPS  H18X  929   3.654   2.118   8.681 -1.1912 -0.6557 -0.2676
    7SAPS  H18Y  930   3.652   2.170   8.859 -0.4934 -0.1970  0.3034
    7SAPS  H18Z  931   3.627   2.294   8.735  0.0159 -0.3190 -0.1535
    8SAPS     N  932   6.680   2.065  11.041  0.2047  0.5673 -0.4411
    8SAPS   HN1  933   6.745   1.994  11.002  0.3908 -0.0262  0.8810
    8SAPS   HN2  934   6.588   2.019  11.052 -0.4044  2.0817  1.5123
    8SAPS   HN3  935   6.666   2.131  10.962 -1.6366  1.6819  0.7298
    8SAPS   C12  936   6.718   2.123  11.175  0.0741  0.5161 -0.0052
    8SAPS  H12A  937   6.643   2.198  11.195 -1.5332 -0.8559 -0.6601
    8SAPS   C13  938   6.720   2.017  11.294 -0.5871  0.8368 -0.1964
    8SAPS  O13A  939   6.693   1.895  11.279 -0.1299  0.1942 -0.0343
    8SAPS  O13B  940   6.735   2.064  11.412 -0.0722  0.3190  0.2446
    8SAPS   C11  941   6.867   2.180  11.163  0.3682  0.3036  0.3046
    8SAPS  H11A  942   6.933   2.091  11.167 -0.3249 -0.2719 -0.6576
    8SAPS  H11B  943   6.889   2.232  11.259 -0.5466 -0.3006  0.8530
    8SAPS     P  944   6.839   2.402  11.022 -0.5715  0.1127 -0.3761
    8SAPS   O13  945   6.695   2.405  11.055 -0.1147  0.1018 -0.2793
    8SAPS   O14  946   6.929   2.502  11.092  0.2502  0.5546 -0.2525
    8SAPS   O12  947   6.901   2.264  11.048  0.0859  0.5775  0.5020
    8SAPS   O11  948   6.850   2.402  10.871 -0.5154  0.5559  0.5484
    8SAPS    C1  949   6.977   2.422  10.805  0.3846 -0.1418  0.3562
    8SAPS    HA  950   7.015   2.520  10.840 -2.5651  0.9769  0.7116
    8SAPS    HB  951   7.048   2.342  10.835  0.5443  0.1123  0.6569
    8SAPS    C2  952   6.961   2.429  10.651  0.0046  0.0366 -0.1690
    8SAPS    HS  953   6.925   2.530  10.622 -2.8161 -0.7805  0.1916
    8SAPS   O21  954   6.870   2.331  10.595 -0.3382 -0.3787 -0.4029
    8SAPS   C21  955   6.781   2.372  10.494 -0.6399  0.1754 -0.1571
    8SAPS   O22  956   6.785   2.487  10.457 -0.0236 -0.0735 -0.0479
    8SAPS   C22  957   6.681   2.270  10.448 -0.0474 -0.2957  0.1411
    8SAPS   H2R  958   6.633   2.224  10.537  0.0388  0.2591  0.4826
    8SAPS   H2S  959   6.600   2.331  10.403 -0.3375  1.1829  2.4708
    8SAPS    C3  960   7.104   2.416  10.588 -0.7928 -0.4474 -0.7312
    8SAPS    HX  961   7.139   2.311  10.596  1.3467 -0.0155 -3.2172
    8SAPS    HY  962   7.175   2.476  10.647 -0.9284 -1.6100  0.6659
    8SAPS   O31  963   7.107   2.461  10.451  0.2606  0.6600 -0.0163
    8SAPS   C31  964   7.226   2.482  10.400  0.2810 -0.1664  0.6591
    8SAPS   O32  965   7.328   2.445  10.453  0.2367 -0.1711  0.2705
    8SAPS   C32  966   7.220   2.585  10.284 -0.3217  0.3826  0.4938
    8SAPS   H2X  967   7.312   2.648  10.288  0.1292 -0.1353 -0.8891
    8SAPS   H2Y  968   7.128   2.645  10.299  0.3252  1.7743 -0.7850
    8SAPS   C23  969   6.741   2.155  10.359  0.0809 -0.8903 -0.6425
    8SAPS   H3R  970   6.800   2.084  10.421  0.4481  0.7485  0.9548
    8SAPS   H3S  971   6.809   2.200  10.283  0.0598  0.2388 -0.0092
    8SAPS   C24  972   6.624   2.074  10.301  0.4185  0.8386 -0.0138
    8SAPS   H4R  973   6.562   2.144  10.241  1.6820 -0.4466 -3.0180
    8SAPS   H4S  974   6.565   2.044  10.391 -1.2358  3.1068 -0.2496
    8SAPS   C25  975   6.675   1.961  10.215  0.5178 -0.3858  0.0189
    8SAPS   H5R  976   6.715   1.874  10.270  2.6775  1.7222  1.9652
    8SAPS   C26  977   6.662   1.949  10.088  0.6934 -0.3624 -0.0789
    8SAPS   H6R  978   6.693   1.850  10.050 -0.6870 -0.9572  0.2603
    8SAPS   C27  979   6.589   2.042   9.996  0.0377  0.1330  0.5865
    8SAPS   H7R  980   6.483   2.040  10.028  0.3675 -1.6236  1.7296
    8SAPS   H7S  981   6.588   1.998   9.894 -2.0172 -0.5728  0.8753
    8SAPS   C28  982   6.643   2.181   9.983  0.3341  0.0007 -0.0661
    8SAPS   H8R  983   6.603   2.264  10.044 -1.2701 -2.7261  2.9000
    8SAPS   C29  984   6.742   2.205   9.890 -0.4451  0.1954  0.0343
    8SAPS   H9R  985   6.788   2.305   9.891 -3.1246  1.5286  1.7963
    8SAPS  C210  986   6.796   2.103   9.782 -0.1003  0.2076  0.6038
    8SAPS  H10R  987   6.792   1.999   9.820 -0.5692  0.6309  1.7672
    8SAPS  H10S  988   6.902   2.122   9.753 -0.1086 -2.1125 -1.2497
    8SAPS  C211  989   6.718   2.104   9.655  0.0334  0.3201 -0.3387
    8SAPS  H11R  990   6.610   2.121   9.671  0.3236  2.0611 -0.0853
    8SAPS  C212  991   6.772   2.118   9.531  0.2397  0.5900 -0.0474
    8SAPS  H12R  992   6.693   2.118   9.455  1.2857 -0.1633 -1.1622
    8SAPS  C213  993   6.910   2.113   9.475 -0.1221  0.4774  0.0674
    8SAPS  H13R  994   6.936   2.017   9.426 -1.1425  0.0733  0.2838
    8SAPS  H13S  995   6.987   2.110   9.556 -0.1393 -2.2533  0.0868
    8SAPS  C214  996   6.934   2.224   9.380  0.4179  0.3945  0.6112
    8SAPS  H14R  997   6.900   2.316   9.429 -0.6282  0.1640  0.3509
    8SAPS  C215  998   6.975   2.225   9.247 -0.2265  0.7304 -0.5385
    8SAPS  H15R  999   6.977   2.319   9.190 -4.2668  0.1083 -2.0578
    8SAPS  C216 1000   7.001   2.107   9.162 -0.5330 -0.5497 -0.7472
    8SAPS  H16R 1001   6.965   2.015   9.214 -2.4648  0.6149  0.0855
    8SAPS  H16S 1002   7.110   2.093   9.153  0.0719  0.5988  3.0843
    8SAPS  C217 1003   6.933   2.117   9.026  0.5798  0.5970 -0.6620
    8SAPS  H17R 1004   6.821   2.117   9.027  0.5795 -0.2276 -0.0990
    8SAPS  H17S 1005   6.963   2.033   8.959  0.4090  0.9408 -1.1748
    8SAPS  C218 1006   6.974   2.238   8.940 -0.0829  0.1420  0.2138
    8SAPS  H18R 1007   7.085   2.235   8.946 -0.0939  0.4974  0.6996
    8SAPS  H18S 1008   6.933   2.326   8.995 -0.4526  0.2075 -0.1665
    8SAPS  C219 1009   6.927   2.248   8.797  0.5921  0.4033  0.4104
    8SAPS  H19R 1010   6.817   2.261   8.807  0.5086  1.7828 -1.7273
    8SAPS  H19S 1011   6.938   2.153   8.740  0.4852  1.2517 -1.0834
    8SAPS  C220 1012   6.990   2.367   8.711  0.0426 -0.0028  1.1087
    8SAPS  H20R 1013   7.100   2.358   8.711 -0.1211 -2.6254  0.8147
    8SAPS  H20S 1014   6.949   2.461   8.754  1.0369  0.6284  0.7175
    8SAPS  H20T 1015   6.943   2.365   8.610  0.2562 -0.7515  1.0222
    8SAPS   C33 1016   7.207   2.513  10.150 -0.5950 -0.2945 -0.4322
    8SAPS   H3X 1017   7.293   2.443  10.140 -0.4130  0.1440 -2.5023
    8SAPS   H3Y 1018   7.231   2.587  10.071  0.3645 -1.1361 -0.9655
    8SAPS   C34 1019   7.086   2.434  10.131  0.0269  0.1936  0.1848
    8SAPS   H4X 1020   6.991   2.492  10.137  0.1583  0.7644 -2.4432
    8SAPS   H4Y 1021   7.073   2.355  10.208 -0.4970  0.9270  0.8668
    8SAPS   C35 1022   7.097   2.365   9.995 -0.0380  0.3401 -0.4616
    8SAPS   H5X 1023   7.020   2.286   9.987  0.0964  0.0241  1.0245
    8SAPS   H5Y 1024   7.193   2.308   9.998  0.2650  0.8121 -0.9884
    8SAPS   C36 1025   7.089   2.453   9.872  0.6901  0.5380  0.2390
    8SAPS   H6X 1026   7.174   2.525   9.870  0.0509  1.3281 -2.5529
    8SAPS   H6Y 1027   6.989   2.497   9.856 -1.2288 -3.9726 -1.9095
    8SAPS   C37 1028   7.116   2.350   9.754 -0.0145 -0.0860 -0.1260
    8SAPS   H7X 1029   7.024   2.288   9.746  0.3380 -0.6915  0.3913
    8SAPS   H7Y 1030   7.202   2.280   9.759  0.7635  0.8390 -0.2290
    8SAPS   C38 1031   7.140   2.412   9.610 -1.0260 -0.2275 -0.0810
    8SAPS   H8X 1032   7.043   2.446   9.569 -0.9412 -0.2296 -0.2851
    8SAPS   H8Y 1033   7.187   2.338   9.542  0.3374  0.7450 -0.2402
    8SAPS   C39 1034   7.251   2.518   9.593  0.1430 -0.0306 -0.1450
    8SAPS   H9X 1035   7.335   2.479   9.655  0.2170  0.1845 -0.1084
    8SAPS   H9Y 1036   7.209   2.614   9.631  2.2052  0.7038  0.4181
    8SAPS  C310 1037   7.306   2.530   9.449 -0.1252  0.4367 -0.2749
    8SAPS  H10X 1038   7.317   2.429   9.403 -2.3609 -0.5255  1.1147
    8SAPS  H10Y 1039   7.413   2.562   9.454  0.6852 -2.1056  0.2847
    8SAPS  C311 1040   7.225   2.616   9.352  0.3809 -0.4259  0.2744
    8SAPS  H11X 1041   7.194   2.703   9.414 -0.2636 -0.7368  0.4005
    8SAPS  H11Y 1042   7.134   2.566   9.312  1.8292 -2.7445 -0.3256
    8SAPS  C312 1043   7.312   2.657   9.232  0.3747  0.2515  0.4646
    8SAPS  H12X 1044   7.340   2.563   9.181  1.4567 -1.0501  3.2501
    8SAPS  H12Y 1045   7.407   2.711   9.252 -0.4725  1.7631  0.5951
    8SAPS  C313 1046   7.244   2.738   9.120  0.2666  0.1938  0.4107
    8SAPS  H13X 1047   7.319   2.765   9.042 -1.8985  0.4446 -1.7072
    8SAPS  H13Y 1048   7.204   2.828   9.171 -0.0810  2.7459 -3.8946
    8SAPS  C314 1049   7.133   2.663   9.037 -0.1183  0.7708 -0.2000
    8SAPS  H14X 1050   7.049   2.631   9.103 -0.2790 -0.1199 -0.8193
    8SAPS  H14Y 1051   7.180   2.573   8.993 -0.6756  1.7505 -2.9683
    8SAPS  C315 1052   7.070   2.748   8.928 -0.2988 -0.2987  0.4852
    8SAPS  H15X 1053   7.022   2.837   8.974  0.4805  0.6266 -0.4410
    8SAPS  H15Y 1054   6.992   2.686   8.880  0.3971 -0.8365  0.0319
    8SAPS  C316 1055   7.171   2.806   8.828 -0.3285  0.6278 -0.3788
    8SAPS  H16X 1056   7.249   2.729   8.813 -0.3393  0.8651 -1.8822
    8SAPS  H16Y 1057   7.223   2.893   8.873 -0.0653  2.6170 -4.1382
    8SAPS  C317 1058   7.117   2.846   8.688  0.2422  1.1454  0.7623
    8SAPS  H17X 1059   7.049   2.934   8.696 -1.1142  0.0868  1.0410
    8SAPS  H17Y 1060   7.056   2.762   8.651 -1.4299  2.6859 -0.1147
    8SAPS  C318 1061   7.213   2.879   8.578 -0.1713  1.0287  0.0629
    8SAPS  H18X 1062   7.276   2.793   8.547 -0.2681  1.5573 -1.7497
    8SAPS  H18Y 1063   7.280   2.958   8.618  2.8139  0.3803 -3.0816
    8SAPS  H18Z 1064   7.156   2.909   8.487  0.6710  0.5398 -0.6495
    9SAPS     N 1065   4.613   5.429   6.172 -0.8013 -0.5419  1.0408
    9SAPS   HN1 1066   4.683   5.463   6.242 -1.7718  0.4700  1.5537
    9SAPS   HN2 1067   4.569   5.510   6.123 -1.7192 -1.7360 -0.1877
    9SAPS   HN3 1068   4.541   5.375   6.223  0.8283 -2.4490  1.4479
    9SAPS   C12 1069   4.661   5.345   6.058 -0.1286 -1.0938 -0.3311
    9SAPS  H12A 1070   4.584   5.307   5.992 -0.5784  2.0644 -1.8132
    9SAPS   C13 1071   4.766   5.411   5.960  0.4605  0.0888 -0.1312
    9SAPS  O13A 1072   4.808   5.530   5.981 -0.3503  0.1347 -0.3154
    9SAPS  O13B 1073   4.790   5.351   5.852 -0.4971 -0.3403 -0.2736
    9SAPS   C11 1074   4.728   5.220   6.112  0.0634 -0.1905 -0.3710
    9SAPS  H11A 1075   4.810   5.243   6.183 -0.0316  0.9603 -0.6254
    9SAPS  H11B 1076   4.771   5.157   6.031 -3.0758  0.4871 -2.7663
    9SAPS     P 1077   4.636   5.103   6.333 -0.3830 -0.0280  0.9257
    9SAPS   O13 1078   4.524   5.011   6.369  0.6536  0.4691 -0.3550
    9SAPS   O14 1079   4.772   5.058   6.369 -0.2628 -0.8842  0.0787
    9SAPS   O12 1080   4.633   5.131   6.179 -0.0392 -0.2355  0.1943
    9SAPS   O11 1081   4.601   5.244   6.392 -0.2562  1.2427  0.0689
    9SAPS    C1 1082   4.670   5.266   6.517  0.6911  0.2819  0.1248
    9SAPS    HA 1083   4.659   5.178   6.584  1.5563  0.2150  0.1903
    9SAPS    HB 1084   4.779   5.277   6.495  0.7273 -0.6782 -0.2663
    9SAPS    C2 1085   4.598   5.385   6.584 -0.4421  0.3249  0.1690
    9SAPS    HS 1086   4.612   5.472   6.517  1.1390 -0.4661 -0.5663
    9SAPS   O21 1087   4.660   5.411   6.713  0.5661 -0.6403 -0.0023
    9SAPS   C21 1088   4.703   5.534   6.741 -0.7283  0.1857 -0.2614
    9SAPS   O22 1089   4.690   5.627   6.663 -0.7775 -0.2688  0.6632
    9SAPS   C22 1090   4.787   5.523   6.867 -0.4010  0.0237  0.2005
    9SAPS   H2R 1091   4.857   5.438   6.848 -2.2385 -1.9247  1.6875
    9SAPS   H2S 1092   4.837   5.622   6.861 -0.4406 -0.0444 -2.4937
    9SAPS    C3 1093   4.448   5.360   6.596  0.2965  0.1667 -0.3818
    9SAPS    HX 1094   4.399   5.398   6.505  1.3666  2.3591 -0.1163
    9SAPS    HY 1095   4.413   5.428   6.676  0.6744  0.8561 -0.7890
    9SAPS   O31 1096   4.409   5.225   6.624  0.5055  0.2026 -0.1706
    9SAPS   C31 1097   4.323   5.170   6.541  0.1550 -0.2251  0.1343
    9SAPS   O32 1098   4.274   5.224   6.442  0.1893 -0.8187  0.0065
    9SAPS   C32 1099   4.298   5.028   6.587 -0.6351  0.7571 -0.6535
    9SAPS   H2X 1100   4.394   4.982   6.619 -1.7553 -1.9720 -0.9490
    9SAPS   H2Y 1101   4.257   4.966   6.504 -1.2996 -0.1533  0.3187
    9SAPS   C23 1102   4.692   5.501   6.989  0.3791 -0.0440 -0.1008
    9SAPS   H3R 1103   4.652   5.398   6.990  0.9303 -0.2675  1.3024
    9SAPS   H3S 1104   4.609   5.575   6.987  0.7177  0.3245 -1.1383
    9SAPS   C24 1105   4.769   5.515   7.125 -0.5068  0.0856 -0.0565
    9SAPS   H4R 1106   4.846   5.435   7.121 -0.7792 -0.1473 -0.7401
    9SAPS   H4S 1107   4.694   5.502   7.206 -0.5948 -0.1438 -0.1753
    9SAPS   C25 1108   4.838   5.651   7.152  0.1923 -0.6252 -0.4679
    9SAPS   H5R 1109   4.876   5.711   7.069  1.0828 -0.0451  0.3424
    9SAPS   C26 1110   4.867   5.699   7.279 -0.1533 -0.3698  0.9524
    9SAPS   H6R 1111   4.911   5.799   7.284  0.7218 -0.7841  1.8842
    9SAPS   C27 1112   4.844   5.630   7.406 -0.0270  0.5479  0.2631
    9SAPS   H7R 1113   4.775   5.544   7.392  1.0857 -0.4620  0.8097
    9SAPS   H7S 1114   4.797   5.701   7.478  0.4717  0.3097  0.8233
    9SAPS   C28 1115   4.965   5.569   7.470 -0.1706  0.6089  0.4538
    9SAPS   H8R 1116   5.056   5.557   7.410 -0.0341 -1.8890  1.0384
    9SAPS   C29 1117   4.970   5.513   7.597 -0.1407 -0.5862  0.3248
    9SAPS   H9R 1118   5.069   5.472   7.621  0.7888  0.0646 -2.0882
    9SAPS  C210 1119   4.871   5.516   7.712  0.7223  0.5784 -0.0207
    9SAPS  H10R 1120   4.784   5.581   7.688  0.0417 -1.0346 -2.3313
    9SAPS  H10S 1121   4.920   5.551   7.805  1.5200 -0.3859 -0.0559
    9SAPS  C211 1122   4.819   5.379   7.724 -0.2496  0.5823 -0.7250
    9SAPS  H11R 1123   4.792   5.333   7.627 -0.1616  0.7062 -0.8083
    9SAPS  C212 1124   4.797   5.307   7.838  0.3449  0.3084 -0.1566
    9SAPS  H12R 1125   4.754   5.206   7.830  0.6527  0.2132 -0.6558
    9SAPS  C213 1126   4.824   5.367   7.968 -0.0859  0.9061 -0.5429
    9SAPS  H13R 1127   4.834   5.477   7.980 -0.7694  0.8860  0.3826
    9SAPS  H13S 1128   4.927   5.330   7.983 -0.5544 -0.9150 -1.4997
    9SAPS  C214 1129   4.726   5.305   8.065 -0.0198 -0.4533  0.5743
    9SAPS  H14R 1130   4.628   5.275   8.026  1.4751 -4.1110 -0.8254
    9SAPS  C215 1131   4.750   5.274   8.189  0.1806 -0.4464 -0.3816
    9SAPS  H15R 1132   4.667   5.239   8.252 -1.4552  0.8778 -1.7019
    9SAPS  C216 1133   4.882   5.306   8.261 -0.4560  0.2288 -0.3679
    9SAPS  H16R 1134   4.968   5.301   8.191  0.1982 -1.6675  0.4866
    9SAPS  H16S 1135   4.901   5.221   8.331  1.6788  1.2195  0.3381
    9SAPS  C217 1136   4.853   5.425   8.354  0.5268 -0.6103  0.3792
    9SAPS  H17R 1137   4.806   5.505   8.292  0.3425  1.3515  2.8900
    9SAPS  H17S 1138   4.943   5.484   8.381 -0.0837  1.1925 -1.2784
    9SAPS  C218 1139   4.760   5.405   8.471  0.7847 -0.6461  0.2785
    9SAPS  H18R 1140   4.656   5.381   8.440  0.1805  0.6236  1.2482
    9SAPS  H18S 1141   4.746   5.508   8.511 -1.0569 -1.5817  2.2772
    9SAPS  C219 1142   4.815   5.320   8.579 -0.3840 -0.2609 -0.3869
    9SAPS  H19R 1143   4.905   5.377   8.611 -0.7428  0.5518 -0.8039
    9SAPS  H19S 1144   4.852   5.219   8.551 -1.8328 -0.6732 -0.9116
    9SAPS  C220 1145   4.727   5.310   8.696  0.9485  0.4238  0.0072
    9SAPS  H20R 1146   4.625   5.271   8.679  1.1286  0.3676 -1.0334
    9SAPS  H20S 1147   4.731   5.409   8.745  1.7404  0.6743 -0.5331
    9SAPS  H20T 1148   4.783   5.245   8.767  2.1934  0.5364 -0.8352
    9SAPS   C33 1149   4.189   5.038   6.694  0.6641  0.2655 -0.2809
    9SAPS   H3X 1150   4.150   4.935   6.702  0.4346  0.2702 -1.1876
    9SAPS   H3Y 1151   4.097   5.087   6.656 -1.5316 -1.4604  2.4476
    9SAPS   C34 1152   4.233   5.093   6.830 -0.5129  0.3901  0.0485
    9SAPS   H4X 1153   4.251   5.201   6.817 -0.5916  0.0691 -3.6271
    9SAPS   H4Y 1154   4.330   5.046   6.858  0.0812  1.2549 -0.5308
    9SAPS   C35 1155   4.119   5.073   6.931 -0.1278 -0.4076  0.5857
    9SAPS   H5X 1156   4.099   4.965   6.943  0.5984 -0.6811 -0.5343
    9SAPS   H5Y 1157   4.025   5.117   6.891 -0.8476 -1.6842  0.8406
    9SAPS   C36 1158   4.149   5.145   7.059 -0.8495  0.1111  0.3523
    9SAPS   H6X 1159   4.157   5.254   7.041 -0.9396  0.3747  1.8163
    9SAPS   H6Y 1160   4.243   5.102   7.099 -0.0148  1.2657 -0.3177
    9SAPS   C37 1161   4.047   5.129   7.172  0.8055  0.0780  0.1665
    9SAPS   H7X 1162   3.954   5.179   7.136  1.0845 -1.5895 -3.3145
    9SAPS   H7Y 1163   4.080   5.187   7.260  1.5980  1.2193 -0.8554
    9SAPS   C38 1164   4.030   4.982   7.212  0.0158 -0.4530  0.1448
    9SAPS   H8X 1165   4.130   4.933   7.217  0.3920  0.3062  0.2217
    9SAPS   H8Y 1166   3.973   4.925   7.135 -0.4873 -0.4624  0.5224
    9SAPS   C39 1167   3.962   4.965   7.348  1.0976 -0.2225 -0.4454
    9SAPS   H9X 1168   3.854   4.990   7.340  1.1723  0.0588 -0.5961
    9SAPS   H9Y 1169   4.002   5.039   7.421 -1.3573  1.4183 -0.6494
    9SAPS  C310 1170   3.982   4.825   7.411  0.1333 -0.4825 -0.0758
    9SAPS  H10X 1171   4.087   4.792   7.398  0.1373 -0.8498  0.8246
    9SAPS  H10Y 1172   3.911   4.752   7.367 -0.3836  0.5883 -1.1018
    9SAPS  C311 1173   3.959   4.823   7.561  0.1148  0.3551 -0.4036
    9SAPS  H11X 1174   3.857   4.863   7.575 -0.1135 -0.4182  0.2136
    9SAPS  H11Y 1175   4.034   4.884   7.616  1.4640 -1.2839 -0.3277
    9SAPS  C312 1176   3.956   4.684   7.614  0.2163  0.0575  0.3637
    9SAPS  H12X 1177   4.054   4.647   7.653 -0.4132 -1.2592  0.7479
    9SAPS  H12Y 1178   3.917   4.612   7.538 -0.2192 -1.2687  1.7857
    9SAPS  C313 1179   3.867   4.676   7.743  0.3736  0.1465  0.4753
    9SAPS  H13X 1180   3.877   4.570   7.776 -0.8870 -0.3866 -0.7515
    9SAPS  H13Y 1181   3.763   4.699   7.711  1.1901  2.2796 -0.8624
    9SAPS  C314 1182   3.914   4.774   7.854  0.1202 -0.5997 -0.2859
    9SAPS  H14X 1183   3.897   4.876   7.814  0.4243 -0.2686  0.4102
    9SAPS  H14Y 1184   4.022   4.766   7.878 -0.1209  0.8660  1.5520
    9SAPS  C315 1185   3.836   4.750   7.985  0.2530 -0.0650  0.0748
    9SAPS  H15X 1186   3.876   4.663   8.040  2.1618  0.3640 -0.5513
    9SAPS  H15Y 1187   3.730   4.733   7.959  0.0436 -0.3070  1.0376
    9SAPS  C316 1188   3.845   4.868   8.086  0.0389 -0.0348 -0.6247
    9SAPS  H16X 1189   3.758   4.885   8.153 -0.3420 -2.8044 -0.2973
    9SAPS  H16Y 1190   3.842   4.957   8.019  2.6066  1.0085  0.5159
    9SAPS  C317 1191   3.975   4.858   8.173 -0.3778 -0.4996 -0.0417
    9SAPS  H17X 1192   4.062   4.880   8.108  0.1207  1.8578  1.3083
    9SAPS  H17Y 1193   3.977   4.751   8.202 -0.4869 -1.1330 -2.2089
    9SAPS  C318 1194   3.976   4.951   8.286 -0.0842 -0.1006  0.0156
    9SAPS  H18X 1195   4.018   5.050   8.260  0.9051 -0.6587 -0.5538
    9SAPS  H18Y 1196   4.035   4.919   8.375 -0.9730  0.1254  0.7105
    9SAPS  H18Z 1197   3.875   4.984   8.321 -0.4944  0.6757 -1.8048
   10SAPS     N 1198   4.442   6.028   6.081  0.1568  0.3639  0.4100
   10SAPS   HN1 1199   4.350   6.048   6.037 -0.6933 -1.1143  1.4209
   10SAPS   HN2 1200   4.427   6.077   6.171 -2.1505 -0.1723  0.3829
   10SAPS   HN3 1201   4.513   6.063   6.014 -1.5111  0.7213 -1.2370
   10SAPS   C12 1202   4.434   5.876   6.102 -0.2508 -0.3625 -0.0976
   10SAPS  H12A 1203   4.412   5.829   6.007 -1.5223 -1.5729  0.7622
   10SAPS   C13 1204   4.565   5.811   6.165  0.6170  0.2182 -0.1634
   10SAPS  O13A 1205   4.653   5.896   6.202 -0.1295  0.2363  0.1126
   10SAPS  O13B 1206   4.560   5.697   6.216  0.1666 -0.1576  0.2665
   10SAPS   C11 1207   4.306   5.852   6.195 -0.9399  0.2724 -0.5102
   10SAPS  H11A 1208   4.321   5.889   6.299 -3.4415 -0.0231  0.0156
   10SAPS  H11B 1209   4.289   5.742   6.199 -0.5624  0.1851  4.2365
   10SAPS     P 1210   4.053   5.931   6.212 -0.1437  0.4928  0.1100
   10SAPS   O13 1211   4.067   6.018   6.332  0.6388 -0.2710 -0.4349
   10SAPS   O14 1212   3.950   5.977   6.116  0.0953  0.1035  0.4910
   10SAPS   O12 1213   4.189   5.922   6.137 -0.3441 -0.0693  0.1657
   10SAPS   O11 1214   4.044   5.779   6.251 -0.0523  0.7880  0.3482
   10SAPS    C1 1215   3.913   5.733   6.292 -0.4727 -0.0415  0.4433
   10SAPS    HA 1216   3.824   5.794   6.268  0.4884  3.0227  3.7950
   10SAPS    HB 1217   3.898   5.636   6.241 -2.1271  0.2186  0.3852
   10SAPS    C2 1218   3.918   5.698   6.444  0.8661  0.3562 -0.5871
   10SAPS    HS 1219   3.826   5.647   6.479  0.7518 -0.2224 -1.7130
   10SAPS   O21 1220   3.954   5.821   6.519  0.3091  0.2133  0.3931
   10SAPS   C21 1221   3.847   5.899   6.549 -0.4908  0.0814 -0.1849
   10SAPS   O22 1222   3.733   5.863   6.542 -0.1876  0.1872 -0.5095
   10SAPS   C22 1223   3.891   6.029   6.596  0.3762  0.3651 -0.5263
   10SAPS   H2R 1224   3.998   6.049   6.578  0.9602 -1.8648  0.1047
   10SAPS   H2S 1225   3.834   6.094   6.526  0.0483 -1.0092 -1.5957
   10SAPS    C3 1226   4.032   5.591   6.460  0.3722  0.0846  0.1075
   10SAPS    HX 1227   4.128   5.627   6.417  1.1407  0.1636  1.8132
   10SAPS    HY 1228   4.016   5.510   6.385 -0.0070  1.9832 -1.9804
   10SAPS   O31 1229   4.038   5.533   6.588 -0.1842 -0.3541 -0.4132
   10SAPS   C31 1230   3.944   5.442   6.613  0.5754  0.2912  0.7639
   10SAPS   O32 1231   3.851   5.418   6.541  0.5213 -0.1460  0.5926
   10SAPS   C32 1232   3.961   5.371   6.741 -0.1988  0.5019 -0.9079
   10SAPS   H2X 1233   4.012   5.436   6.815  1.3744 -1.1393 -0.4925
   10SAPS   H2Y 1234   4.035   5.289   6.725 -0.2100 -0.0556  1.5494
   10SAPS   C23 1235   3.833   6.046   6.738  0.3561  0.0625  0.9811
   10SAPS   H3R 1236   3.869   5.968   6.809 -0.2558  0.2568  1.5089
   10SAPS   H3S 1237   3.724   6.031   6.724  0.8701 -1.7360 -2.1184
   10SAPS   C24 1238   3.857   6.188   6.782  0.6192 -0.5617  0.2504
   10SAPS   H4R 1239   3.803   6.213   6.876 -1.3045  0.0246 -0.9492
   10SAPS   H4S 1240   3.821   6.260   6.704  1.0310 -1.1470 -0.4943
   10SAPS   C25 1241   4.003   6.213   6.805  0.5871 -0.0039  0.8506
   10SAPS   H5R 1242   4.066   6.209   6.716  0.1999  0.7167  0.5426
   10SAPS   C26 1243   4.063   6.228   6.926  0.0337 -0.1122  0.3793
   10SAPS   H6R 1244   4.170   6.253   6.926  0.0094  0.2407  2.8533
   10SAPS   C27 1245   4.005   6.235   7.067 -0.5357  0.1357  0.4416
   10SAPS   H7R 1246   4.047   6.142   7.110 -0.6052 -0.7884 -1.3582
   10SAPS   H7S 1247   3.894   6.233   7.061 -0.6399 -1.3261  2.0656
   10SAPS   C28 1248   4.034   6.357   7.149 -0.0301  0.1941  0.9865
   10SAPS   H8R 1249   4.077   6.438   7.089 -1.7159  1.1006  0.9576
   10SAPS   C29 1250   4.019   6.364   7.281 -0.0548 -0.0616  0.0626
   10SAPS   H9R 1251   4.041   6.457   7.335  0.3205  0.0960 -0.3483
   10SAPS  C210 1252   3.977   6.246   7.366  0.3611 -0.2765  0.4812
   10SAPS  H10R 1253   3.952   6.151   7.314  0.3102 -0.8929  1.6064
   10SAPS  H10S 1254   3.884   6.278   7.416 -0.8325 -0.8465 -1.2434
   10SAPS  C211 1255   4.094   6.220   7.453 -0.3237  0.2104 -0.0194
   10SAPS  H11R 1256   4.180   6.169   7.407 -0.0081  0.5073  0.2353
   10SAPS  C212 1257   4.093   6.248   7.584  0.8546 -0.8218  0.1938
   10SAPS  H12R 1258   4.178   6.214   7.645  1.2895  0.5730  0.3906
   10SAPS  C213 1259   3.982   6.305   7.665 -0.9252  0.9632  0.2813
   10SAPS  H13R 1260   3.881   6.289   7.621  0.3514  0.7894 -2.8938
   10SAPS  H13S 1261   3.990   6.416   7.663  0.4284  0.9044 -2.2180
   10SAPS  C214 1262   3.971   6.249   7.802 -0.9103  0.3556  0.6517
   10SAPS  H14R 1263   3.985   6.140   7.792  0.4626  0.6328 -0.9156
   10SAPS  C215 1264   3.977   6.315   7.918 -0.0325  0.8997 -0.1102
   10SAPS  H15R 1265   3.987   6.261   8.013 -1.6940  1.0652  0.1807
   10SAPS  C216 1266   3.979   6.462   7.928 -0.2674  0.4407  0.2147
   10SAPS  H16R 1267   3.990   6.516   7.832  0.8247 -1.4755 -0.8036
   10SAPS  H16S 1268   4.062   6.500   7.992 -0.1297 -0.0151  0.3089
   10SAPS  C217 1269   3.843   6.520   7.981  0.0851 -0.2683  0.1814
   10SAPS  H17R 1270   3.793   6.460   8.060 -0.5543  0.3228  0.2380
   10SAPS  H17S 1271   3.782   6.511   7.888  0.1065 -1.4762  0.2679
   10SAPS  C218 1272   3.867   6.665   8.034 -0.1968  0.5779  0.3085
   10SAPS  H18R 1273   3.942   6.721   7.973  0.4166 -1.1241 -0.5527
   10SAPS  H18S 1274   3.905   6.655   8.138 -0.1138 -0.9897  0.1413
   10SAPS  C219 1275   3.749   6.765   8.046  0.0171  0.3100 -0.2726
   10SAPS  H19R 1276   3.670   6.710   8.101 -1.4826  1.6797 -0.9609
   10SAPS  H19S 1277   3.705   6.799   7.949  1.7104  0.4536 -1.0344
   10SAPS  C220 1278   3.810   6.891   8.114  0.1565  0.1825  0.4876
   10SAPS  H20R 1279   3.885   6.938   8.046  1.4694  0.1789  1.8909
   10SAPS  H20S 1280   3.854   6.877   8.215  3.0251  0.4578 -0.6337
   10SAPS  H20T 1281   3.720   6.957   8.124 -1.2727 -1.6060 -0.0046
   10SAPS   C33 1282   3.821   5.314   6.794  1.3835 -0.3367  0.3440
   10SAPS   H3X 1283   3.840   5.248   6.881  0.6153 -1.5677 -0.3801
   10SAPS   H3Y 1284   3.781   5.247   6.714  2.8316  1.9082 -2.4582
   10SAPS   C34 1285   3.717   5.420   6.834  0.7415 -0.2843  0.2005
   10SAPS   H4X 1286   3.613   5.384   6.816 -0.7560  3.4601  0.3946
   10SAPS   H4Y 1287   3.731   5.516   6.780  1.2876 -1.0886 -1.1307
   10SAPS   C35 1288   3.720   5.460   6.985  0.4781  0.2711 -0.1755
   10SAPS   H5X 1289   3.693   5.365   7.035 -1.1459  0.6775 -0.2460
   10SAPS   H5Y 1290   3.640   5.537   6.990 -0.0435 -0.2007 -1.0532
   10SAPS   C36 1291   3.853   5.514   7.049 -0.3883 -0.1067  0.0775
   10SAPS   H6X 1292   3.897   5.589   6.980 -0.3578  0.2335  0.4672
   10SAPS   H6Y 1293   3.931   5.437   7.063  1.2409  1.5379  0.4661
   10SAPS   C37 1294   3.833   5.578   7.187 -0.4746  0.0197 -0.0268
   10SAPS   H7X 1295   3.780   5.506   7.253  0.1908 -0.4628 -0.0123
   10SAPS   H7Y 1296   3.779   5.674   7.179 -1.4880 -0.5569 -0.3689
   10SAPS   C38 1297   3.967   5.597   7.261 -0.0172 -0.6211  0.3831
   10SAPS   H8X 1298   4.036   5.662   7.204 -0.5323 -1.2073 -0.9610
   10SAPS   H8Y 1299   4.018   5.498   7.273  1.1548 -0.1477 -0.4500
   10SAPS   C39 1300   3.956   5.659   7.403  0.4157  0.4433  0.1796
   10SAPS   H9X 1301   4.065   5.663   7.428  0.6767 -1.2540 -0.6058
   10SAPS   H9Y 1302   3.895   5.597   7.471 -1.1850 -0.9952 -2.4245
   10SAPS  C310 1303   3.902   5.802   7.383  0.6426  0.0458  0.0343
   10SAPS  H10X 1304   3.792   5.797   7.369  0.3125  2.9934  0.9486
   10SAPS  H10Y 1305   3.950   5.840   7.291  0.6321 -1.2561 -0.5282
   10SAPS  C311 1306   3.916   5.887   7.506 -0.3098 -0.3835 -0.4103
   10SAPS  H11X 1307   3.866   5.985   7.494 -0.7143 -0.6389 -0.8640
   10SAPS  H11Y 1308   4.021   5.922   7.503 -0.8126  1.1178 -1.2583
   10SAPS  C312 1309   3.858   5.827   7.630  0.4309 -0.1730  0.3641
   10SAPS  H12X 1310   3.905   5.726   7.636  1.1685  0.1240 -0.2636
   10SAPS  H12Y 1311   3.750   5.803   7.621  0.4688 -0.7886  1.3393
   10SAPS  C313 1312   3.868   5.902   7.769  0.1189 -0.3958  0.1768
   10SAPS  H13X 1313   3.825   6.004   7.761  0.1222 -0.5229 -1.8233
   10SAPS  H13Y 1314   3.978   5.915   7.775  0.3930 -1.6087 -1.7217
   10SAPS  C314 1315   3.796   5.827   7.877 -0.1662  0.5182  0.0439
   10SAPS  H14X 1316   3.851   5.732   7.894 -0.7194  0.4653  1.7384
   10SAPS  H14Y 1317   3.691   5.799   7.854  0.7168 -1.3873 -1.9622
   10SAPS  C315 1318   3.814   5.895   8.012 -0.1690 -0.5449  0.3231
   10SAPS  H15X 1319   3.778   6.000   8.021 -1.3164 -0.9487  0.6693
   10SAPS  H15Y 1320   3.923   5.898   8.034  0.1580 -0.6416 -1.1625
   10SAPS  C316 1321   3.751   5.803   8.130  0.5647 -0.3103  0.5054
   10SAPS  H16X 1322   3.776   5.695   8.122 -0.6525 -0.5193 -1.0333
   10SAPS  H16Y 1323   3.642   5.810   8.109  0.4620 -1.1072  0.7604
   10SAPS  C317 1324   3.776   5.868   8.267  0.1222  0.1124 -0.1688
   10SAPS  H17X 1325   3.746   5.974   8.260 -0.6351 -0.2220 -2.9396
   10SAPS  H17Y 1326   3.884   5.865   8.292 -0.1416  1.2403  1.2892
   10SAPS  C318 1327   3.698   5.802   8.384  0.0807  0.7105 -0.0277
   10SAPS  H18X 1328   3.743   5.843   8.477  1.2690  1.3322 -0.8451
   10SAPS  H18Y 1329   3.706   5.691   8.380  0.8466  0.7482  0.3663
   10SAPS  H18Z 1330   3.593   5.840   8.388  0.3791  1.6556 -0.7096
   11SAPS     N 1331   5.788   3.009   5.559  0.6323 -0.4499 -0.0193
   11SAPS   HN1 1332   5.791   2.984   5.458 -0.7927 -2.3493  0.3512
   11SAPS   HN2 1333   5.773   3.108   5.586  1.0590 -0.6172  0.8483
   11SAPS   HN3 1334   5.870   2.976   5.613  0.5378  2.0529  1.8216
   11SAPS   C12 1335   5.669   2.940   5.625  0.1633  0.5624  0.8677
   11SAPS  H12A 1336   5.576   2.968   5.580 -0.0240  0.1732  1.0086
   11SAPS   C13 1337   5.673   2.789   5.619 -0.0931  0.1466  0.3207
   11SAPS  O13A 1338   5.770   2.730   5.560  0.2005  0.3671  0.4015
   11SAPS  O13B 1339   5.575   2.728   5.670 -0.4957 -0.9188  0.0926
   11SAPS   C11 1340   5.667   2.992   5.770 -0.4117  0.2619 -0.0158
   11SAPS  H11A 1341   5.750   2.940   5.823  1.0501  0.2085 -2.1795
   11SAPS  H11B 1342   5.567   2.971   5.812 -0.3968  0.4300  0.1038
   11SAPS     P 1343   5.784   3.224   5.848  0.2544 -0.0148  0.1603
   11SAPS   O13 1344   5.905   3.186   5.771  0.0463  0.0207 -0.4255
   11SAPS   O14 1345   5.734   3.364   5.838  0.4075  0.4011  0.0346
   11SAPS   O12 1346   5.669   3.134   5.787  0.3706 -0.4835  0.1599
   11SAPS   O11 1347   5.798   3.179   5.997 -0.2094 -0.2192  0.2608
   11SAPS    C1 1348   5.687   3.134   6.078  0.1397  0.0491  0.3145
   11SAPS    HA 1349   5.613   3.215   6.099 -3.1428 -2.1590 -1.8537
   11SAPS    HB 1350   5.627   3.061   6.020  2.3487 -1.7098  0.1214
   11SAPS    C2 1351   5.731   3.073   6.222 -0.2383  0.0765  0.0702
   11SAPS    HS 1352   5.646   3.073   6.293 -1.5496  2.8805 -1.3508
   11SAPS   O21 1353   5.853   3.136   6.271 -0.3707 -0.2694  0.5554
   11SAPS   C21 1354   5.837   3.260   6.307 -0.3014 -0.4800 -0.4177
   11SAPS   O22 1355   5.733   3.321   6.302  0.1566  0.4010  0.4937
   11SAPS   C22 1356   5.976   3.316   6.346  0.9804  0.0379  0.3143
   11SAPS   H2R 1357   6.056   3.239   6.347  1.0291  0.0615 -0.8508
   11SAPS   H2S 1358   6.011   3.389   6.271 -1.5219 -0.2034 -1.2149
   11SAPS    C3 1359   5.756   2.919   6.196  0.7362  0.3131  0.3980
   11SAPS    HX 1360   5.831   2.897   6.116 -1.2516 -1.3635 -1.1347
   11SAPS    HY 1361   5.656   2.884   6.163  1.0477  0.4194 -0.6966
   11SAPS   O31 1362   5.780   2.845   6.317  0.1075 -0.3654  0.2063
   11SAPS   C31 1363   5.903   2.804   6.342  0.4680 -0.0251  0.3058
   11SAPS   O32 1364   5.996   2.804   6.262 -0.1821  0.3436 -0.1689
   11SAPS   C32 1365   5.911   2.777   6.495  0.0386  0.2602  1.0520
   11SAPS   H2X 1366   6.019   2.772   6.523  0.1433  0.3126  0.6637
   11SAPS   H2Y 1367   5.846   2.688   6.506 -2.4990  1.8227 -0.2798
   11SAPS   C23 1368   5.969   3.385   6.484 -0.5492  0.5289 -0.0931
   11SAPS   H3R 1369   5.898   3.468   6.464  0.7500  1.6308 -0.2414
   11SAPS   H3S 1370   6.071   3.423   6.502 -1.3158  1.5788  2.4511
   11SAPS   C24 1371   5.931   3.295   6.604 -0.0819 -0.5012 -0.1423
   11SAPS   H4R 1372   5.993   3.324   6.691  0.9617 -1.2736 -0.6051
   11SAPS   H4S 1373   5.963   3.188   6.602 -1.8241 -1.1097  1.1284
   11SAPS   C25 1374   5.779   3.297   6.631  0.5252 -0.2471  0.1972
   11SAPS   H5R 1375   5.712   3.243   6.562  1.2149 -1.2672  0.2983
   11SAPS   C26 1376   5.722   3.348   6.743 -0.1267 -0.1751  0.4511
   11SAPS   H6R 1377   5.613   3.344   6.757 -0.0376 -1.6407  0.9461
   11SAPS   C27 1378   5.804   3.406   6.850 -0.2763  0.2285  0.3763
   11SAPS   H7R 1379   5.872   3.485   6.813 -2.0018  0.8442 -1.6397
   11SAPS   H7S 1380   5.872   3.331   6.896  0.3397  0.1483 -0.6455
   11SAPS   C28 1381   5.709   3.482   6.942 -0.8073  0.5621 -0.3141
   11SAPS   H8R 1382   5.662   3.572   6.901 -2.7843  0.3522  1.3053
   11SAPS   C29 1383   5.675   3.431   7.065 -0.1877  0.0079 -0.3868
   11SAPS   H9R 1384   5.610   3.489   7.132 -2.3315 -3.0111  0.3511
   11SAPS  C210 1385   5.719   3.299   7.123 -0.4646 -0.2302 -0.3208
   11SAPS  H10R 1386   5.740   3.227   7.041 -1.2146 -0.7180 -0.0896
   11SAPS  H10S 1387   5.637   3.244   7.173  1.3366 -0.8242  2.1973
   11SAPS  C211 1388   5.853   3.308   7.192  0.4866 -0.1205 -0.3629
   11SAPS  H11R 1389   5.944   3.304   7.131 -0.2679  3.7637 -2.0572
   11SAPS  C212 1390   5.868   3.327   7.326  0.0327 -0.1875  0.1109
   11SAPS  H12R 1391   5.973   3.332   7.356  0.0767 -0.1192 -0.0541
   11SAPS  C213 1392   5.749   3.335   7.425 -0.2791 -0.1492  0.2375
   11SAPS  H13R 1393   5.800   3.295   7.515  1.4442  0.9584 -0.1866
   11SAPS  H13S 1394   5.663   3.270   7.399  1.4251 -2.2645 -0.4832
   11SAPS  C214 1395   5.698   3.477   7.448  0.4945 -0.3358 -0.0211
   11SAPS  H14R 1396   5.618   3.515   7.384 -1.7358  2.8210  4.0913
   11SAPS  C215 1397   5.746   3.566   7.542 -0.1277  0.3526  0.0198
   11SAPS  H15R 1398   5.691   3.661   7.551  0.3866  0.7048 -0.4254
   11SAPS  C216 1399   5.859   3.543   7.629 -0.6397  0.0388 -1.1814
   11SAPS  H16R 1400   5.917   3.638   7.630 -1.9922  0.9295 -2.9730
   11SAPS  H16S 1401   5.927   3.463   7.591 -1.0770 -1.2988  0.7071
   11SAPS  C217 1402   5.821   3.491   7.771  0.5496 -0.2079 -0.6992
   11SAPS  H17R 1403   5.756   3.402   7.764  0.2820 -0.0850  0.1772
   11SAPS  H17S 1404   5.768   3.571   7.826 -0.1522 -0.6469 -0.7367
   11SAPS  C218 1405   5.930   3.441   7.855  0.9344  0.8826 -0.3203
   11SAPS  H18R 1406   6.011   3.390   7.797  1.4168  1.2865 -0.0120
   11SAPS  H18S 1407   5.889   3.361   7.920 -0.6738  1.5650 -0.4534
   11SAPS  C219 1408   6.002   3.535   7.960  0.4592  0.8185 -0.0592
   11SAPS  H19R 1409   6.034   3.623   7.901  1.2456  1.2498  0.9728
   11SAPS  H19S 1410   6.101   3.501   7.998  0.9984  0.8902 -1.3369
   11SAPS  C220 1411   5.909   3.578   8.074  0.3405  0.0512  0.4858
   11SAPS  H20R 1412   5.951   3.638   8.157  0.0103  1.4132 -0.2989
   11SAPS  H20S 1413   5.878   3.495   8.141 -1.2302  1.0685  1.0622
   11SAPS  H20T 1414   5.825   3.634   8.028  3.3059  4.1979 -0.4728
   11SAPS   C33 1415   5.857   2.889   6.585  0.4922 -0.5360 -0.0612
   11SAPS   H3X 1416   5.748   2.879   6.604  0.4298  1.6192  0.9817
   11SAPS   H3Y 1417   5.893   2.986   6.544  1.8951 -1.2944 -0.7203
   11SAPS   C34 1418   5.907   2.869   6.729 -0.4522  0.2728 -0.5487
   11SAPS   H4X 1419   6.008   2.822   6.725 -0.8414 -1.0188  2.3675
   11SAPS   H4Y 1420   5.849   2.785   6.772 -1.2280  1.6411  1.1823
   11SAPS   C35 1421   5.901   2.988   6.823  0.1925 -0.5421 -0.5152
   11SAPS   H5X 1422   5.814   3.056   6.813  1.9559  1.7788 -0.8400
   11SAPS   H5Y 1423   5.987   3.052   6.795 -1.5729  2.5840  0.6819
   11SAPS   C36 1424   5.934   2.956   6.973  0.3393  0.1823  0.3030
   11SAPS   H6X 1425   5.880   2.866   7.011 -1.7055  2.4472  3.2734
   11SAPS   H6Y 1426   5.905   3.039   7.041  1.3430  1.3807 -0.6940
   11SAPS   C37 1427   6.083   2.940   7.002 -0.6519  0.0793 -0.5567
   11SAPS   H7X 1428   6.141   3.024   6.957 -0.5054  0.8721  1.0300
   11SAPS   H7Y 1429   6.116   2.856   6.937 -2.8481 -1.2489 -0.0537
   11SAPS   C38 1430   6.132   2.891   7.139  0.1882  0.1274  0.3609
   11SAPS   H8X 1431   6.242   2.876   7.137  0.0028 -1.2691 -1.0644
   11SAPS   H8Y 1432   6.082   2.798   7.175  0.5840  0.0047  0.6009
   11SAPS   C39 1433   6.093   2.989   7.257 -0.0071  0.3613 -0.7269
   11SAPS   H9X 1434   5.991   3.031   7.248 -0.3018 -0.1009  0.2792
   11SAPS   H9Y 1435   6.160   3.078   7.256 -0.2133  0.5624  0.6877
   11SAPS  C310 1436   6.073   2.916   7.395 -0.0560 -0.1083  0.1885
   11SAPS  H10X 1437   6.166   2.859   7.416 -0.1773 -0.8063 -1.0740
   11SAPS  H10Y 1438   5.989   2.843   7.392  0.4161 -0.6451 -0.3954
   11SAPS  C311 1439   6.038   3.010   7.514 -0.0562 -0.6663 -0.5652
   11SAPS  H11X 1440   5.958   3.085   7.496  0.0863 -0.5451 -0.6870
   11SAPS  H11Y 1441   6.122   3.082   7.508 -0.4841 -0.2297 -1.4276
   11SAPS  C312 1442   6.013   2.946   7.650 -0.0388  0.0155 -0.2644
   11SAPS  H12X 1443   6.083   2.862   7.672 -0.6313 -0.1206  1.2201
   11SAPS  H12Y 1444   5.911   2.903   7.659  1.4061 -3.3108  3.4022
   11SAPS  C313 1445   6.053   3.042   7.761  0.6413  0.2779  0.1532
   11SAPS  H13X 1446   5.986   3.131   7.758  0.4890  0.1665  0.2110
   11SAPS  H13Y 1447   6.160   3.071   7.759  1.5082 -2.5541 -2.8671
   11SAPS  C314 1448   6.026   2.984   7.904 -0.5915 -0.3347  0.0632
   11SAPS  H14X 1449   6.091   2.895   7.918 -0.9693 -0.3376  2.0763
   11SAPS  H14Y 1450   5.920   2.952   7.905 -0.6542 -0.1230  0.2874
   11SAPS  C315 1451   6.058   3.074   8.021 -0.2339 -0.1600 -0.2320
   11SAPS  H15X 1452   5.996   3.163   8.002  0.1186  0.0570 -0.3727
   11SAPS  H15Y 1453   6.163   3.109   8.015  0.1488 -1.5364 -2.3747
   11SAPS  C316 1454   6.024   3.017   8.158 -0.5196  0.0650 -0.4035
   11SAPS  H16X 1455   6.094   2.932   8.171 -1.0857 -0.3027  0.2720
   11SAPS  H16Y 1456   5.929   2.962   8.170  0.0847 -1.1465 -1.0151
   11SAPS  C317 1457   6.035   3.118   8.279  0.2271  0.8228 -0.0875
   11SAPS  H17X 1458   5.974   3.209   8.258 -0.5202  0.1992 -0.6999
   11SAPS  H17Y 1459   6.144   3.135   8.287  0.3015  0.3007  0.0501
   11SAPS  C318 1460   5.983   3.047   8.404 -0.0656 -0.0414  0.2172
   11SAPS  H18X 1461   5.979   3.120   8.488  0.8392  0.6567 -0.3331
   11SAPS  H18Y 1462   6.042   2.956   8.427 -0.0461  0.2319  1.3338
   11SAPS  H18Z 1463   5.884   3.000   8.390 -0.1611  0.1364  0.2898
   12SAPS     N 1464   4.926   2.681   5.794 -0.0745 -0.0110  0.4975
   12SAPS   HN1 1465   4.966   2.620   5.720 -0.3952  1.4386 -0.9282
   12SAPS   HN2 1466   4.953   2.779   5.773 -2.9242  0.7984  0.1407
   12SAPS   HN3 1467   4.952   2.638   5.885 -0.1545  0.2951  0.6617
   12SAPS   C12 1468   4.776   2.678   5.784  0.0661  0.0133 -0.3058
   12SAPS  H12A 1469   4.756   2.716   5.685  1.3391  0.6652 -0.3374
   12SAPS   C13 1470   4.704   2.544   5.797 -0.8772  0.4388  0.2584
   12SAPS  O13A 1471   4.777   2.441   5.784  0.7072  0.0832 -0.6506
   12SAPS  O13B 1472   4.584   2.537   5.835  0.5440 -0.1011  0.3571
   12SAPS   C11 1473   4.713   2.773   5.888  0.0956 -0.2764 -0.8516
   12SAPS  H11A 1474   4.604   2.760   5.873  0.0445 -0.1707 -0.5865
   12SAPS  H11B 1475   4.729   2.877   5.850  0.6115 -1.4667 -4.1890
   12SAPS     P 1476   4.700   2.841   6.135 -0.1234  0.1161  0.0674
   12SAPS   O13 1477   4.696   2.986   6.090 -0.0374 -0.0813  0.3270
   12SAPS   O14 1478   4.572   2.788   6.179  0.3439  0.1701  0.4053
   12SAPS   O12 1479   4.757   2.749   6.022  0.1091  0.2948  0.2065
   12SAPS   O11 1480   4.813   2.825   6.249  0.2601  0.2809  0.1543
   12SAPS    C1 1481   4.855   2.699   6.295  0.0231  0.6247  0.6879
   12SAPS    HA 1482   4.775   2.623   6.308  0.3058  0.2264  0.1328
   12SAPS    HB 1483   4.926   2.654   6.222  0.0144 -0.7329  1.4750
   12SAPS    C2 1484   4.929   2.728   6.428 -0.0582  0.1107 -0.1028
   12SAPS    HS 1485   5.014   2.797   6.412 -1.9787  2.7041  0.2123
   12SAPS   O21 1486   4.957   2.600   6.497  0.2557 -0.0188 -0.0907
   12SAPS   C21 1487   5.066   2.549   6.447 -0.0167  0.9556 -0.0674
   12SAPS   O22 1488   5.135   2.594   6.359 -0.0295  0.6245 -0.1667
   12SAPS   C22 1489   5.097   2.420   6.520  0.5769 -0.3965  0.1221
   12SAPS   H2R 1490   5.029   2.422   6.608 -0.1210  2.4585 -0.3784
   12SAPS   H2S 1491   5.070   2.338   6.450  2.5791  0.1563 -1.4164
   12SAPS    C3 1492   4.837   2.818   6.528 -0.1305 -0.0587  0.6739
   12SAPS    HX 1493   4.739   2.767   6.539 -1.5797  2.2738 -0.5097
   12SAPS    HY 1494   4.808   2.913   6.479  0.6702 -1.3571 -2.6328
   12SAPS   O31 1495   4.889   2.832   6.656  0.0591  0.2711  0.1860
   12SAPS   C31 1496   4.985   2.923   6.679 -0.1530 -0.3965  0.2838
   12SAPS   O32 1497   5.002   3.018   6.605  0.3930  0.0346  0.3030
   12SAPS   C32 1498   5.065   2.892   6.814  0.1958 -0.1753 -0.1177
   12SAPS   H2X 1499   5.041   2.983   6.874  1.7750 -1.5792  2.8460
   12SAPS   H2Y 1500   5.173   2.900   6.790  0.1331 -1.5045 -0.9539
   12SAPS   C23 1501   5.237   2.405   6.569 -0.9489 -0.5097  0.0909
   12SAPS   H3R 1502   5.302   2.467   6.503  2.2331  0.0317  3.3959
   12SAPS   H3S 1503   5.266   2.300   6.548  1.2546  0.4454 -2.0926
   12SAPS   C24 1504   5.259   2.446   6.717 -0.4700 -0.9102  0.2968
   12SAPS   H4R 1505   5.191   2.379   6.773  0.5708 -2.7470 -0.5716
   12SAPS   H4S 1506   5.221   2.551   6.721  0.2216 -0.5851 -1.0348
   12SAPS   C25 1507   5.405   2.437   6.762  0.0891 -0.9212  0.5207
   12SAPS   H5R 1508   5.476   2.495   6.701  1.2028 -0.3882  2.2555
   12SAPS   C26 1509   5.467   2.368   6.859  0.2890  0.0737  0.2169
   12SAPS   H6R 1510   5.577   2.367   6.860  0.3397 -0.4708 -1.5436
   12SAPS   C27 1511   5.401   2.278   6.965  0.8439 -0.7462  0.0368
   12SAPS   H7R 1512   5.336   2.209   6.908  0.0650  0.8056 -1.0277
   12SAPS   H7S 1513   5.336   2.343   7.026  3.5991  2.1445  0.1650
   12SAPS   C28 1514   5.496   2.207   7.051  0.3257  0.6707 -0.2973
   12SAPS   H8R 1515   5.574   2.148   7.001  0.2101  0.2444  0.0242
   12SAPS   C29 1516   5.494   2.194   7.183  0.8169  0.2001  0.1183
   12SAPS   H9R 1517   5.580   2.141   7.229  2.5170  1.7023 -1.1940
   12SAPS  C210 1518   5.392   2.252   7.282  0.0469 -0.0587  0.3020
   12SAPS  H10R 1519   5.307   2.300   7.230 -0.9595 -1.1196  0.8938
   12SAPS  H10S 1520   5.439   2.330   7.346 -0.0255  1.0247 -0.9356
   12SAPS  C211 1521   5.344   2.151   7.379 -0.4161 -0.4680 -0.1761
   12SAPS  H11R 1522   5.269   2.077   7.348  0.0656 -1.4697  0.9669
   12SAPS  C212 1523   5.384   2.126   7.510  0.0932 -0.7478 -0.0452
   12SAPS  H12R 1524   5.324   2.059   7.574 -1.9831 -1.0477 -2.1663
   12SAPS  C213 1525   5.490   2.212   7.574 -0.5046  0.0311  0.0884
   12SAPS  H13R 1526   5.561   2.254   7.500  2.7601  4.0048  4.8708
   12SAPS  H13S 1527   5.549   2.150   7.644  1.1330  0.6416 -0.6846
   12SAPS  C214 1528   5.422   2.327   7.641  0.8037  0.6073 -0.0233
   12SAPS  H14R 1529   5.358   2.387   7.574 -0.6756 -0.8459  0.0086
   12SAPS  C215 1530   5.434   2.357   7.768  0.1915  0.2079 -0.4911
   12SAPS  H15R 1531   5.371   2.437   7.810  0.9415  0.6690 -0.2292
   12SAPS  C216 1532   5.524   2.287   7.872  0.2389  0.5046  0.4122
   12SAPS  H16R 1533   5.613   2.246   7.819 -0.0217  0.3916  0.0561
   12SAPS  H16S 1534   5.480   2.189   7.900  1.4356 -0.7331 -1.7527
   12SAPS  C217 1535   5.576   2.366   7.989 -0.6268 -0.2751 -0.4869
   12SAPS  H17R 1536   5.640   2.308   8.060 -1.5662 -0.8057 -0.0431
   12SAPS  H17S 1537   5.488   2.401   8.048  0.3767  0.2888  0.7227
   12SAPS  C218 1538   5.662   2.488   7.953 -0.4422  0.2962 -0.6168
   12SAPS  H18R 1539   5.593   2.552   7.895  0.4472  1.5828 -0.2942
   12SAPS  H18S 1540   5.759   2.466   7.903 -0.3006 -2.5800  0.6756
   12SAPS  C219 1541   5.689   2.579   8.078 -0.7899  0.0938 -0.1465
   12SAPS  H19R 1542   5.731   2.531   8.169  0.8668  1.5652 -0.0924
   12SAPS  H19S 1543   5.593   2.617   8.118 -0.3189  0.9777  0.1674
   12SAPS  C220 1544   5.789   2.699   8.051 -0.2592  0.6789 -0.1727
   12SAPS  H20R 1545   5.865   2.663   7.979  1.0827 -1.2747  2.0829
   12SAPS  H20S 1546   5.837   2.726   8.147 -1.2356  1.7952  0.0248
   12SAPS  H20T 1547   5.723   2.780   8.014 -0.1561  1.9015  2.1509
   12SAPS   C33 1548   5.031   2.767   6.889 -0.3992 -0.4609 -0.3857
   12SAPS   H3X 1549   5.041   2.673   6.831  1.1860 -1.3087  1.1748
   12SAPS   H3Y 1550   4.923   2.772   6.918 -0.6198  0.4005 -1.3012
   12SAPS   C34 1551   5.111   2.764   7.011 -0.0175  0.3468 -0.5223
   12SAPS   H4X 1552   5.066   2.837   7.082  1.2899  0.8951 -0.2330
   12SAPS   H4Y 1553   5.219   2.781   6.995  0.7969 -3.0146  0.6097
   12SAPS   C35 1554   5.104   2.626   7.079 -0.3711  0.6862  0.0087
   12SAPS   H5X 1555   5.138   2.541   7.016 -1.3586 -1.6144  2.4178
   12SAPS   H5Y 1556   5.001   2.602   7.112 -0.0956  0.3453  0.6359
   12SAPS   C36 1557   5.186   2.612   7.207  0.1809 -0.8185  0.5207
   12SAPS   H6X 1558   5.290   2.643   7.189 -0.6272  1.7677 -0.0679
   12SAPS   H6Y 1559   5.188   2.507   7.244 -0.0208  0.0822  3.3543
   12SAPS   C37 1560   5.117   2.692   7.315 -0.0912  0.3133 -0.4211
   12SAPS   H7X 1561   5.013   2.655   7.329 -0.4326  1.3644 -0.0634
   12SAPS   H7Y 1562   5.097   2.793   7.273 -2.6980 -1.3700 -3.7343
   12SAPS   C38 1563   5.188   2.690   7.453 -0.7301 -0.4555  0.4694
   12SAPS   H8X 1564   5.267   2.767   7.452 -0.7893 -0.3419  2.1526
   12SAPS   H8Y 1565   5.236   2.591   7.467 -2.0278 -0.8737  2.4381
   12SAPS   C39 1566   5.094   2.700   7.575  0.1922  0.4690 -0.4025
   12SAPS   H9X 1567   5.058   2.595   7.583  2.0426 -0.2114 -0.4591
   12SAPS   H9Y 1568   5.011   2.770   7.552  1.6241  2.0682 -0.8899
   12SAPS  C310 1569   5.166   2.738   7.706  0.8073  0.3110 -0.0961
   12SAPS  H10X 1570   5.231   2.827   7.693  2.1141 -0.7532 -1.1978
   12SAPS  H10Y 1571   5.233   2.655   7.737  1.0162  0.2090 -0.8037
   12SAPS  C311 1572   5.065   2.755   7.829  0.1010 -0.1530  0.7307
   12SAPS  H11X 1573   4.995   2.669   7.843 -0.9960  0.0064 -2.6481
   12SAPS  H11Y 1574   4.997   2.838   7.800  0.3340  0.4517  1.8625
   12SAPS  C312 1575   5.148   2.798   7.951 -0.4892 -0.3358  0.0383
   12SAPS  H12X 1576   5.077   2.859   8.009 -1.7328 -1.8207  0.1362
   12SAPS  H12Y 1577   5.233   2.862   7.919 -1.5574  1.1210  0.0242
   12SAPS  C313 1578   5.209   2.677   8.039  0.4012  0.4416  0.4705
   12SAPS  H13X 1579   5.247   2.714   8.136  0.2208 -0.6538  0.9773
   12SAPS  H13Y 1580   5.285   2.621   7.979  2.1411  0.8837  2.1598
   12SAPS  C314 1581   5.094   2.582   8.083  0.8818 -0.0034 -0.1825
   12SAPS  H14X 1582   5.047   2.524   8.001 -3.6910  1.7859  0.8698
   12SAPS  H14Y 1583   5.023   2.642   8.144  1.0980 -0.6038  0.6820
   12SAPS  C315 1584   5.139   2.477   8.187  0.3919 -0.1726  0.2305
   12SAPS  H15X 1585   5.170   2.518   8.285  0.8493 -1.8290  0.8173
   12SAPS  H15Y 1586   5.231   2.433   8.144  3.1098  2.7373  2.5308
   12SAPS  C316 1587   5.041   2.362   8.207  0.5218  0.6157 -0.2241
   12SAPS  H16X 1588   5.025   2.305   8.113 -3.1320 -0.6521  0.9742
   12SAPS  H16Y 1589   4.940   2.394   8.241  0.4203 -2.2479  2.6035
   12SAPS  C317 1590   5.101   2.261   8.307  0.5101 -0.2382 -0.3057
   12SAPS  H17X 1591   5.131   2.316   8.398  1.9468  0.8370 -1.3927
   12SAPS  H17Y 1592   5.194   2.211   8.273  0.2136 -0.7999 -0.3116
   12SAPS  C318 1593   4.998   2.152   8.353  0.2619 -0.7434  0.6101
   12SAPS  H18X 1594   5.037   2.079   8.427 -1.1958  0.0907  2.2700
   12SAPS  H18Y 1595   4.957   2.093   8.268 -0.3237 -1.9720  1.7108
   12SAPS  H18Z 1596   4.904   2.194   8.395 -0.3010 -1.6476  0.2996
   13SAPS     N 1597   5.496   0.298   6.310 -0.4544  0.1261 -0.2012
   13SAPS   HN1 1598   5.419   0.292   6.380  1.5707 -0.7422  2.0722
   13SAPS   HN2 1599   5.584   0.328   6.355  0.4255  1.3331 -2.5467
   13SAPS   HN3 1600   5.480   0.365   6.232 -1.8026  0.3726  0.2623
   13SAPS   C12 1601   5.522   0.168   6.234 -0.0742  0.4664  0.1610
   13SAPS  H12A 1602   5.429   0.136   6.188 -0.1920  1.8868 -0.6490
   13SAPS   C13 1603   5.634   0.177   6.130  0.9585  0.0658 -0.1574
   13SAPS  O13A 1604   5.709   0.273   6.116 -0.7026 -0.0931  0.0909
   13SAPS  O13B 1605   5.667   0.059   6.087 -0.0954  0.6627  0.2860
   13SAPS   C11 1606   5.565   0.062   6.343 -0.1720 -0.1021  0.1418
   13SAPS  H11A 1607   5.658   0.110   6.382  0.1384 -0.1781 -0.4832
   13SAPS  H11B 1608   5.599  -0.030   6.290  1.2628  0.3773  0.1754
   13SAPS     P 1609   5.320  -0.011   6.421  0.6355  0.2040 -0.0213
   13SAPS   O13 1610   5.235   0.115   6.406  0.2333  0.0870 -0.2655
   13SAPS   O14 1611   5.309  -0.108   6.309  0.0931 -0.1018 -0.1356
   13SAPS   O12 1612   5.470   0.036   6.444  0.1137 -0.1148 -0.3159
   13SAPS   O11 1613   5.293  -0.084   6.563 -0.3364  0.1636 -0.1217
   13SAPS    C1 1614   5.367  -0.194   6.607 -0.2595  0.0389 -0.1059
   13SAPS    HA 1615   5.352  -0.275   6.533 -1.4550  0.8746 -0.8014
   13SAPS    HB 1616   5.477  -0.181   6.618 -0.0395 -2.0302  0.7672
   13SAPS    C2 1617   5.330  -0.255   6.752  0.4560 -0.7076  0.5065
   13SAPS    HS 1618   5.227  -0.297   6.745  0.3489 -0.1930 -1.5874
   13SAPS   O21 1619   5.347  -0.147   6.848 -0.3446 -0.2853 -0.1628
   13SAPS   C21 1620   5.237  -0.084   6.885  0.1645  0.0417 -0.5593
   13SAPS   O22 1621   5.132  -0.094   6.823 -0.1590  0.5142 -0.1908
   13SAPS   C22 1622   5.255   0.002   7.005  0.0699  0.1420  0.5162
   13SAPS   H2R 1623   5.288  -0.061   7.090 -0.8441 -1.9349 -0.5949
   13SAPS   H2S 1624   5.320   0.089   6.978  0.3976  0.5501  2.4862
   13SAPS    C3 1625   5.412  -0.375   6.787 -0.4386  0.1861 -0.0847
   13SAPS    HX 1626   5.521  -0.355   6.794 -0.5803  0.5335  1.5679
   13SAPS    HY 1627   5.397  -0.442   6.699  0.1837  0.3605 -0.3302
   13SAPS   O31 1628   5.383  -0.437   6.912  0.1276  0.5616 -0.3821
   13SAPS   C31 1629   5.303  -0.545   6.910  0.5907 -0.0588  0.0079
   13SAPS   O32 1630   5.236  -0.571   6.812  0.2087 -0.5619 -0.9232
   13SAPS   C32 1631   5.287  -0.609   7.050 -0.4883  0.0078 -0.2211
   13SAPS   H2X 1632   5.332  -0.538   7.123 -1.1504 -1.9686  2.2744
   13SAPS   H2Y 1633   5.349  -0.701   7.052  2.6592  1.9120 -1.7300
   13SAPS   C23 1634   5.120   0.063   7.053 -0.2348 -0.5422 -0.5921
   13SAPS   H3R 1635   5.032  -0.003   7.035 -0.7062 -0.2132  0.4074
   13SAPS   H3S 1636   5.109   0.151   6.986 -0.5306 -2.4931 -3.2619
   13SAPS   C24 1637   5.122   0.120   7.198 -0.3081 -0.1162  0.0836
   13SAPS   H4R 1638   5.127   0.042   7.277  0.8726  0.3693  0.5173
   13SAPS   H4S 1639   5.022   0.167   7.211 -0.5651 -0.7816  0.5554
   13SAPS   C25 1640   5.225   0.221   7.226  0.5045  0.1082  0.5614
   13SAPS   H5R 1641   5.221   0.313   7.165  1.1969  0.3098  0.8065
   13SAPS   C26 1642   5.325   0.208   7.317  0.4699 -0.5593  0.2169
   13SAPS   H6R 1643   5.403   0.284   7.325 -2.8086  3.2652 -0.9162
   13SAPS   C27 1644   5.347   0.100   7.415  0.7768 -0.0319 -0.2949
   13SAPS   H7R 1645   5.453   0.118   7.443  0.2551  1.1069  1.0597
   13SAPS   H7S 1646   5.345   0.008   7.353  1.3556 -0.3899  0.2124
   13SAPS   C28 1647   5.259   0.098   7.538 -0.1543  0.0250 -0.2351
   13SAPS   H8R 1648   5.152   0.082   7.519 -0.4656  0.8480  0.6926
   13SAPS   C29 1649   5.300   0.104   7.667 -0.1412 -0.3755  0.2039
   13SAPS   H9R 1650   5.224   0.117   7.746 -1.4015 -1.1780 -0.8418
   13SAPS  C210 1651   5.448   0.118   7.709 -0.4265  0.6442 -0.0006
   13SAPS  H10R 1652   5.473   0.224   7.691  1.5543  0.5197  1.6791
   13SAPS  H10S 1653   5.518   0.049   7.657  0.0844  1.8952 -1.0300
   13SAPS  C211 1654   5.471   0.093   7.855 -0.5986  0.3699 -0.5412
   13SAPS  H11R 1655   5.456   0.001   7.912 -1.5469  0.3574 -0.8013
   13SAPS  C212 1656   5.513   0.189   7.940 -0.6917 -0.7195  0.0164
   13SAPS  H12R 1657   5.515   0.161   8.046 -2.6057  0.6517  0.4579
   13SAPS  C213 1658   5.543   0.338   7.921  0.1978  0.7015 -1.0341
   13SAPS  H13R 1659   5.537   0.371   7.815 -1.8480  1.0683 -0.8550
   13SAPS  H13S 1660   5.643   0.372   7.954 -0.9675  1.9621  1.4507
   13SAPS  C214 1661   5.442   0.417   8.009 -0.3714  0.1076  0.2123
   13SAPS  H14R 1662   5.354   0.447   7.950  2.1341  2.7313 -2.4571
   13SAPS  C215 1663   5.452   0.458   8.137  0.3411  0.6307 -0.9948
   13SAPS  H15R 1664   5.365   0.505   8.185 -0.2727 -2.3570  1.1221
   13SAPS  C216 1665   5.563   0.419   8.233  0.0804 -0.3905 -0.0476
   13SAPS  H16R 1666   5.639   0.354   8.184 -0.6413 -2.5939  1.5774
   13SAPS  H16S 1667   5.521   0.356   8.314 -1.3448  1.1085  0.4186
   13SAPS  C217 1668   5.627   0.548   8.289  0.0596 -0.2075 -0.0197
   13SAPS  H17R 1669   5.679   0.592   8.201  2.2327  0.2862  1.4489
   13SAPS  H17S 1670   5.705   0.519   8.362  0.6937  0.1368 -0.5555
   13SAPS  C218 1671   5.544   0.651   8.360  0.1376  0.2902  0.0190
   13SAPS  H18R 1672   5.506   0.614   8.458  0.1916  1.3416  0.4506
   13SAPS  H18S 1673   5.454   0.674   8.299  0.4732 -0.2188 -0.6807
   13SAPS  C219 1674   5.618   0.779   8.388  0.4695  0.7506 -0.5096
   13SAPS  H19R 1675   5.695   0.799   8.311  0.1070  0.5251 -0.9377
   13SAPS  H19S 1676   5.667   0.791   8.487 -0.3678  2.0173 -0.2208
   13SAPS  C220 1677   5.529   0.907   8.371  0.0658 -0.0654 -0.3466
   13SAPS  H20R 1678   5.501   0.924   8.264 -1.4330  0.5623  0.1128
   13SAPS  H20S 1679   5.584   0.994   8.413 -1.2102 -0.0240  1.3598
   13SAPS  H20T 1680   5.430   0.892   8.419 -0.4296 -0.3512 -1.4159
   13SAPS   C33 1681   5.137  -0.645   7.094  0.2688 -0.8061 -0.0229
   13SAPS   H3X 1682   5.090  -0.723   7.032  0.0478 -1.1424  0.5629
   13SAPS   H3Y 1683   5.075  -0.553   7.084 -0.5634 -0.9748  2.7042
   13SAPS   C34 1684   5.128  -0.696   7.240 -0.9715 -0.2585  0.8527
   13SAPS   H4X 1685   5.178  -0.620   7.304 -1.1783 -0.6269  1.4695
   13SAPS   H4Y 1686   5.199  -0.781   7.230  1.1303  1.6510 -1.5563
   13SAPS   C35 1687   5.002  -0.769   7.282  0.4852  0.4215 -0.1846
   13SAPS   H5X 1688   5.000  -0.858   7.216 -1.1925  0.6035 -0.4178
   13SAPS   H5Y 1689   4.915  -0.701   7.273  1.3574  1.7042  0.6576
   13SAPS   C36 1690   5.021  -0.816   7.427 -0.0032  1.5928 -0.1340
   13SAPS   H6X 1691   5.125  -0.845   7.451 -1.1062 -1.8715  0.9643
   13SAPS   H6Y 1692   4.969  -0.910   7.454 -1.4113  2.1522 -0.7546
   13SAPS   C37 1693   4.986  -0.705   7.530  0.7546 -0.4389 -0.3135
   13SAPS   H7X 1694   4.877  -0.683   7.534  0.9872  0.6206  1.0870
   13SAPS   H7Y 1695   5.030  -0.610   7.491 -0.3223 -0.5889 -2.0173
   13SAPS   C38 1696   5.029  -0.715   7.678 -0.3961 -0.2782 -0.2440
   13SAPS   H8X 1697   4.997  -0.630   7.742  1.8816  1.3650 -1.1324
   13SAPS   H8Y 1698   5.139  -0.700   7.686 -0.3119 -1.3340  0.9199
   13SAPS   C39 1699   5.003  -0.852   7.731 -0.4073  0.3127 -0.0887
   13SAPS   H9X 1700   5.050  -0.937   7.676 -2.3774 -0.4168 -0.7365
   13SAPS   H9Y 1701   4.896  -0.871   7.707  0.1693 -0.9024 -1.9330
   13SAPS  C310 1702   5.031  -0.873   7.882  0.7093 -0.4217  0.0620
   13SAPS  H10X 1703   4.996  -0.974   7.913 -0.3138 -0.0213  0.2330
   13SAPS  H10Y 1704   4.970  -0.805   7.945  0.9953 -1.2148  1.2253
   13SAPS  C311 1705   5.179  -0.850   7.913  0.2899 -0.2453  0.2263
   13SAPS  H11X 1706   5.201  -0.747   7.879  0.5287 -0.6176 -0.7885
   13SAPS  H11Y 1707   5.232  -0.918   7.843  0.8167  0.6468 -0.2526
   13SAPS  C312 1708   5.216  -0.869   8.059  0.5797 -0.6164  0.2413
   13SAPS  H12X 1709   5.233  -0.975   8.086 -0.1367 -0.6066  0.7574
   13SAPS  H12Y 1710   5.133  -0.823   8.116  0.1637 -1.8714  0.6661
   13SAPS  C313 1711   5.344  -0.784   8.088  0.1375  0.4041 -1.1525
   13SAPS  H13X 1712   5.320  -0.676   8.093  1.7958  0.8710  4.2501
   13SAPS  H13Y 1713   5.416  -0.824   8.014 -2.2557 -0.8705 -2.9154
   13SAPS  C314 1714   5.386  -0.817   8.234 -0.0193  0.1822  0.0042
   13SAPS  H14X 1715   5.400  -0.926   8.250  0.5329  0.4828  1.7895
   13SAPS  H14Y 1716   5.299  -0.794   8.300  0.4609 -2.3340  1.6285
   13SAPS  C315 1717   5.521  -0.761   8.274 -0.4289 -0.6039 -0.5261
   13SAPS  H15X 1718   5.596  -0.789   8.197  1.8225 -0.6686  1.5786
   13SAPS  H15Y 1719   5.553  -0.807   8.370  0.8026  1.2030 -0.0060
   13SAPS  C316 1720   5.523  -0.602   8.295  0.3871 -0.1240 -0.6995
   13SAPS  H16X 1721   5.423  -0.559   8.318  0.3844  0.3045 -1.4616
   13SAPS  H16Y 1722   5.548  -0.557   8.196 -2.0636 -1.6273 -2.1254
   13SAPS  C317 1723   5.629  -0.566   8.405 -0.1893 -0.3660  0.0584
   13SAPS  H17X 1724   5.657  -0.461   8.384 -0.1880 -0.5984 -1.1830
   13SAPS  H17Y 1725   5.721  -0.626   8.385 -1.1864 -2.2594  0.8458
   13SAPS  C318 1726   5.589  -0.583   8.552  0.4977 -0.3701  0.4823
   13SAPS  H18X 1727   5.536  -0.680   8.565  0.4047 -0.5174 -0.9199
   13SAPS  H18Y 1728   5.516  -0.506   8.584 -0.2617 -0.6629 -0.5192
   13SAPS  H18Z 1729   5.679  -0.575   8.618 -0.3598 -1.6031  1.8650
   14SAPS     N 1730   5.158   2.270   5.979  0.6308 -0.0210 -0.0930
   14SAPS   HN1 1731   5.060   2.276   5.945  0.5817  1.4405  0.2065
   14SAPS   HN2 1732   5.197   2.183   5.939 -1.1303  0.0784 -2.1890
   14SAPS   HN3 1733   5.165   2.287   6.082 -1.7089  1.9434 -0.1578
   14SAPS   C12 1734   5.227   2.370   5.899 -0.7464 -0.2575 -0.1163
   14SAPS  H12A 1735   5.231   2.342   5.794 -3.9044 -1.0172 -0.1477
   14SAPS   C13 1736   5.160   2.510   5.900 -0.3218 -0.3588 -0.7565
   14SAPS  O13A 1737   5.059   2.530   5.976 -0.0550 -0.1153  0.7745
   14SAPS  O13B 1738   5.199   2.596   5.816  0.1939 -0.1509 -0.8099
   14SAPS   C11 1739   5.370   2.379   5.961  0.0673 -0.4416 -0.4229
   14SAPS  H11A 1740   5.366   2.407   6.069 -1.3527  0.0452 -0.5829
   14SAPS  H11B 1741   5.413   2.467   5.909 -2.5454  1.4024  0.3098
   14SAPS     P 1742   5.592   2.243   5.922  0.2396  0.0707  0.4267
   14SAPS   O13 1743   5.617   2.165   5.799  0.6031  0.0859 -0.1216
   14SAPS   O14 1744   5.658   2.378   5.925  0.1822  0.2434 -0.5517
   14SAPS   O12 1745   5.440   2.261   5.933  0.1634 -0.1022 -0.2248
   14SAPS   O11 1746   5.649   2.169   6.042  0.5081 -0.2776 -0.2561
   14SAPS    C1 1747   5.601   2.200   6.174 -1.1028  0.0436 -0.0643
   14SAPS    HA 1748   5.490   2.209   6.179 -1.0788  1.1728 -1.1458
   14SAPS    HB 1749   5.611   2.115   6.245 -2.0098 -0.9034 -1.0401
   14SAPS    C2 1750   5.684   2.312   6.246 -0.1158  0.2820  0.3138
   14SAPS    HS 1751   5.674   2.403   6.182  0.7041 -0.5293 -1.0304
   14SAPS   O21 1752   5.820   2.280   6.260 -0.4127  1.0059 -0.8100
   14SAPS   C21 1753   5.896   2.378   6.293  0.0307 -0.2219 -0.1273
   14SAPS   O22 1754   5.857   2.498   6.300 -0.3149 -0.1991 -0.6794
   14SAPS   C22 1755   6.036   2.337   6.327  0.1152  0.5772  0.4513
   14SAPS   H2R 1756   6.043   2.278   6.421  1.1183  2.1262  1.4004
   14SAPS   H2S 1757   6.067   2.269   6.245 -0.7748  1.7604 -0.9062
   14SAPS    C3 1758   5.624   2.354   6.388 -0.2534 -0.1988  0.8588
   14SAPS    HX 1759   5.513   2.359   6.379 -0.2575 -1.4040 -0.0853
   14SAPS    HY 1760   5.656   2.456   6.415 -1.2340  0.8688 -1.7320
   14SAPS   O31 1761   5.652   2.260   6.488 -0.6164 -0.6047  0.5214
   14SAPS   C31 1762   5.558   2.168   6.522  0.3457 -0.3931  0.0246
   14SAPS   O32 1763   5.450   2.160   6.459  0.3926  0.1498 -0.2156
   14SAPS   C32 1764   5.609   2.086   6.637  0.2312  0.7633 -0.0099
   14SAPS   H2X 1765   5.645   2.145   6.724  3.0983 -1.5811  0.5622
   14SAPS   H2Y 1766   5.685   2.014   6.601 -1.0023 -0.4434 -0.3029
   14SAPS   C23 1767   6.123   2.460   6.340 -0.2512  0.1724 -0.3299
   14SAPS   H3R 1768   6.088   2.517   6.430  2.6797 -2.0280  2.4345
   14SAPS   H3S 1769   6.109   2.537   6.261  2.7697 -0.6600 -1.8050
   14SAPS   C24 1770   6.277   2.438   6.328  0.1853  0.9642 -0.2423
   14SAPS   H4R 1771   6.324   2.538   6.317 -0.4274  1.1146 -1.7342
   14SAPS   H4S 1772   6.292   2.397   6.226  0.7965  2.6473 -0.8584
   14SAPS   C25 1773   6.329   2.347   6.436 -0.4321  0.0634  0.0073
   14SAPS   H5R 1774   6.373   2.253   6.401 -0.0186  0.9991 -2.1415
   14SAPS   C26 1775   6.322   2.376   6.564  0.2403 -0.3690 -0.4468
   14SAPS   H6R 1776   6.344   2.291   6.630 -0.0995  0.1230  0.3062
   14SAPS   C27 1777   6.267   2.494   6.639 -0.1674 -0.1220 -0.2307
   14SAPS   H7R 1778   6.212   2.461   6.730 -1.9038  2.3209 -0.3077
   14SAPS   H7S 1779   6.195   2.549   6.575  0.6518 -3.2534 -4.2556
   14SAPS   C28 1780   6.378   2.590   6.675  0.1201  0.3753  0.1114
   14SAPS   H8R 1781   6.411   2.653   6.591 -5.4740  2.8171 -0.6936
   14SAPS   C29 1782   6.423   2.623   6.802  0.4895  0.0246 -0.1805
   14SAPS   H9R 1783   6.495   2.705   6.813  0.7823 -0.1630 -0.6951
   14SAPS  C210 1784   6.368   2.549   6.921 -0.3633  0.6935 -0.2932
   14SAPS  H10R 1785   6.340   2.443   6.901 -1.8947  0.4284  2.6420
   14SAPS  H10S 1786   6.276   2.607   6.945  0.6440  1.3932  2.2450
   14SAPS  C211 1787   6.455   2.549   7.042 -0.1447 -0.1070 -0.3546
   14SAPS  H11R 1788   6.556   2.508   7.027 -0.4956 -1.8536  1.4842
   14SAPS  C212 1789   6.422   2.567   7.174  0.6944  0.2448 -0.3084
   14SAPS  H12R 1790   6.504   2.565   7.248 -1.9025  0.0112  2.7453
   14SAPS  C213 1791   6.283   2.583   7.228 -0.6549 -0.6489  0.0803
   14SAPS  H13R 1792   6.213   2.612   7.147  1.0993 -4.1074 -2.9803
   14SAPS  H13S 1793   6.286   2.657   7.311  0.6064 -0.0911 -0.4378
   14SAPS  C214 1794   6.224   2.454   7.279 -0.1497  0.0565 -0.9117
   14SAPS  H14R 1795   6.241   2.373   7.206  0.7646  0.8065 -1.5636
   14SAPS  C215 1796   6.183   2.439   7.403  0.1164  0.0799 -0.1998
   14SAPS  H15R 1797   6.163   2.334   7.427 -2.8374  0.7770  0.8322
   14SAPS  C216 1798   6.173   2.535   7.517 -0.2566 -0.1361  0.0244
   14SAPS  H16R 1799   6.070   2.539   7.558 -0.7314  0.2379 -1.1806
   14SAPS  H16S 1800   6.202   2.640   7.495  0.6815 -0.9228 -2.9540
   14SAPS  C217 1801   6.278   2.502   7.623  0.4571  0.1823 -0.6349
   14SAPS  H17R 1802   6.376   2.547   7.596  1.0181 -2.6245 -3.8000
   14SAPS  H17S 1803   6.274   2.392   7.630  2.0846  0.1972  1.5589
   14SAPS  C218 1804   6.233   2.557   7.758  0.2485 -0.4764  0.2212
   14SAPS  H18R 1805   6.146   2.499   7.797  0.7757 -1.1486  0.4345
   14SAPS  H18S 1806   6.210   2.665   7.760  3.2939  0.2856  0.3342
   14SAPS  C219 1807   6.333   2.534   7.867 -0.1335  0.6147  0.1030
   14SAPS  H19R 1808   6.416   2.606   7.849  0.3650  0.8566  2.9425
   14SAPS  H19S 1809   6.376   2.431   7.873 -0.9124  0.3377  1.2738
   14SAPS  C220 1810   6.272   2.571   8.003 -0.5950  0.1384  0.6223
   14SAPS  H20R 1811   6.316   2.516   8.090  4.0390  1.2318 -0.7629
   14SAPS  H20S 1812   6.162   2.557   7.995 -0.4774 -0.2608 -0.5133
   14SAPS  H20T 1813   6.299   2.676   8.027 -2.5339  0.2078  2.9797
   14SAPS   C33 1814   5.494   2.005   6.704 -0.0645  0.1059  0.7084
   14SAPS   H3X 1815   5.445   1.949   6.622  1.7859 -0.0230 -0.3624
   14SAPS   H3Y 1816   5.423   2.084   6.738  0.4683  1.7670 -1.7624
   14SAPS   C34 1817   5.555   1.910   6.808 -1.0273 -0.6904 -0.0620
   14SAPS   H4X 1818   5.618   1.971   6.877 -0.6135  1.2108 -2.0039
   14SAPS   H4Y 1819   5.620   1.833   6.761 -1.3158 -2.6101  2.4493
   14SAPS   C35 1820   5.445   1.850   6.899  0.3149 -0.6332  0.1564
   14SAPS   H5X 1821   5.382   1.781   6.839 -0.7113  0.2545  0.1919
   14SAPS   H5Y 1822   5.378   1.926   6.944 -0.2336  0.5742 -2.4624
   14SAPS   C36 1823   5.504   1.758   7.005  0.3205  0.0932  0.1282
   14SAPS   H6X 1824   5.588   1.698   6.964 -1.1881 -2.0441  0.0299
   14SAPS   H6Y 1825   5.428   1.681   7.031  1.7190 -1.0219  1.0360
   14SAPS   C37 1826   5.542   1.843   7.129  0.2981  0.0607 -0.3195
   14SAPS   H7X 1827   5.474   1.929   7.147  1.9616  1.1011  1.3918
   14SAPS   H7Y 1828   5.645   1.882   7.112 -0.5640  2.1962 -1.0646
   14SAPS   C38 1829   5.552   1.749   7.248  0.6717 -0.1392  0.2062
   14SAPS   H8X 1830   5.624   1.666   7.232  0.6506 -0.2296  0.5656
   14SAPS   H8Y 1831   5.452   1.706   7.269  0.4335  0.2299 -0.1508
   14SAPS   C39 1832   5.584   1.825   7.378  0.1405 -0.0894 -0.0869
   14SAPS   H9X 1833   5.498   1.888   7.411 -0.2145 -0.1933 -0.7833
   14SAPS   H9Y 1834   5.671   1.892   7.359  1.3548 -1.4116  0.7032
   14SAPS  C310 1835   5.622   1.722   7.488  0.4430  0.1766  0.1055
   14SAPS  H10X 1836   5.729   1.700   7.465  0.9696  1.0378  1.5570
   14SAPS  H10Y 1837   5.558   1.631   7.486  0.9884 -0.2217  0.3252
   14SAPS  C311 1838   5.621   1.779   7.628 -0.2439 -0.4971 -0.6660
   14SAPS  H11X 1839   5.522   1.804   7.672 -0.1504  2.1533 -1.7606
   14SAPS  H11Y 1840   5.669   1.878   7.614 -0.5842 -0.2991 -0.4429
   14SAPS  C312 1841   5.695   1.692   7.741  1.0799 -0.0149  0.3700
   14SAPS  H12X 1842   5.768   1.627   7.688 -0.2591  0.1719 -1.8122
   14SAPS  H12Y 1843   5.618   1.621   7.778  0.8523 -1.3774 -2.5011
   14SAPS  C313 1844   5.746   1.774   7.861  0.1722 -0.1781  0.2902
   14SAPS  H13X 1845   5.824   1.847   7.830  2.1861 -2.9015 -1.4928
   14SAPS  H13Y 1846   5.802   1.699   7.921 -1.9710 -1.6917  0.5027
   14SAPS  C314 1847   5.639   1.853   7.947  0.2810 -0.1818 -0.5813
   14SAPS  H14X 1848   5.592   1.759   7.985  2.5489 -0.6387  1.3685
   14SAPS  H14Y 1849   5.571   1.905   7.877  0.7236 -0.2967 -1.1035
   14SAPS  C315 1850   5.697   1.930   8.065 -0.1660 -0.2857 -0.1288
   14SAPS  H15X 1851   5.751   2.012   8.013  1.6533 -1.9875 -1.0486
   14SAPS  H15Y 1852   5.773   1.867   8.115  1.4593  1.4169 -0.3410
   14SAPS  C316 1853   5.609   1.994   8.172  0.2829  0.0612 -0.0952
   14SAPS  H16X 1854   5.558   1.913   8.228 -1.5834  1.5062  0.4059
   14SAPS  H16Y 1855   5.539   2.064   8.122 -1.4315 -0.9614  0.7647
   14SAPS  C317 1856   5.692   2.076   8.282  0.1591 -0.1855  0.1941
   14SAPS  H17X 1857   5.766   2.143   8.233 -1.2800 -0.4462 -2.4991
   14SAPS  H17Y 1858   5.751   2.011   8.351  0.6880  0.2563  0.1658
   14SAPS  C318 1859   5.609   2.161   8.371 -0.1972 -1.1006 -0.8071
   14SAPS  H18X 1860   5.561   2.242   8.312  0.7405  1.8861  2.1744
   14SAPS  H18Y 1861   5.684   2.216   8.433  0.4871 -1.4100 -1.3518
   14SAPS  H18Z 1862   5.536   2.108   8.436 -0.6834 -2.1817 -2.1803
   15SAPS     N 1863   6.795   3.019   5.685  0.1678  0.3321  0.0970
   15SAPS   HN1 1864   6.725   3.094   5.701 -0.7134 -0.6824  1.0657
   15SAPS   HN2 1865   6.883   3.038   5.738  0.2027  2.5029 -0.6259
   15SAPS   HN3 1866   6.812   3.010   5.582  1.0444 -0.3129  0.2916
   15SAPS   C12 1867   6.733   2.903   5.765 -0.1099 -0.5496 -0.4019
   15SAPS  H12A 1868   6.659   2.870   5.693  0.1009  0.4676 -1.1189
   15SAPS   C13 1869   6.825   2.781   5.784  0.5734 -0.2027  0.2850
   15SAPS  O13A 1870   6.943   2.778   5.735  0.5711  0.3070 -0.1751
   15SAPS  O13B 1871   6.771   2.675   5.824  0.2379  0.5565  0.1099
   15SAPS   C11 1872   6.677   2.947   5.908 -0.7663  0.2384  0.6100
   15SAPS  H11A 1873   6.761   2.956   5.980 -1.2146 -2.9146  1.6754
   15SAPS  H11B 1874   6.620   2.857   5.941  0.7435 -0.2667  1.9855
   15SAPS     P 1875   6.471   3.095   5.982 -0.0085 -0.0379 -0.2881
   15SAPS   O13 1876   6.423   3.230   5.940 -0.2611  0.6458 -0.0683
   15SAPS   O14 1877   6.376   2.984   5.958 -0.4037  0.1647 -0.7106
   15SAPS   O12 1878   6.598   3.060   5.893 -0.1148 -0.0342  0.8361
   15SAPS   O11 1879   6.519   3.099   6.134 -0.3292 -0.0973 -0.0746
   15SAPS    C1 1880   6.556   2.984   6.207  0.1710 -0.5277  0.8107
   15SAPS    HA 1881   6.556   2.892   6.145 -3.3729 -0.6649  0.8481
   15SAPS    HB 1882   6.659   2.999   6.247  0.0682  0.9093  0.6036
   15SAPS    C2 1883   6.432   2.951   6.298  0.1338  0.0879 -0.6077
   15SAPS    HS 1884   6.339   2.951   6.238  0.6263 -1.5185 -1.4147
   15SAPS   O21 1885   6.431   3.049   6.407  0.2673  0.8715 -0.2709
   15SAPS   C21 1886   6.310   3.097   6.440  0.5693 -0.6001 -0.2232
   15SAPS   O22 1887   6.208   3.079   6.378 -0.1188 -0.3697 -0.5906
   15SAPS   C22 1888   6.304   3.189   6.565 -0.5813  0.5646 -0.3742
   15SAPS   H2R 1889   6.408   3.230   6.565  0.0064 -0.8673 -0.9047
   15SAPS   H2S 1890   6.223   3.263   6.553 -1.4577 -0.3190 -0.0009
   15SAPS    C3 1891   6.433   2.802   6.350 -0.1477  0.7136 -0.6802
   15SAPS    HX 1892   6.452   2.729   6.268  0.9157 -0.1751  0.3263
   15SAPS    HY 1893   6.333   2.784   6.393  0.0266 -0.8739 -0.8931
   15SAPS   O31 1894   6.531   2.784   6.458  0.3102 -0.1298  0.2952
   15SAPS   C31 1895   6.649   2.713   6.432  0.7999  0.1019 -0.3921
   15SAPS   O32 1896   6.678   2.670   6.324 -0.1839  0.5263 -0.2932
   15SAPS   C32 1897   6.745   2.696   6.550 -0.1404  0.5072 -0.2361
   15SAPS   H2X 1898   6.701   2.759   6.630 -1.4947  1.0716 -1.3887
   15SAPS   H2Y 1899   6.839   2.738   6.508 -0.7903  0.5195 -1.7535
   15SAPS   C23 1900   6.278   3.099   6.688 -0.3531  0.8812  0.1196
   15SAPS   H3R 1901   6.187   3.037   6.683  0.3036 -0.4317  2.6093
   15SAPS   H3S 1902   6.273   3.159   6.782  2.0203  0.2373  0.7352
   15SAPS   C24 1903   6.389   2.987   6.709 -0.4724  0.3366 -1.1063
   15SAPS   H4R 1904   6.400   2.917   6.623  1.0102  1.5459 -1.9545
   15SAPS   H4S 1905   6.343   2.930   6.792  0.3383  0.7000 -0.3868
   15SAPS   C25 1906   6.521   3.044   6.752 -0.3826 -1.0207  0.2656
   15SAPS   H5R 1907   6.590   3.058   6.667  0.4875  0.8509  1.2233
   15SAPS   C26 1908   6.573   3.070   6.873 -0.0602 -0.4361  0.2291
   15SAPS   H6R 1909   6.671   3.119   6.881 -0.0610 -0.1406 -1.3934
   15SAPS   C27 1910   6.508   3.040   7.001  0.2398 -0.3361 -0.8093
   15SAPS   H7R 1911   6.400   3.020   6.981 -0.1996 -1.1162  1.9864
   15SAPS   H7S 1912   6.509   3.129   7.067 -0.6627 -2.2317  1.9385
   15SAPS   C28 1913   6.556   2.922   7.072 -0.0027  0.5741 -0.6092
   15SAPS   H8R 1914   6.606   2.846   7.011  2.5292 -0.7655  2.7840
   15SAPS   C29 1915   6.558   2.898   7.205 -0.0975 -0.2455  0.1486
   15SAPS   H9R 1916   6.595   2.802   7.243 -1.1747 -0.3312  1.0468
   15SAPS  C210 1917   6.507   2.977   7.318  0.1899  0.8703  0.9545
   15SAPS  H10R 1918   6.443   2.906   7.374 -1.2387 -0.2654 -1.9051
   15SAPS  H10S 1919   6.424   3.034   7.272 -0.0546 -0.2090  0.0086
   15SAPS  C211 1920   6.603   3.038   7.420 -0.1197 -0.2708  0.2166
   15SAPS  H11R 1921   6.645   3.138   7.405  0.7962 -0.9382 -2.1363
   15SAPS  C212 1922   6.626   2.995   7.543  0.4683  0.0545  0.1317
   15SAPS  H12R 1923   6.697   3.050   7.605  0.2621  2.8238 -1.9188
   15SAPS  C213 1924   6.563   2.882   7.617 -0.8380  0.1548  0.1378
   15SAPS  H13R 1925   6.644   2.831   7.672 -1.2931  0.2633  0.9207
   15SAPS  H13S 1926   6.546   2.803   7.541  3.4325  0.0347 -0.9236
   15SAPS  C214 1927   6.440   2.907   7.705  0.3359 -0.7467  0.1808
   15SAPS  H14R 1928   6.346   2.909   7.648 -0.2473  1.6642  1.1150
   15SAPS  C215 1929   6.437   2.934   7.843  0.2890 -0.5504 -0.1545
   15SAPS  H15R 1930   6.340   2.941   7.895  1.0855  1.1950  1.2164
   15SAPS  C216 1931   6.558   2.956   7.934  0.3758  0.5330 -0.0638
   15SAPS  H16R 1932   6.561   3.055   7.984  0.5703 -1.1556  3.6146
   15SAPS  H16S 1933   6.651   2.943   7.875  0.9382  2.0437  0.4590
   15SAPS  C217 1934   6.544   2.854   8.048 -0.1579 -0.0823 -0.1576
   15SAPS  H17R 1935   6.636   2.847   8.110  0.0763 -0.5736 -0.5603
   15SAPS  H17S 1936   6.522   2.750   8.017 -1.4539 -0.6760  2.4375
   15SAPS  C218 1937   6.441   2.887   8.151 -0.3261  0.4261 -0.8935
   15SAPS  H18R 1938   6.335   2.884   8.118 -0.1822 -2.3575 -1.3574
   15SAPS  H18S 1939   6.470   2.983   8.197 -1.0841 -0.1287  0.8053
   15SAPS  C219 1940   6.444   2.783   8.258  0.0628  0.3464  0.3378
   15SAPS  H19R 1941   6.541   2.793   8.312  0.0979  0.0678  0.3256
   15SAPS  H19S 1942   6.452   2.681   8.217  0.1381 -0.5027  2.3352
   15SAPS  C220 1943   6.328   2.790   8.361 -0.4429 -0.2681  0.5099
   15SAPS  H20R 1944   6.307   2.896   8.388  1.9290  0.7865 -1.3747
   15SAPS  H20S 1945   6.352   2.734   8.454 -0.3542  0.8570  1.1860
   15SAPS  H20T 1946   6.238   2.742   8.316 -1.0405  0.5328  0.8173
   15SAPS   C33 1947   6.773   2.548   6.588 -0.0602  0.4340 -0.2121
   15SAPS   H3X 1948   6.808   2.500   6.494  1.9608 -1.6322  1.4678
   15SAPS   H3Y 1949   6.674   2.498   6.604  0.6401 -1.2234 -0.8166
   15SAPS   C34 1950   6.863   2.532   6.708 -0.4102 -0.0158 -0.7476
   15SAPS   H4X 1951   6.970   2.547   6.682  0.2249  1.0784  2.1435
   15SAPS   H4Y 1952   6.858   2.423   6.731 -0.9856 -0.1667 -1.5742
   15SAPS   C35 1953   6.830   2.614   6.828 -0.4750 -0.2445  0.1530
   15SAPS   H5X 1954   6.722   2.607   6.852 -0.8086  2.4761 -0.3264
   15SAPS   H5Y 1955   6.846   2.722   6.811  0.6038 -0.3496  0.3753
   15SAPS   C36 1956   6.901   2.565   6.953 -0.2281 -0.0482  0.0690
   15SAPS   H6X 1957   7.011   2.573   6.937 -0.3706  2.6096 -0.0410
   15SAPS   H6Y 1958   6.878   2.460   6.977 -1.1481  0.4776  1.5913
   15SAPS   C37 1959   6.869   2.660   7.069  0.5452 -0.5247  0.9590
   15SAPS   H7X 1960   6.762   2.637   7.087 -0.2334 -0.1760 -2.5376
   15SAPS   H7Y 1961   6.881   2.768   7.047 -0.1236 -0.6883 -0.2526
   15SAPS   C38 1962   6.945   2.619   7.186  0.4512  0.0764 -0.7595
   15SAPS   H8X 1963   7.051   2.650   7.180  0.4494  0.4320  0.5337
   15SAPS   H8Y 1964   6.963   2.510   7.189 -0.8168 -0.2134 -2.3287
   15SAPS   C39 1965   6.879   2.661   7.324  0.6255 -0.0992 -0.2240
   15SAPS   H9X 1966   6.774   2.628   7.307  0.9283 -1.2172  0.0057
   15SAPS   H9Y 1967   6.876   2.772   7.331 -1.9518 -0.1078 -0.1483
   15SAPS  C310 1968   6.925   2.592   7.450  0.3008  0.0824  0.0779
   15SAPS  H10X 1969   7.035   2.607   7.457  0.6575 -0.8034 -2.5157
   15SAPS  H10Y 1970   6.900   2.484   7.442 -1.4213  0.4438  0.2151
   15SAPS  C311 1971   6.845   2.647   7.568  0.2587 -0.4842 -0.9152
   15SAPS  H11X 1972   6.739   2.618   7.554  0.3417 -0.2057 -2.2452
   15SAPS  H11Y 1973   6.846   2.757   7.549 -4.2042  0.3943  2.1832
   15SAPS  C312 1974   6.914   2.618   7.708 -0.1687  0.6232  0.1323
   15SAPS  H12X 1975   7.023   2.625   7.690 -0.5401  3.3615 -1.6960
   15SAPS  H12Y 1976   6.890   2.511   7.728 -0.8246  0.0292 -3.2037
   15SAPS  C313 1977   6.875   2.716   7.813  0.0137  0.4927 -1.1052
   15SAPS  H13X 1978   6.774   2.688   7.850  0.3512  1.5859  0.7569
   15SAPS  H13Y 1979   6.867   2.810   7.754 -0.7356  1.8360  1.0532
   15SAPS  C314 1980   6.977   2.747   7.926  0.0698 -0.3986  0.0097
   15SAPS  H14X 1981   7.046   2.825   7.886  0.0186 -0.9016 -1.0998
   15SAPS  H14Y 1982   7.042   2.657   7.932  1.6604  0.6254 -0.7964
   15SAPS  C315 1983   6.910   2.784   8.056  0.5539  0.4590 -0.5410
   15SAPS  H15X 1984   6.833   2.711   8.087  0.2294  1.2825  0.6642
   15SAPS  H15Y 1985   6.864   2.884   8.040  0.3589  0.4774  0.1101
   15SAPS  C316 1986   7.011   2.790   8.174 -0.0485  0.1800 -0.4049
   15SAPS  H16X 1987   6.962   2.859   8.247 -0.2969  0.2282 -0.6166
   15SAPS  H16Y 1988   7.101   2.845   8.139 -0.2832 -0.4481 -2.0600
   15SAPS  C317 1989   7.049   2.654   8.252  0.0888 -0.3550 -0.2432
   15SAPS  H17X 1990   7.140   2.680   8.311 -0.4490  2.6185 -0.5615
   15SAPS  H17Y 1991   7.067   2.579   8.172 -1.2859 -2.7316  1.5307
   15SAPS  C318 1992   6.939   2.606   8.345  0.3788 -0.0886  0.0216
   15SAPS  H18X 1993   6.857   2.559   8.288  0.5263 -0.9603  0.5036
   15SAPS  H18Y 1994   6.900   2.692   8.404 -0.0818  0.1237 -0.5829
   15SAPS  H18Z 1995   6.986   2.535   8.416  1.4423 -1.6816 -2.1758
   16SAPS     N 1996   1.364   4.025   6.277 -0.1993 -0.0715  0.7899
   16SAPS   HN1 1997   1.264   4.030   6.307 -0.0577 -1.2028  1.5170
   16SAPS   HN2 1998   1.420   4.111   6.296  0.0945  0.7710 -3.1332
   16SAPS   HN3 1999   1.366   4.023   6.173  0.2484  1.7885  0.7142
   16SAPS   C12 2000   1.416   3.913   6.354  0.3506  0.3654  0.0396
   16SAPS  H12A 2001   1.343   3.835   6.338  1.6607 -0.7195 -0.8608
   16SAPS   C13 2002   1.554   3.848   6.310 -0.3034 -0.6180 -0.5339
   16SAPS  O13A 2003   1.583   3.874   6.188  0.1468 -0.3979  0.1234
   16SAPS  O13B 2004   1.607   3.747   6.364  0.5268  0.2454 -0.4637
   16SAPS   C11 2005   1.420   3.946   6.506 -0.4165 -0.3044 -0.1207
   16SAPS  H11A 2006   1.453   3.855   6.560 -1.1708  0.8411  2.4189
   16SAPS  H11B 2007   1.317   3.968   6.541 -0.7124 -1.4883 -0.1975
   16SAPS     P 2008   1.508   4.134   6.670 -0.2722 -0.3802  0.3310
   16SAPS   O13 2009   1.645   4.178   6.703 -1.0348 -0.5787 -0.2685
   16SAPS   O14 2010   1.400   4.237   6.665  0.1804 -0.6859 -0.0897
   16SAPS   O12 2011   1.511   4.055   6.530  0.4167  0.2972  0.2217
   16SAPS   O11 2012   1.457   4.029   6.777 -0.1452  0.9541 -0.3038
   16SAPS    C1 2013   1.325   4.026   6.835 -0.6206 -0.3750  0.3229
   16SAPS    HA 2014   1.243   4.019   6.760 -0.9766 -0.1417  0.6895
   16SAPS    HB 2015   1.319   3.925   6.882 -0.8111 -0.6605 -0.2966
   16SAPS    C2 2016   1.307   4.139   6.938 -0.3679  0.1758 -0.1893
   16SAPS    HS 2017   1.396   4.205   6.934  0.9564 -1.4309  1.2300
   16SAPS   O21 2018   1.286   4.093   7.071  0.8208 -0.3670 -0.4024
   16SAPS   C21 2019   1.395   4.065   7.138 -0.9340 -0.3037  0.3138
   16SAPS   O22 2020   1.506   4.051   7.091  0.1076  0.1298  0.1665
   16SAPS   C22 2021   1.364   4.070   7.281  1.0320 -0.2507  0.0533
   16SAPS   H2R 2022   1.454   4.084   7.344 -0.2351  1.0279  1.6587
   16SAPS   H2S 2023   1.303   4.160   7.299  1.6717 -0.1122  1.7023
   16SAPS    C3 2024   1.187   4.225   6.901  0.6159  0.7565  0.2250
   16SAPS    HX 2025   1.098   4.158   6.907  2.2372 -1.5208  0.5312
   16SAPS    HY 2026   1.206   4.262   6.798 -1.1595 -1.1969 -0.8839
   16SAPS   O31 2027   1.174   4.337   6.994 -0.3004  0.5366  0.6805
   16SAPS   C31 2028   1.074   4.415   6.953 -0.4966 -1.3234 -0.3358
   16SAPS   O32 2029   1.001   4.400   6.857  0.0663 -0.4834  0.2443
   16SAPS   C32 2030   1.078   4.549   7.035 -0.5786  0.5645 -0.6721
   16SAPS   H2X 2031   1.096   4.630   6.961  3.2549  2.0718  1.5939
   16SAPS   H2Y 2032   1.162   4.557   7.107  1.1131  0.7241 -2.5854
   16SAPS   C23 2033   1.274   3.940   7.316 -0.0646 -0.4063 -0.0487
   16SAPS   H3R 2034   1.337   3.849   7.311 -1.7530 -1.5972 -0.7351
   16SAPS   H3S 2035   1.179   3.935   7.259  0.0838 -0.6101 -0.2807
   16SAPS   C24 2036   1.224   3.941   7.464 -0.1597  0.1325 -0.3711
   16SAPS   H4R 2037   1.132   4.001   7.477 -0.2160  0.0424 -0.3544
   16SAPS   H4S 2038   1.302   3.991   7.526  0.9381  0.1035 -1.6865
   16SAPS   C25 2039   1.194   3.805   7.532 -0.0435 -0.3261  0.2237
   16SAPS   H5R 2040   1.163   3.732   7.456 -1.1948  0.7947 -0.4358
   16SAPS   C26 2041   1.212   3.760   7.659  0.2847 -0.1390  0.4875
   16SAPS   H6R 2042   1.200   3.653   7.681  0.1501 -0.2804 -0.2631
   16SAPS   C27 2043   1.264   3.847   7.777 -0.2489  0.3638  0.1431
   16SAPS   H7R 2044   1.359   3.898   7.750 -1.0580  1.6174 -0.4377
   16SAPS   H7S 2045   1.311   3.787   7.857 -1.5762 -1.3347 -0.2965
   16SAPS   C28 2046   1.156   3.936   7.842 -0.1359  0.0113  0.1368
   16SAPS   H8R 2047   1.051   3.919   7.816 -0.3444  0.3676  0.7129
   16SAPS   C29 2048   1.173   4.029   7.935 -0.2360  0.9209 -1.0482
   16SAPS   H9R 2049   1.085   4.082   7.975 -1.2100 -1.0949 -0.3748
   16SAPS  C210 2050   1.306   4.062   8.004  0.0104  0.2556 -0.1948
   16SAPS  H10R 2051   1.303   4.163   8.051  0.3670  1.5229 -2.6774
   16SAPS  H10S 2052   1.382   4.079   7.925  0.2724 -0.1766 -0.0344
   16SAPS  C211 2053   1.366   3.965   8.108 -0.1705  0.5402  1.5153
   16SAPS  H11R 2054   1.428   3.886   8.063  1.0739  2.7860 -1.0210
   16SAPS  C212 2055   1.342   3.966   8.244 -0.1569  0.8058 -0.2468
   16SAPS  H12R 2056   1.391   3.894   8.310  2.2807  1.3220 -1.3879
   16SAPS  C213 2057   1.243   4.059   8.310  0.4506  0.3360  0.6504
   16SAPS  H13R 2058   1.182   4.004   8.386 -2.9995  1.1409 -1.3034
   16SAPS  H13S 2059   1.172   4.090   8.230  0.5454 -0.4878  0.2426
   16SAPS  C214 2060   1.313   4.181   8.354  0.2496 -0.4774  0.0605
   16SAPS  H14R 2061   1.376   4.242   8.288  0.0269 -0.4462 -0.1257
   16SAPS  C215 2062   1.286   4.244   8.467 -0.0779 -0.5723  0.6009
   16SAPS  H15R 2063   1.337   4.339   8.488  0.4596 -0.7984  0.3239
   16SAPS  C216 2064   1.179   4.198   8.555  0.0758 -0.4458  0.4102
   16SAPS  H16R 2065   1.209   4.098   8.595 -0.9694 -1.7913 -1.9837
   16SAPS  H16S 2066   1.084   4.175   8.502 -0.5146  1.2208  0.6851
   16SAPS  C217 2067   1.146   4.291   8.669  0.8481 -0.4646  0.3804
   16SAPS  H17R 2068   1.235   4.314   8.731  0.1815 -1.4087  1.7355
   16SAPS  H17S 2069   1.069   4.244   8.733  0.2926  0.1037  0.1438
   16SAPS  C218 2070   1.088   4.431   8.628 -0.4893 -0.4689  0.2491
   16SAPS  H18R 2071   1.003   4.401   8.563  0.1917 -3.9405  0.7551
   16SAPS  H18S 2072   1.162   4.493   8.573  0.3619 -0.0614  1.7715
   16SAPS  C219 2073   1.030   4.506   8.746  0.2550  0.2242  0.0184
   16SAPS  H19R 2074   0.971   4.429   8.801  2.4612  0.3941  2.8564
   16SAPS  H19S 2075   0.961   4.584   8.707 -0.1223 -0.7911 -1.4592
   16SAPS  C220 2076   1.136   4.583   8.832 -0.2154 -0.2752 -0.0079
   16SAPS  H20R 2077   1.184   4.669   8.781 -0.4878  0.4758  0.9705
   16SAPS  H20S 2078   1.221   4.518   8.861  0.9369  0.2048 -2.0975
   16SAPS  H20T 2079   1.090   4.629   8.922  0.4744  0.6315 -0.1052
   16SAPS   C33 2080   0.942   4.572   7.104  0.5363 -0.3041 -0.3260
   16SAPS   H3X 2081   0.895   4.477   7.137 -1.2042  0.9805  1.0623
   16SAPS   H3Y 2082   0.867   4.612   7.033 -1.2404 -1.6760  0.6709
   16SAPS   C34 2083   0.951   4.653   7.237  0.7875 -0.0144 -0.1898
   16SAPS   H4X 2084   0.955   4.763   7.217 -0.8651 -0.1040 -1.2176
   16SAPS   H4Y 2085   1.043   4.618   7.289  1.5020  0.4060 -1.1531
   16SAPS   C35 2086   0.829   4.628   7.327  0.2282  0.5965 -0.1646
   16SAPS   H5X 2087   0.810   4.519   7.337  2.3833 -0.1417 -2.8924
   16SAPS   H5Y 2088   0.754   4.679   7.262  0.7763  0.1723 -1.1515
   16SAPS   C36 2089   0.838   4.684   7.471  0.3630 -0.2838 -0.0546
   16SAPS   H6X 2090   0.881   4.786   7.467 -0.9787  0.3620  1.0359
   16SAPS   H6Y 2091   0.915   4.627   7.528 -0.1383 -0.5099  0.4121
   16SAPS   C37 2092   0.700   4.671   7.541 -0.3545 -0.2542  0.4254
   16SAPS   H7X 2093   0.650   4.578   7.508 -1.7737  0.9304 -0.9529
   16SAPS   H7Y 2094   0.629   4.747   7.501 -0.0231  0.2580  0.7914
   16SAPS   C38 2095   0.710   4.662   7.695  0.2847  0.3890  0.0722
   16SAPS   H8X 2096   0.775   4.746   7.729  0.4999 -0.4609  1.8399
   16SAPS   H8Y 2097   0.761   4.565   7.716 -0.3919  0.0890  0.3344
   16SAPS   C39 2098   0.575   4.665   7.769 -0.5700  0.2490 -0.6385
   16SAPS   H9X 2099   0.509   4.592   7.717  0.8554 -0.5728 -1.3553
   16SAPS   H9Y 2100   0.529   4.766   7.777 -0.3520  0.2723  0.4314
   16SAPS  C310 2101   0.595   4.629   7.919  0.2840 -0.3637  0.2982
   16SAPS  H10X 2102   0.699   4.659   7.942  0.4278  2.3737 -3.1662
   16SAPS  H10Y 2103   0.597   4.518   7.929  2.8192 -0.2624  1.8299
   16SAPS  C311 2104   0.486   4.691   8.006  0.0145 -0.4116  0.1774
   16SAPS  H11X 2105   0.389   4.642   7.982 -0.2668 -0.1234  0.7065
   16SAPS  H11Y 2106   0.476   4.799   7.983 -0.7904 -0.4500  0.3221
   16SAPS  C312 2107   0.523   4.709   8.161  0.3131 -0.2094  0.1657
   16SAPS  H12X 2108   0.447   4.771   8.213 -2.1588 -3.2328  0.4521
   16SAPS  H12Y 2109   0.623   4.757   8.163  1.0491 -1.6666 -0.2722
   16SAPS  C313 2110   0.530   4.577   8.244  1.0603 -0.4857  0.0923
   16SAPS  H13X 2111   0.613   4.518   8.200  3.6851  0.6059  3.1764
   16SAPS  H13Y 2112   0.440   4.513   8.231  0.9074  0.0785 -1.8961
   16SAPS  C314 2113   0.566   4.613   8.391  1.6221  0.4359  0.0020
   16SAPS  H14X 2114   0.479   4.638   8.454 -0.8341 -3.6717 -1.3967
   16SAPS  H14Y 2115   0.638   4.696   8.371  2.6495 -0.5026 -0.3029
   16SAPS  C315 2116   0.645   4.497   8.458  0.0272 -0.0796  0.1902
   16SAPS  H15X 2117   0.702   4.447   8.377 -0.7330 -3.0707  1.3622
   16SAPS  H15Y 2118   0.576   4.419   8.497  0.6517 -0.4904  0.4901
   16SAPS  C316 2119   0.726   4.544   8.581 -0.4450 -0.2599  0.0028
   16SAPS  H16X 2120   0.788   4.634   8.560 -0.8738  0.0742  0.1669
   16SAPS  H16Y 2121   0.789   4.456   8.605 -1.9754 -1.8210 -1.4473
   16SAPS  C317 2122   0.646   4.578   8.705  0.7022 -0.3611  0.3750
   16SAPS  H17X 2123   0.587   4.672   8.694 -0.5921 -1.1416  0.4023
   16SAPS  H17Y 2124   0.718   4.610   8.783  1.5710 -1.6280  0.1077
   16SAPS  C318 2125   0.555   4.475   8.771 -0.0151 -0.2864 -0.8527
   16SAPS  H18X 2126   0.527   4.507   8.873  1.9657  0.7448 -0.5816
   16SAPS  H18Y 2127   0.611   4.379   8.779  0.8343  0.2765  0.1671
   16SAPS  H18Z 2128   0.455   4.455   8.727 -0.7945 -0.4744  0.9233
   17SAPC     N 2129   4.549   6.578  10.454  0.3463 -0.2802  0.0839
   17SAPC   C12 2130   4.394   6.583  10.452 -0.8531  0.2131  0.4764
   17SAPC  H12A 2131   4.371   6.601  10.348 -0.7175  0.8676  0.5564
   17SAPC  H12B 2132   4.362   6.665  10.515 -0.0571  0.1036  1.0463
   17SAPC   C13 2133   4.601   6.465  10.375  0.9284  0.1210  1.1335
   17SAPC  H13A 2134   4.520   6.394  10.381  0.1676  0.6994 -1.1201
   17SAPC  H13B 2135   4.614   6.478  10.268  1.2919  0.6577  1.2400
   17SAPC  H13C 2136   4.691   6.433  10.425  1.4817  0.9427  0.6890
   17SAPC   C14 2137   4.601   6.713  10.398  0.4614 -0.0896 -0.2240
   17SAPC  H14A 2138   4.706   6.706  10.422  0.4244 -0.1813 -0.0902
   17SAPC  H14B 2139   4.580   6.707  10.292  0.4648  0.8660 -0.2813
   17SAPC  H14C 2140   4.557   6.799  10.446  1.5332  0.0310  0.5712
   17SAPC   C15 2141   4.582   6.568  10.595 -0.3706  0.4631 -0.2560
   17SAPC  H15A 2142   4.537   6.650  10.650 -0.4792 -0.0836  0.4801
   17SAPC  H15B 2143   4.541   6.480  10.641 -2.6056  1.5680  0.0246
   17SAPC  H15C 2144   4.689   6.579  10.607  0.0517 -0.4039 -2.8179
   17SAPC   C11 2145   4.326   6.450  10.500 -0.7345  0.2355  0.2429
   17SAPC  H11A 2146   4.223   6.467  10.537  0.1636  1.9246  2.1811
   17SAPC  H11B 2147   4.375   6.406  10.590 -2.2333 -0.8548  0.5495
   17SAPC     P 2148   4.231   6.358  10.281  0.1793 -0.1692 -0.0252
   17SAPC   O13 2149   4.124   6.256  10.280  0.4448 -0.3838 -0.3292
   17SAPC   O14 2150   4.182   6.498  10.266 -0.1304 -0.0906 -0.5117
   17SAPC   O12 2151   4.329   6.340  10.403 -0.0699 -0.0353 -0.0083
   17SAPC   O11 2152   4.328   6.322  10.158 -0.5145 -0.1891  0.0497
   17SAPC    C1 2153   4.388   6.196  10.139  0.3726  0.4720  0.2182
   17SAPC    HA 2154   4.485   6.205  10.086  1.0606 -0.2805  1.2963
   17SAPC    HB 2155   4.398   6.135  10.231 -1.4872 -2.2197 -1.2133
   17SAPC    C2 2156   4.296   6.113  10.048 -0.2724 -1.0928  0.6991
   17SAPC    HS 2157   4.197   6.111  10.097 -0.2217  2.5198  1.1932
   17SAPC   O21 2158   4.360   5.991  10.011  0.2575 -0.7383 -0.0497
   17SAPC   C21 2159   4.278   5.885   9.985 -0.0045  0.2811 -0.4247
   17SAPC   O22 2160   4.158   5.890  10.008 -0.2915  0.3074 -0.6627
   17SAPC   C22 2161   4.342   5.765   9.924  0.4972 -0.0086  0.0020
   17SAPC   H2R 2162   4.450   5.786   9.908 -0.0410  2.5044 -0.8891
   17SAPC   H2S 2163   4.306   5.684   9.991 -0.3499  0.3714  0.0180
   17SAPC    C3 2164   4.255   6.199   9.914  0.0117  0.3803 -0.2267
   17SAPC    HX 2165   4.345   6.225   9.853 -0.7271 -1.2177 -2.1350
   17SAPC    HY 2166   4.202   6.290   9.949 -0.2350  0.1231  0.0733
   17SAPC   O31 2167   4.171   6.134   9.821  0.4271  1.0743 -0.2338
   17SAPC   C31 2168   4.038   6.124   9.861 -1.1899 -0.1195  0.3993
   17SAPC   O32 2169   3.982   6.197   9.941 -0.3506 -0.0045 -0.2882
   17SAPC   C32 2170   3.960   6.016   9.787  0.3245  0.3542 -0.3376
   17SAPC   H2X 2171   3.870   5.998   9.849  0.9355  2.7585  1.4339
   17SAPC   H2Y 2172   4.019   5.922   9.790  2.2893  1.4875  3.2109
   17SAPC   C23 2173   4.296   5.736   9.778 -0.0503 -0.3723  0.2186
   17SAPC   H3R 2174   4.334   5.825   9.723 -1.8816  0.4811  0.2600
   17SAPC   H3S 2175   4.186   5.728   9.764 -0.2762 -0.3220  1.7756
   17SAPC   C24 2176   4.354   5.601   9.718 -1.0078 -0.0394 -0.3997
   17SAPC   H4R 2177   4.316   5.504   9.757  2.9083 -0.9937  1.5242
   17SAPC   H4S 2178   4.460   5.608   9.752 -1.0698 -1.9918  0.2915
   17SAPC   C25 2179   4.355   5.595   9.569 -0.3478  0.4229  0.9469
   17SAPC   H5R 2180   4.254   5.580   9.528  0.1838 -1.1365  0.0988
   17SAPC   C26 2181   4.456   5.606   9.480  0.7677  0.6660 -0.3065
   17SAPC   H6R 2182   4.428   5.611   9.374  1.4829  1.0881 -0.4750
   17SAPC   C27 2183   4.608   5.627   9.508  0.5461  0.1977  1.2361
   17SAPC   H7R 2184   4.638   5.628   9.615  2.7357 -1.8708  0.7228
   17SAPC   H7S 2185   4.631   5.732   9.478  1.3229 -0.0360  1.0017
   17SAPC   C28 2186   4.685   5.525   9.421 -0.2350 -0.5626  0.6547
   17SAPC   H8R 2187   4.683   5.423   9.462 -0.0304 -0.8866 -0.1246
   17SAPC   C29 2188   4.733   5.546   9.299  0.0151  0.0935  0.2988
   17SAPC   H9R 2189   4.778   5.462   9.244 -0.2874  0.9615 -1.3311
   17SAPC  C210 2190   4.724   5.679   9.217  0.7165 -0.4274 -0.0730
   17SAPC  H10R 2191   4.636   5.743   9.238 -0.5967 -1.9622 -0.7080
   17SAPC  H10S 2192   4.696   5.653   9.112  1.4566  1.8635 -0.8967
   17SAPC  C211 2193   4.853   5.757   9.212  0.2559 -0.4362  0.0130
   17SAPC  H11R 2194   4.886   5.782   9.314 -3.3782 -2.7554  1.9455
   17SAPC  C212 2195   4.934   5.775   9.100  0.2713  0.4151 -0.4780
   17SAPC  H12R 2196   5.038   5.802   9.127 -0.0235  0.5244  0.5534
   17SAPC  C213 2197   4.911   5.732   8.953  0.3190 -0.0481  0.1588
   17SAPC  H13R 2198   4.844   5.645   8.935 -1.1619  0.9781  0.5175
   17SAPC  H13S 2199   5.013   5.715   8.914  0.9038  3.0163  0.0671
   17SAPC  C214 2200   4.842   5.848   8.888 -0.1160  0.1186 -0.0069
   17SAPC  H14R 2201   4.851   5.940   8.946 -0.1774 -0.2650  0.6197
   17SAPC  C215 2202   4.795   5.847   8.758 -0.3124 -0.2427  0.0793
   17SAPC  H15R 2203   4.740   5.935   8.721  1.1590  1.6845  2.1977
   17SAPC  C216 2204   4.800   5.728   8.662  0.1529  0.3769  0.1436
   17SAPC  H16R 2205   4.699   5.717   8.618  0.3082 -0.1469 -0.0958
   17SAPC  H16S 2206   4.828   5.636   8.718 -0.3540  0.0893 -0.0725
   17SAPC  C217 2207   4.905   5.756   8.550 -0.4934  0.2909 -0.9236
   17SAPC  H17R 2208   4.892   5.858   8.509 -1.3991  1.5214  2.2104
   17SAPC  H17S 2209   4.875   5.687   8.467  0.6822  0.1041 -1.2138
   17SAPC  C218 2210   5.046   5.713   8.597  0.7479  0.0044  0.1803
   17SAPC  H18R 2211   5.048   5.605   8.621 -1.3889 -0.0342  0.3393
   17SAPC  H18S 2212   5.082   5.777   8.681  1.3504 -0.7455  0.5063
   17SAPC  C219 2213   5.141   5.739   8.487 -0.1312  0.7566  0.1735
   17SAPC  H19R 2214   5.122   5.697   8.386  3.4294  0.3489 -0.4803
   17SAPC  H19S 2215   5.238   5.688   8.508  0.2751  1.1011 -0.7820
   17SAPC  C220 2216   5.180   5.889   8.471 -0.8981  0.0713  0.0009
   17SAPC  H20R 2217   5.289   5.886   8.450 -0.9704 -0.2144 -0.3299
   17SAPC  H20S 2218   5.165   5.949   8.564 -3.0956  3.5172 -2.3708
   17SAPC  H20T 2219   5.123   5.937   8.389  0.7416  0.5688 -0.8934
   17SAPC   C33 2220   3.928   6.068   9.647  0.0122 -0.3437 -0.2265
   17SAPC   H3X 2221   4.021   6.103   9.596  0.8068 -0.2514  1.2187
   17SAPC   H3Y 2222   3.868   6.160   9.662  0.8532  0.1765  0.0205
   17SAPC   C34 2223   3.847   5.965   9.574 -0.7366  0.4754  0.9884
   17SAPC   H4X 2224   3.760   5.952   9.642 -1.3290  1.3120  0.4052
   17SAPC   H4Y 2225   3.898   5.866   9.583 -1.5463  0.0852  1.3238
   17SAPC   C35 2226   3.805   6.005   9.434 -0.3284  0.4756  0.8768
   17SAPC   H5X 2227   3.835   6.109   9.410  1.2044 -0.4349 -1.6300
   17SAPC   H5Y 2228   3.696   5.985   9.425 -0.2354 -2.1735  3.9268
   17SAPC   C36 2229   3.876   5.926   9.314 -0.0645 -0.1410  0.2252
   17SAPC   H6X 2230   3.824   5.962   9.223  1.4076  2.0611  0.1938
   17SAPC   H6Y 2231   3.871   5.815   9.327  1.7240 -0.3316 -0.4136
   17SAPC   C37 2232   4.028   5.953   9.310 -0.2070  0.1306 -0.3577
   17SAPC   H7X 2233   4.069   5.913   9.406 -0.4517  0.4340 -0.1258
   17SAPC   H7Y 2234   4.054   6.061   9.322 -0.1019  0.2128 -1.2527
   17SAPC   C38 2235   4.115   5.888   9.198 -0.5025 -0.2931 -0.6652
   17SAPC   H8X 2236   4.070   5.915   9.101 -1.0526 -1.8397 -0.8612
   17SAPC   H8Y 2237   4.100   5.778   9.190  0.4969 -0.6828  1.8483
   17SAPC   C39 2238   4.272   5.917   9.211  0.2387  0.1867  0.2879
   17SAPC   H9X 2239   4.307   5.854   9.295 -0.4207  1.4034  1.5207
   17SAPC   H9Y 2240   4.268   6.021   9.250 -1.7576  0.4195 -0.4231
   17SAPC  C310 2241   4.340   5.892   9.082  0.4571 -0.1004  0.0692
   17SAPC  H10X 2242   4.344   5.785   9.055  0.8465 -0.2329  0.6397
   17SAPC  H10Y 2243   4.447   5.920   9.095  0.4563 -0.2549  0.4183
   17SAPC  C311 2244   4.307   5.991   8.970  0.7767  0.6009  0.4468
   17SAPC  H11X 2245   4.331   6.090   9.017  2.6289 -0.4516  1.8647
   17SAPC  H11Y 2246   4.200   5.996   8.939  1.4271 -0.8183 -2.3074
   17SAPC  C312 2247   4.409   5.972   8.856  0.2604  0.3110 -0.2844
   17SAPC  H12X 2248   4.410   5.868   8.817 -1.5850  0.5648 -1.0817
   17SAPC  H12Y 2249   4.509   5.997   8.897  1.3548  2.0597 -3.6500
   17SAPC  C313 2250   4.384   6.060   8.740  0.3646  0.0695 -0.7567
   17SAPC  H13X 2251   4.404   6.167   8.762 -0.2676 -0.2071  1.2943
   17SAPC  H13Y 2252   4.277   6.059   8.710  0.2495  1.5030 -0.4725
   17SAPC  C314 2253   4.461   6.014   8.618  0.3027 -0.1927  0.3225
   17SAPC  H14X 2254   4.567   6.032   8.646  0.3178  1.7121 -0.7978
   17SAPC  H14Y 2255   4.436   6.085   8.536  0.8125 -0.5827 -0.1764
   17SAPC  C315 2256   4.441   5.873   8.565 -0.2317 -0.5205  0.7289
   17SAPC  H15X 2257   4.333   5.848   8.567 -0.0418 -1.5379 -0.5453
   17SAPC  H15Y 2258   4.494   5.798   8.628 -0.8222 -1.0508  0.6029
   17SAPC  C316 2259   4.499   5.856   8.422 -0.1843  0.0696 -0.1093
   17SAPC  H16X 2260   4.603   5.895   8.425  0.4847 -1.6769  1.2919
   17SAPC  H16Y 2261   4.442   5.922   8.352  0.7574  0.2781 -0.6903
   17SAPC  C317 2262   4.502   5.710   8.366  0.9657  0.2010  0.2700
   17SAPC  H17X 2263   4.406   5.667   8.403  1.4765 -0.0687  1.3088
   17SAPC  H17Y 2264   4.585   5.654   8.414  1.0252  0.0319 -0.0325
   17SAPC  C318 2265   4.519   5.690   8.214 -0.2172  0.2483  0.3093
   17SAPC  H18X 2266   4.614   5.743   8.194 -0.7912  1.3253  0.3671
   17SAPC  H18Y 2267   4.546   5.588   8.178 -1.3359  0.0678 -0.0793
   17SAPC  H18Z 2268   4.447   5.735   8.142  0.8837  1.4950 -0.0451
   18SAPC     N 2269   4.865   3.563  10.690  0.2563  0.0148  0.2516
   18SAPC   C12 2270   4.891   3.407  10.695  0.8274 -0.2446  0.5977
   18SAPC  H12A 2271   4.802   3.360  10.734 -0.0154 -0.1646 -1.1207
   18SAPC  H12B 2272   4.983   3.393  10.749  1.3566 -1.4451 -0.5827
   18SAPC   C13 2273   4.771   3.610  10.576 -0.4117 -0.2451  0.0287
   18SAPC  H13A 2274   4.761   3.718  10.580 -0.4160 -0.2145 -0.6245
   18SAPC  H13B 2275   4.808   3.588  10.477 -0.8228  0.1629 -0.2181
   18SAPC  H13C 2276   4.672   3.568  10.588 -0.6173 -0.3065 -1.6796
   18SAPC   C14 2277   4.810   3.619  10.821 -0.0676 -0.0747 -0.2784
   18SAPC  H14A 2278   4.797   3.725  10.807 -0.8757 -0.1290  0.0024
   18SAPC  H14B 2279   4.715   3.573  10.842  0.9781 -2.0377  0.3778
   18SAPC  H14C 2280   4.867   3.597  10.910 -1.3461 -1.4883  0.2262
   18SAPC   C15 2281   4.996   3.626  10.660  0.1787 -0.0975 -0.0025
   18SAPC  H15A 2282   4.990   3.731  10.633  2.0588  0.4554  1.5362
   18SAPC  H15B 2283   5.068   3.624  10.740  0.6852  0.5764 -0.4324
   18SAPC  H15C 2284   5.046   3.589  10.572  1.1202  1.8233 -0.3443
   18SAPC   C11 2285   4.932   3.335  10.566  0.3788  0.0126 -0.9584
   18SAPC  H11A 2286   4.862   3.373  10.489 -1.5507  3.1043  2.0270
   18SAPC  H11B 2287   4.915   3.226  10.571 -1.0009  0.2421  2.8091
   18SAPC     P 2288   5.177   3.277  10.606 -0.0605  0.0644  0.1376
   18SAPC   O13 2289   5.308   3.347  10.581 -0.1688 -0.3137  0.0767
   18SAPC   O14 2290   5.134   3.257  10.742 -0.3082  0.4631 -0.5725
   18SAPC   O12 2291   5.064   3.372  10.537  0.1920  0.7288  0.6392
   18SAPC   O11 2292   5.182   3.138  10.526  0.0960  0.1582 -0.1950
   18SAPC    C1 2293   5.225   3.134  10.396 -0.4371  0.1435 -0.4501
   18SAPC    HA 2294   5.321   3.186  10.378 -0.7937  0.3524 -1.9367
   18SAPC    HB 2295   5.242   3.025  10.378  0.1088  0.1647 -0.0598
   18SAPC    C2 2296   5.112   3.177  10.293 -0.2235  0.5570  0.1375
   18SAPC    HS 2297   5.108   3.288  10.296 -0.2301  0.5291  2.4739
   18SAPC   O21 2298   4.991   3.104  10.332 -0.4692 -0.3338  0.2642
   18SAPC   C21 2299   4.887   3.164  10.266 -0.4304 -0.7939  0.4220
   18SAPC   O22 2300   4.879   3.287  10.240 -0.0810  1.2338  0.3919
   18SAPC   C22 2301   4.776   3.064  10.219 -0.2542 -0.2905  0.1235
   18SAPC   H2R 2302   4.833   2.970  10.238 -0.8761 -0.9044 -0.9183
   18SAPC   H2S 2303   4.695   3.068  10.294 -0.8207 -0.6359 -0.4626
   18SAPC    C3 2304   5.166   3.133  10.151 -0.2327 -0.0054  0.5406
   18SAPC    HX 2305   5.193   3.025  10.156  0.8140  0.2500  0.7258
   18SAPC    HY 2306   5.263   3.187  10.141  0.0416 -0.3740  1.1626
   18SAPC   O31 2307   5.083   3.179  10.041 -0.0684 -0.0104 -0.0672
   18SAPC   C31 2308   5.102   3.109   9.934 -0.2963 -0.4884  0.3439
   18SAPC   O32 2309   5.177   3.011   9.929 -0.5142  0.5467  0.1514
   18SAPC   C32 2310   5.017   3.157   9.822 -0.1744 -0.7806  0.6816
   18SAPC   H2X 2311   4.966   3.251   9.854  0.0874 -0.2401 -0.4295
   18SAPC   H2Y 2312   4.937   3.086   9.792 -0.5288 -0.0758 -0.0856
   18SAPC   C23 2313   4.742   3.089  10.068  0.0910  0.3211 -0.0571
   18SAPC   H3R 2314   4.838   3.090  10.012 -0.5365 -0.2254 -1.1744
   18SAPC   H3S 2315   4.705   3.194  10.057  1.8852  1.1230  1.2439
   18SAPC   C24 2316   4.648   2.979  10.018 -0.0676  0.1304  0.2910
   18SAPC   H4R 2317   4.575   3.017   9.943 -0.2583 -0.2290  0.2885
   18SAPC   H4S 2318   4.583   2.931  10.095  0.0092 -0.0140  0.2658
   18SAPC   C25 2319   4.726   2.862   9.952 -0.3572 -0.8454  0.0920
   18SAPC   H5R 2320   4.781   2.789  10.012  1.6742 -0.1017 -0.7632
   18SAPC   C26 2321   4.737   2.838   9.823  0.4582  0.0505 -0.0424
   18SAPC   H6R 2322   4.806   2.765   9.779  0.0949  0.2705 -1.0002
   18SAPC   C27 2323   4.683   2.922   9.715  0.9516 -0.3598 -0.5171
   18SAPC   H7R 2324   4.765   2.946   9.643  0.1286  0.1200 -1.3194
   18SAPC   H7S 2325   4.664   3.027   9.748  2.5293  0.2005 -1.2694
   18SAPC   C28 2326   4.564   2.861   9.651  0.0160  0.7275 -0.0167
   18SAPC   H8R 2327   4.504   2.784   9.701 -1.8557  1.6082 -0.8219
   18SAPC   C29 2328   4.526   2.900   9.521 -0.6163  0.2444 -0.9047
   18SAPC   H9R 2329   4.441   2.843   9.483  0.2906 -2.2410  0.6023
   18SAPC  C210 2330   4.599   2.993   9.423 -0.0380 -0.5189 -0.9888
   18SAPC  H10R 2331   4.638   3.077   9.484  1.2748 -2.0095  0.3330
   18SAPC  H10S 2332   4.529   3.027   9.343 -0.5298  0.7706 -0.0407
   18SAPC  C211 2333   4.710   2.915   9.345 -0.3617 -1.1890  1.2186
   18SAPC  H11R 2334   4.814   2.930   9.378  0.0419  0.1291 -0.5234
   18SAPC  C212 2335   4.684   2.823   9.252  0.1562  0.2140  0.1386
   18SAPC  H12R 2336   4.775   2.785   9.203  0.2414  1.8342 -1.0516
   18SAPC  C213 2337   4.548   2.789   9.199 -0.2060  0.9412 -0.3816
   18SAPC  H13R 2338   4.487   2.878   9.170 -1.1026  1.0523  1.7005
   18SAPC  H13S 2339   4.487   2.751   9.283 -0.3219  0.3454 -0.7300
   18SAPC  C214 2340   4.557   2.670   9.103  0.9020 -0.1493  0.0807
   18SAPC  H14R 2341   4.605   2.581   9.147 -0.5944 -0.0632  2.0174
   18SAPC  C215 2342   4.537   2.677   8.970  0.6201  0.4334  0.2050
   18SAPC  H15R 2343   4.542   2.589   8.903  0.3518  1.5183 -1.3044
   18SAPC  C216 2344   4.484   2.795   8.902 -0.4091 -0.4703  0.6696
   18SAPC  H16R 2345   4.528   2.812   8.801  1.1489  1.8583  1.6602
   18SAPC  H16S 2346   4.520   2.890   8.946 -0.0146 -0.3939  0.1883
   18SAPC  C217 2347   4.333   2.806   8.894  0.1175  0.0419 -0.3510
   18SAPC  H17R 2348   4.280   2.788   8.990  1.4668 -1.0037  0.2250
   18SAPC  H17S 2349   4.297   2.732   8.818 -1.8896  0.9214 -0.3377
   18SAPC  C218 2350   4.298   2.952   8.850 -0.8926  0.1372 -0.0790
   18SAPC  H18R 2351   4.262   2.950   8.745 -0.9889 -0.2113 -0.0397
   18SAPC  H18S 2352   4.390   3.013   8.857  0.1424 -1.3212 -0.6018
   18SAPC  C219 2353   4.202   3.005   8.960  0.3924  0.7762  0.6919
   18SAPC  H19R 2354   4.225   2.997   9.069  1.4997  0.3137  0.4342
   18SAPC  H19S 2355   4.112   2.941   8.948  0.6241  0.4761  0.5481
   18SAPC  C220 2356   4.167   3.151   8.932  0.1915 -0.4228  0.0800
   18SAPC  H20R 2357   4.116   3.166   8.835  0.7467  1.6186  0.0622
   18SAPC  H20S 2358   4.243   3.231   8.937 -2.5504  2.3255  1.3553
   18SAPC  H20T 2359   4.086   3.182   9.003  1.1090 -0.7003  1.2863
   18SAPC   C33 2360   5.103   3.212   9.701 -0.1283  0.4336 -0.0207
   18SAPC   H3X 2361   5.200   3.261   9.726  1.5285 -1.9390 -1.3710
   18SAPC   H3Y 2362   5.035   3.277   9.643 -0.1434  0.6553  0.2378
   18SAPC   C34 2363   5.143   3.085   9.622 -0.4095  0.4234 -0.5727
   18SAPC   H4X 2364   5.065   3.007   9.627  0.3897 -0.2916  1.8901
   18SAPC   H4Y 2365   5.235   3.035   9.659 -0.7964 -0.3833 -0.6912
   18SAPC   C35 2366   5.165   3.120   9.471  0.9195  0.0420  0.2688
   18SAPC   H5X 2367   5.245   3.195   9.456 -0.0595  0.4848 -4.2103
   18SAPC   H5Y 2368   5.077   3.176   9.432  1.0602 -0.5892 -1.0171
   18SAPC   C36 2369   5.157   2.986   9.392 -0.0172  0.4102  0.4016
   18SAPC   H6X 2370   5.070   2.926   9.426  0.9970 -0.2646  1.8945
   18SAPC   H6Y 2371   5.244   2.926   9.425 -0.7061 -0.6116  0.4098
   18SAPC   C37 2372   5.143   3.017   9.238 -0.3287  0.0990  1.0937
   18SAPC   H7X 2373   5.216   3.096   9.211  1.1141 -1.3190  0.7131
   18SAPC   H7Y 2374   5.037   3.048   9.226 -0.1726  0.4096  0.4599
   18SAPC   C38 2375   5.155   2.896   9.148 -0.1722  0.1973  0.4263
   18SAPC   H8X 2376   5.101   2.811   9.196 -0.4604 -0.3814 -0.8959
   18SAPC   H8Y 2377   5.260   2.861   9.135  0.5256  2.4429 -0.6195
   18SAPC   C39 2378   5.101   2.916   9.001  0.2451  0.0134  0.6064
   18SAPC   H9X 2379   5.126   2.823   8.946 -1.4811  0.5260 -1.1295
   18SAPC   H9Y 2380   5.138   3.009   8.952  0.3766 -0.3089  0.0870
   18SAPC  C310 2381   4.943   2.907   8.994 -0.4944  0.0852 -0.2491
   18SAPC  H10X 2382   4.901   3.000   9.038  1.6427  1.4783 -0.9987
   18SAPC  H10Y 2383   4.910   2.817   9.050 -0.9641 -0.0539 -0.7417
   18SAPC  C311 2384   4.883   2.898   8.857 -0.1532  0.5515 -0.5637
   18SAPC  H11X 2385   4.773   2.894   8.870 -0.2975  0.2562 -1.7565
   18SAPC  H11Y 2386   4.919   2.808   8.803 -0.2502  0.0837  0.1424
   18SAPC  C312 2387   4.929   3.017   8.769 -0.4458 -0.4472 -0.2097
   18SAPC  H12X 2388   5.039   3.023   8.758 -0.2848 -1.7681  0.5664
   18SAPC  H12Y 2389   4.898   3.116   8.809 -1.9621 -0.4830 -1.2215
   18SAPC  C313 2390   4.885   3.005   8.621 -0.2465 -0.1950 -0.1298
   18SAPC  H13X 2391   4.775   3.015   8.615 -0.5067 -1.0130  2.2410
   18SAPC  H13Y 2392   4.897   2.898   8.592  1.0882 -0.1917  0.3339
   18SAPC  C314 2393   4.950   3.108   8.528  0.0637 -0.2160  0.4745
   18SAPC  H14X 2394   5.057   3.081   8.514 -0.1482 -0.1039 -1.6632
   18SAPC  H14Y 2395   4.940   3.213   8.561  1.8060  0.5157 -1.1531
   18SAPC  C315 2396   4.888   3.090   8.389 -0.6706  1.7726  0.2727
   18SAPC  H15X 2397   4.777   3.097   8.394 -0.8249  0.1825 -0.3858
   18SAPC  H15Y 2398   4.926   2.993   8.352 -0.3361  1.6059  1.0292
   18SAPC  C316 2399   4.922   3.192   8.283 -0.2173  0.7713 -0.0377
   18SAPC  H16X 2400   4.886   3.287   8.329 -3.5745 -1.8796  3.4645
   18SAPC  H16Y 2401   4.873   3.166   8.187  0.3710 -1.2924  0.1754
   18SAPC  C317 2402   5.077   3.210   8.262 -0.8533  0.1081  0.0031
   18SAPC  H17X 2403   5.115   3.248   8.360 -1.0260 -0.7499  0.4121
   18SAPC  H17Y 2404   5.104   3.284   8.184  0.1625 -0.0709  0.1703
   18SAPC  C318 2405   5.154   3.081   8.220 -0.7665  0.2121  0.2156
   18SAPC  H18X 2406   5.118   3.039   8.123 -0.7474 -2.3026  1.2232
   18SAPC  H18Y 2407   5.136   3.006   8.299  0.1943  0.8381  1.0562
   18SAPC  H18Z 2408   5.263   3.105   8.213 -0.5478 -1.0812 -1.4912
   19SAPC     N 2409   3.754   6.833  10.826 -0.1073  0.2090 -0.2137
   19SAPC   C12 2410   3.844   6.838  10.705  0.0518 -0.9614 -0.5167
   19SAPC  H12A 2411   3.918   6.761  10.724  1.6602  0.7202  0.4627
   19SAPC  H12B 2412   3.900   6.930  10.696 -1.1584 -0.2621 -1.1090
   19SAPC   C13 2413   3.827   6.868  10.950 -0.2813 -0.4112  0.4381
   19SAPC  H13A 2414   3.903   6.800  10.985 -0.4310 -0.9286 -0.2405
   19SAPC  H13B 2415   3.882   6.959  10.931  0.4590 -1.0035 -0.3617
   19SAPC  H13C 2416   3.756   6.888  11.029 -0.0321  2.2499  0.1038
   19SAPC   C14 2417   3.636   6.922  10.814  0.0583 -0.6065  0.0340
   19SAPC  H14A 2418   3.654   7.027  10.833 -0.7225 -0.3486 -0.6107
   19SAPC  H14B 2419   3.596   6.917  10.714 -0.4924  1.4250  0.1048
   19SAPC  H14C 2420   3.566   6.882  10.886  0.7028 -2.3129 -0.2400
   19SAPC   C15 2421   3.708   6.696  10.851  0.2366 -0.3981  0.2002
   19SAPC  H15A 2422   3.785   6.621  10.867 -0.1512 -1.2077 -1.5236
   19SAPC  H15B 2423   3.648   6.703  10.940 -1.0107  1.6360 -0.7315
   19SAPC  H15C 2424   3.644   6.670  10.768  0.2628  2.1301 -0.6962
   19SAPC   C11 2425   3.776   6.822  10.563 -0.0716 -0.0394 -0.5819
   19SAPC  H11A 2426   3.844   6.834  10.476  1.7149  3.0154  1.0414
   19SAPC  H11B 2427   3.706   6.908  10.557  1.2688  1.0452 -1.4745
   19SAPC     P 2428   3.757   6.571  10.494  0.7306 -0.3087  0.5210
   19SAPC   O13 2429   3.901   6.568  10.527 -0.5618  0.1066 -0.2520
   19SAPC   O14 2430   3.676   6.452  10.527 -0.5402  0.4470 -0.0686
   19SAPC   O12 2431   3.699   6.699  10.566  0.7763 -0.7391 -0.4225
   19SAPC   O11 2432   3.738   6.607  10.341  0.6326 -0.0471  0.0040
   19SAPC    C1 2433   3.618   6.677  10.297 -0.3772 -0.2416  1.2645
   19SAPC    HA 2434   3.529   6.611  10.306 -1.4352  1.0204  0.3928
   19SAPC    HB 2435   3.619   6.774  10.352 -0.2805  0.6263 -0.2318
   19SAPC    C2 2436   3.631   6.729  10.152 -0.7453  0.2691 -0.4536
   19SAPC    HS 2437   3.536   6.781  10.126 -0.4620  1.5886  0.9744
   19SAPC   O21 2438   3.648   6.616  10.070 -0.2677  0.4506  0.4185
   19SAPC   C21 2439   3.550   6.535  10.046  0.0541 -0.2393  0.4395
   19SAPC   O22 2440   3.431   6.556  10.077 -0.2167  0.0540 -0.2271
   19SAPC   C22 2441   3.598   6.433   9.948  0.4820  0.2114 -0.0264
   19SAPC   H2R 2442   3.702   6.402   9.972  0.0936 -0.8005  0.3828
   19SAPC   H2S 2443   3.541   6.340   9.968 -1.4435  1.2392 -0.4638
   19SAPC    C3 2444   3.748   6.834  10.140  0.3883  0.1797 -0.0420
   19SAPC    HX 2445   3.846   6.809  10.186  0.2865 -0.1476 -0.0002
   19SAPC    HY 2446   3.706   6.918  10.199  0.7836  0.2617  0.1243
   19SAPC   O31 2447   3.771   6.877  10.003  0.0811  0.1143 -0.0527
   19SAPC   C31 2448   3.868   6.802   9.942 -0.0739 -0.5922 -0.3849
   19SAPC   O32 2449   3.936   6.718   9.994  0.4006 -0.4985 -0.2035
   19SAPC   C32 2450   3.876   6.846   9.795  0.0940  0.3408  0.0248
   19SAPC   H2X 2451   3.797   6.791   9.740  1.5108 -3.4672  1.4735
   19SAPC   H2Y 2452   3.970   6.803   9.755 -0.6896 -0.7202 -0.7608
   19SAPC   C23 2453   3.599   6.481   9.804 -0.0294  0.5634  0.0086
   19SAPC   H3R 2454   3.664   6.570   9.794 -0.9016  0.9877 -2.9988
   19SAPC   H3S 2455   3.495   6.492   9.765 -0.5175 -0.8103  0.8446
   19SAPC   C24 2456   3.658   6.377   9.699  0.4640  0.5640  0.0068
   19SAPC   H4R 2457   3.587   6.292   9.708 -1.1765  2.0588  3.0040
   19SAPC   H4S 2458   3.757   6.354   9.745 -0.2147 -2.1708  0.2822
   19SAPC   C25 2459   3.688   6.434   9.560  0.5505  0.2013 -0.1337
   19SAPC   H5R 2460   3.773   6.504   9.557  1.1611 -0.4590  1.0044
   19SAPC   C26 2461   3.634   6.392   9.444 -0.4156 -0.2600  0.0875
   19SAPC   H6R 2462   3.667   6.441   9.352 -2.2835  2.1391  0.5949
   19SAPC   C27 2463   3.521   6.287   9.432 -0.4359  0.5336 -0.0942
   19SAPC   H7R 2464   3.448   6.306   9.514  0.9386 -1.9551  1.8462
   19SAPC   H7S 2465   3.552   6.182   9.448 -1.2427  0.0526 -1.4877
   19SAPC   C28 2466   3.449   6.302   9.299 -0.0750  0.1678  0.0714
   19SAPC   H8R 2467   3.353   6.354   9.309 -1.2882 -2.3333  3.6279
   19SAPC   C29 2468   3.490   6.246   9.177  0.3091 -0.4488  1.0240
   19SAPC   H9R 2469   3.428   6.272   9.090 -1.2689  1.2127  2.5394
   19SAPC  C210 2470   3.601   6.166   9.133  0.0122 -0.1297  0.4671
   19SAPC  H10R 2471   3.676   6.154   9.214  2.3088  1.1312 -1.3403
   19SAPC  H10S 2472   3.651   6.238   9.064 -1.0960  0.7072  0.5215
   19SAPC  C211 2473   3.570   6.040   9.059  0.5446  0.4668 -0.1467
   19SAPC  H11R 2474   3.565   5.953   9.126 -1.4031  0.5964 -0.0582
   19SAPC  C212 2475   3.532   6.034   8.930 -0.0539  0.1537  0.6859
   19SAPC  H12R 2476   3.517   5.932   8.892 -0.1320  0.7805 -1.0391
   19SAPC  C213 2477   3.516   6.146   8.829 -0.5367  0.0990  0.7818
   19SAPC  H13R 2478   3.561   6.109   8.735 -0.6710  3.5614 -0.8112
   19SAPC  H13S 2479   3.573   6.237   8.858  0.2540 -1.1761  3.5045
   19SAPC  C214 2480   3.368   6.179   8.806  0.0184  0.1321 -0.6574
   19SAPC  H14R 2481   3.297   6.108   8.851  1.5424  0.0948  1.8616
   19SAPC  C215 2482   3.321   6.296   8.765 -0.7049 -0.0815  0.1038
   19SAPC  H15R 2483   3.214   6.301   8.741 -0.4492  0.4829 -0.9884
   19SAPC  C216 2484   3.407   6.421   8.731  0.3610 -0.5906  0.5586
   19SAPC  H16R 2485   3.516   6.401   8.745  0.1108 -1.0841  1.8722
   19SAPC  H16S 2486   3.386   6.506   8.800  0.0886 -0.0247 -0.2077
   19SAPC  C217 2487   3.396   6.470   8.580 -0.0657 -0.0441  0.2822
   19SAPC  H17R 2488   3.437   6.402   8.503 -0.2167  1.4831 -1.1976
   19SAPC  H17S 2489   3.449   6.567   8.581 -1.3270  0.6646  0.3228
   19SAPC  C218 2490   3.258   6.494   8.537  0.3201 -0.2529  0.5777
   19SAPC  H18R 2491   3.199   6.400   8.535 -0.1699  0.0444 -1.2231
   19SAPC  H18S 2492   3.261   6.532   8.432 -0.2363  0.0974  0.6818
   19SAPC  C219 2493   3.178   6.594   8.623  0.1301  0.1176  0.7883
   19SAPC  H19R 2494   3.234   6.683   8.658  1.7029 -0.7758  0.5965
   19SAPC  H19S 2495   3.141   6.543   8.715 -0.2861 -2.0100 -0.4901
   19SAPC  C220 2496   3.062   6.645   8.541  0.0220  0.2826 -0.7797
   19SAPC  H20R 2497   3.003   6.557   8.508  0.3731 -0.9436  1.6762
   19SAPC  H20S 2498   3.093   6.701   8.450 -0.7629  0.9673 -0.6389
   19SAPC  H20T 2499   2.995   6.707   8.604 -0.8334  0.0313 -1.4140
   19SAPC   C33 2500   3.869   7.002   9.778 -0.1998 -0.6493 -0.0887
   19SAPC   H3X 2501   3.893   7.059   9.870 -1.3507 -2.1247  1.1891
   19SAPC   H3Y 2502   3.767   7.044   9.763  0.9824  2.2440 -0.7006
   19SAPC   C34 2503   3.958   7.061   9.668 -0.0756 -0.2920 -0.4478
   19SAPC   H4X 2504   4.061   7.035   9.699  0.7371  1.4063 -1.5607
   19SAPC   H4Y 2505   3.947   7.172   9.666 -2.5818 -0.3394  2.5978
   19SAPC   C35 2506   3.922   7.023   9.526  0.5902 -0.0393 -0.8791
   19SAPC   H5X 2507   3.814   7.003   9.512 -0.4160  3.8078  0.2540
   19SAPC   H5Y 2508   3.968   6.925   9.501 -0.6178 -0.6991 -0.5975
   19SAPC   C36 2509   3.979   7.114   9.418 -0.4520 -0.0469  0.1748
   19SAPC   H6X 2510   4.089   7.105   9.406 -0.3645  1.5988 -0.5003
   19SAPC   H6Y 2511   3.937   7.215   9.437 -0.6694 -0.0625 -0.2066
   19SAPC   C37 2512   3.948   7.070   9.272  0.2971 -0.7908 -0.4112
   19SAPC   H7X 2513   3.837   7.067   9.265  0.0537  3.9757 -1.9017
   19SAPC   H7Y 2514   3.991   6.969   9.252  0.3836 -0.8862  0.2515
   19SAPC   C38 2515   3.994   7.163   9.159 -0.5327  0.4299  0.0394
   19SAPC   H8X 2516   4.104   7.164   9.149 -0.6863  0.4090 -2.5938
   19SAPC   H8Y 2517   3.972   7.269   9.183  1.4568  0.5199  1.7101
   19SAPC   C39 2518   3.950   7.113   9.018  0.3414 -0.3306  0.1238
   19SAPC   H9X 2519   3.839   7.110   9.010  0.2965  2.5468 -1.6082
   19SAPC   H9Y 2520   3.980   7.006   9.010  0.6573 -0.4124  1.9023
   19SAPC  C310 2521   4.004   7.206   8.914 -0.3347 -0.1918 -0.1681
   19SAPC  H10X 2522   3.968   7.170   8.815 -4.2282 -0.1806  1.0724
   19SAPC  H10Y 2523   4.115   7.198   8.922 -0.3900  0.2715  1.4511
   19SAPC  C311 2524   3.946   7.358   8.920 -0.1580  0.1168 -0.4166
   19SAPC  H11X 2525   4.007   7.421   8.988 -1.2581  0.5894  0.1527
   19SAPC  H11Y 2526   3.849   7.350   8.975 -0.7493  1.4560 -1.2257
   19SAPC  C312 2527   3.944   7.427   8.786 -0.2430 -0.7427 -0.8537
   19SAPC  H12X 2528   3.855   7.390   8.730 -0.5894  1.0193 -1.5243
   19SAPC  H12Y 2529   4.031   7.392   8.727  1.2056 -0.5585  1.0554
   19SAPC  C313 2530   3.945   7.586   8.801  0.5256  0.2187 -0.2077
   19SAPC  H13X 2531   4.045   7.630   8.823  0.6167 -0.3347  0.5397
   19SAPC  H13Y 2532   3.879   7.603   8.889  0.2307  2.5086 -0.8119
   19SAPC  C314 2533   3.883   7.655   8.685  0.0616 -1.4090  0.2014
   19SAPC  H14X 2534   3.820   7.739   8.722  0.2105 -2.3445  2.8075
   19SAPC  H14Y 2535   3.810   7.590   8.633 -0.3005 -2.2225  1.6827
   19SAPC  C315 2536   3.984   7.700   8.580 -0.6371  0.6637 -0.0555
   19SAPC  H15X 2537   4.046   7.620   8.536  0.4150  1.3237  0.1856
   19SAPC  H15Y 2538   4.055   7.766   8.633 -0.0341  0.8119 -1.0271
   19SAPC  C316 2539   3.923   7.785   8.468 -0.1705  0.4635  0.3878
   19SAPC  H16X 2540   3.880   7.881   8.505  1.0096  0.2961  2.3570
   19SAPC  H16Y 2541   3.836   7.727   8.433  0.2413  0.6165 -0.9508
   19SAPC  C317 2542   4.026   7.828   8.360  0.4393  0.7774  0.5188
   19SAPC  H17X 2543   3.969   7.869   8.274 -0.1876  0.5626  0.8298
   19SAPC  H17Y 2544   4.078   7.740   8.317 -0.9998  0.7993 -1.4034
   19SAPC  C318 2545   4.143   7.919   8.391  0.1355 -0.1210 -0.1519
   19SAPC  H18X 2546   4.175   7.881   8.490 -0.3636 -0.9587 -0.3108
   19SAPC  H18Y 2547   4.116   8.027   8.388  0.9974  0.0910 -1.3810
   19SAPC  H18Z 2548   4.231   7.901   8.325 -2.0383 -1.4097 -2.9098
   20SAPC     N 2549   5.666   2.875  11.214  0.1580 -0.5573 -1.1169
   20SAPC   C12 2550   5.705   2.794  11.092  0.0843 -0.6031 -0.8481
   20SAPC  H12A 2551   5.811   2.800  11.073 -0.2052  1.9910 -2.0708
   20SAPC  H12B 2552   5.658   2.831  11.002  2.7991 -0.2209 -2.2300
   20SAPC   C13 2553   5.521   2.862  11.254  0.5048 -0.2407  0.1307
   20SAPC  H13A 2554   5.448   2.902  11.185 -0.3431 -0.0498  1.1017
   20SAPC  H13B 2555   5.482   2.762  11.247 -1.6325  0.4722  0.9910
   20SAPC  H13C 2556   5.499   2.899  11.353  1.0724 -0.3803  0.3095
   20SAPC   C14 2557   5.736   2.831  11.344 -0.5407  0.1052 -1.0858
   20SAPC  H14A 2558   5.733   2.724  11.355  1.2652  0.2346  1.5247
   20SAPC  H14B 2559   5.838   2.865  11.335 -0.1676  0.3624  2.5770
   20SAPC  H14C 2560   5.675   2.877  11.420 -2.7487 -0.9917 -2.1181
   20SAPC   C15 2561   5.708   3.015  11.193  0.1920 -0.1936 -0.4355
   20SAPC  H15A 2562   5.816   3.019  11.183  0.1185 -0.7761 -1.5582
   20SAPC  H15B 2563   5.678   3.052  11.096  1.7331  0.2372 -0.7755
   20SAPC  H15C 2564   5.669   3.081  11.269 -1.0120  0.7757 -1.8231
   20SAPC   C11 2565   5.664   2.642  11.095 -0.3338 -0.7532  0.0454
   20SAPC  H11A 2566   5.708   2.597  11.187  2.4941  1.8438  0.1135
   20SAPC  H11B 2567   5.724   2.608  11.008 -0.1004  0.8292 -0.4437
   20SAPC     P 2568   5.426   2.636  10.975  0.0423 -0.6891  0.2836
   20SAPC   O13 2569   5.350   2.514  10.952  0.5344 -0.0532 -0.0316
   20SAPC   O14 2570   5.349   2.762  10.987 -0.6651  0.0655  0.1349
   20SAPC   O12 2571   5.527   2.620  11.101  1.4017 -0.5469 -0.0396
   20SAPC   O11 2572   5.521   2.639  10.850  0.0867 -0.2759 -0.1346
   20SAPC    C1 2573   5.577   2.519  10.793 -0.2851 -0.1958 -0.3902
   20SAPC    HA 2574   5.688   2.527  10.795 -0.3169  1.8278 -2.3023
   20SAPC    HB 2575   5.557   2.428  10.852  1.7762  0.3975  1.3321
   20SAPC    C2 2576   5.542   2.502  10.641  0.4220 -0.0493 -0.1427
   20SAPC    HS 2577   5.571   2.404  10.600  0.2914 -1.2543  2.4204
   20SAPC   O21 2578   5.601   2.611  10.570 -0.2918 -0.0499  0.3965
   20SAPC   C21 2579   5.700   2.582  10.480  0.5816  0.0760 -0.1853
   20SAPC   O22 2580   5.759   2.470  10.468 -0.4169 -0.0534 -0.0790
   20SAPC   C22 2581   5.733   2.710  10.398 -0.2509  0.9415  0.4033
   20SAPC   H2R 2582   5.791   2.786  10.455  2.5611 -1.0917  0.4525
   20SAPC   H2S 2583   5.810   2.678  10.325 -2.4494  0.9437 -2.0505
   20SAPC    C3 2584   5.391   2.532  10.620  0.0182  0.2808  0.1743
   20SAPC    HX 2585   5.387   2.638  10.654  0.3997  0.0039  1.1183
   20SAPC    HY 2586   5.337   2.461  10.686  1.8372 -0.1198  1.2948
   20SAPC   O31 2587   5.354   2.521  10.485  0.1659 -0.7169  0.1288
   20SAPC   C31 2588   5.278   2.621  10.432  0.1659 -0.2957 -0.0282
   20SAPC   O32 2589   5.247   2.720  10.494  0.4919 -0.0827 -0.0255
   20SAPC   C32 2590   5.244   2.591  10.280  0.5112 -0.1804 -0.1397
   20SAPC   H2X 2591   5.258   2.482  10.263 -1.0588 -0.2694 -1.1004
   20SAPC   H2Y 2592   5.320   2.644  10.219 -1.1087  1.0522 -1.1988
   20SAPC   C23 2593   5.605   2.773  10.343  0.7674  0.1226  0.1194
   20SAPC   H3R 2594   5.548   2.812  10.430 -0.0191 -1.7489  0.4839
   20SAPC   H3S 2595   5.534   2.707  10.288 -1.1106  3.3221 -1.5828
   20SAPC   C24 2596   5.637   2.896  10.254  0.1246 -0.2088 -0.1785
   20SAPC   H4R 2597   5.715   2.855  10.186  1.7525 -0.0669  1.4999
   20SAPC   H4S 2598   5.702   2.971  10.304  0.0673  0.5906 -1.2576
   20SAPC   C25 2599   5.518   2.945  10.174 -0.1006  0.0277  0.2958
   20SAPC   H5R 2600   5.433   2.876  10.177  0.0053 -0.2747  5.2032
   20SAPC   C26 2601   5.514   3.057  10.107 -0.8748 -0.6911 -0.2212
   20SAPC   H6R 2602   5.429   3.078  10.040 -1.9786  0.7222  1.5388
   20SAPC   C27 2603   5.632   3.152  10.109 -0.9490 -0.8397 -0.0320
   20SAPC   H7R 2604   5.694   3.127  10.021 -0.8336  1.9141 -0.8072
   20SAPC   H7S 2605   5.700   3.146  10.196  2.5014  2.2135 -2.2511
   20SAPC   C28 2606   5.592   3.301  10.111  0.1146  0.0693 -0.0441
   20SAPC   H8R 2607   5.563   3.334  10.212  0.7084  1.3046 -0.2704
   20SAPC   C29 2608   5.599   3.393  10.011 -0.0333 -0.5871 -0.1540
   20SAPC   H9R 2609   5.572   3.499  10.024 -1.2648 -0.8501 -0.4355
   20SAPC  C210 2610   5.652   3.349   9.877 -0.2265  0.4836  0.0956
   20SAPC  H10R 2611   5.749   3.295   9.884  0.5898  1.8180 -0.5278
   20SAPC  H10S 2612   5.682   3.446   9.833 -1.2288  1.6977  1.9162
   20SAPC  C211 2613   5.563   3.264   9.792 -0.7070  0.0398 -0.4465
   20SAPC  H11R 2614   5.535   3.165   9.830 -2.2295  0.2660 -0.9173
   20SAPC  C212 2615   5.516   3.305   9.674  0.4215 -0.2696 -0.0110
   20SAPC  H12R 2616   5.436   3.241   9.633  0.1974 -0.5124  0.7903
   20SAPC  C213 2617   5.531   3.443   9.612 -0.1559  0.3040 -0.1513
   20SAPC  H13R 2618   5.637   3.461   9.583 -0.2906  0.0855 -0.7867
   20SAPC  H13S 2619   5.513   3.524   9.686  0.3401  0.9737 -0.7512
   20SAPC  C214 2620   5.432   3.453   9.504 -0.0776  0.1471 -0.0739
   20SAPC  H14R 2621   5.349   3.514   9.544 -0.2675 -1.4591  2.1781
   20SAPC  C215 2622   5.441   3.429   9.374 -0.2657 -0.3162  0.1867
   20SAPC  H15R 2623   5.360   3.436   9.299  0.7163  0.1551 -0.8568
   20SAPC  C216 2624   5.567   3.379   9.321  0.3004  0.4931  0.6361
   20SAPC  H16R 2625   5.552   3.273   9.288  1.3588  0.3346  0.6275
   20SAPC  H16S 2626   5.648   3.369   9.395 -0.1296 -1.4517  0.9061
   20SAPC  C217 2627   5.617   3.451   9.193  0.3786 -0.7956 -0.2480
   20SAPC  H17R 2628   5.711   3.407   9.154 -0.1183 -1.5962 -0.5588
   20SAPC  H17S 2629   5.627   3.558   9.221  1.5958 -0.6766 -1.0669
   20SAPC  C218 2630   5.526   3.461   9.067 -0.1853 -0.3102 -0.3133
   20SAPC  H18R 2631   5.543   3.563   9.025 -0.2690 -0.2246 -0.1386
   20SAPC  H18S 2632   5.417   3.453   9.082  0.3318 -2.1553  3.3963
   20SAPC  C219 2633   5.573   3.361   8.964 -0.1629  0.3850 -0.2592
   20SAPC  H19R 2634   5.589   3.269   9.025  0.5583 -0.0957 -1.1464
   20SAPC  H19S 2635   5.669   3.395   8.921 -0.3238  1.1647 -0.0191
   20SAPC  C220 2636   5.467   3.343   8.853 -0.1526 -0.0675  0.0851
   20SAPC  H20R 2637   5.509   3.285   8.768 -0.7809 -1.2725  0.5742
   20SAPC  H20S 2638   5.451   3.445   8.812 -2.3834 -0.0485  0.9026
   20SAPC  H20T 2639   5.372   3.301   8.892 -1.7655  1.9750 -1.4295
   20SAPC   C33 2640   5.106   2.640  10.243  0.6512  0.4844  0.0220
   20SAPC   H3X 2641   5.094   2.748  10.266  2.5978  0.8129 -0.2770
   20SAPC   H3Y 2642   5.037   2.593  10.316  1.4647  0.6913  0.9570
   20SAPC   C34 2643   5.071   2.604  10.098 -0.0097  0.4062 -0.4085
   20SAPC   H4X 2644   4.964   2.629  10.082 -0.2002 -0.4874 -0.5505
   20SAPC   H4Y 2645   5.089   2.494  10.095  0.3220  0.4123  0.7873
   20SAPC   C35 2646   5.145   2.675   9.988  0.8895 -0.9872  0.4134
   20SAPC   H5X 2647   5.251   2.643   9.995  0.8519 -1.0821  0.5494
   20SAPC   H5Y 2648   5.132   2.784  10.003 -3.6127 -1.2094 -0.3719
   20SAPC   C36 2649   5.080   2.638   9.855 -0.1274 -0.3228  0.3756
   20SAPC   H6X 2650   4.972   2.663   9.865 -0.2253  0.7457 -2.4229
   20SAPC   H6Y 2651   5.092   2.527   9.861  0.8286 -0.1482  2.8279
   20SAPC   C37 2652   5.147   2.697   9.738  0.1433 -0.1528 -0.6525
   20SAPC   H7X 2653   5.256   2.680   9.749  0.0699 -0.0865  0.2569
   20SAPC   H7Y 2654   5.132   2.807   9.751 -0.4536 -0.0715 -1.8231
   20SAPC   C38 2655   5.094   2.640   9.606 -0.3740 -0.0752  0.1374
   20SAPC   H8X 2656   5.131   2.537   9.587 -0.9614 -0.1461 -0.7002
   20SAPC   H8Y 2657   5.131   2.699   9.519 -0.3549 -1.7148 -1.0112
   20SAPC   C39 2658   4.945   2.622   9.587  0.4416 -0.9980 -0.4986
   20SAPC   H9X 2659   4.892   2.719   9.597  1.4210 -0.2792 -1.8798
   20SAPC   H9Y 2660   4.906   2.542   9.652  2.8771 -1.2264  0.7963
   20SAPC  C310 2661   4.896   2.581   9.440 -0.3247  0.0272  0.1347
   20SAPC  H10X 2662   4.961   2.642   9.374 -0.5319 -0.6157 -0.6725
   20SAPC  H10Y 2663   4.789   2.610   9.430 -0.1748  0.9905  1.1224
   20SAPC  C311 2664   4.931   2.432   9.403  0.2442  0.6566  0.2467
   20SAPC  H11X 2665   4.853   2.360   9.434  0.6172  0.3136  0.3868
   20SAPC  H11Y 2666   5.026   2.393   9.444 -0.2723 -1.8184 -0.7133
   20SAPC  C312 2667   4.968   2.414   9.248  0.5182 -0.0954 -0.3315
   20SAPC  H12X 2668   4.973   2.305   9.233  0.7207 -0.2320  0.6346
   20SAPC  H12Y 2669   5.067   2.461   9.229 -0.2549  1.9624  0.3795
   20SAPC  C313 2670   4.868   2.473   9.148 -0.1968  0.4483  0.6700
   20SAPC  H13X 2671   4.848   2.581   9.166  0.3677  0.4102  1.6072
   20SAPC  H13Y 2672   4.771   2.422   9.167  0.3973  0.2623  3.8133
   20SAPC  C314 2673   4.909   2.449   8.997  0.1585 -0.2943 -1.4358
   20SAPC  H14X 2674   4.924   2.341   9.013 -0.5401 -0.1826  0.1791
   20SAPC  H14Y 2675   5.007   2.500   8.988  0.8350 -0.9000  1.4581
   20SAPC  C315 2676   4.805   2.470   8.882  0.0460 -0.4540  0.0780
   20SAPC  H15X 2677   4.779   2.577   8.871 -1.4709 -0.6295  1.6331
   20SAPC  H15Y 2678   4.717   2.406   8.904  0.2951 -1.5246 -1.8021
   20SAPC  C316 2679   4.860   2.416   8.739 -0.1811 -0.4922 -0.4224
   20SAPC  H16X 2680   4.836   2.308   8.732  0.3057 -0.6632  0.4591
   20SAPC  H16Y 2681   4.970   2.423   8.728 -0.3298 -1.4616 -3.3428
   20SAPC  C317 2682   4.799   2.502   8.619 -0.3566  0.4734  0.3096
   20SAPC  H17X 2683   4.749   2.594   8.656 -1.9274  0.7711 -2.2812
   20SAPC  H17Y 2684   4.717   2.440   8.576  1.0768 -0.7484 -0.7911
   20SAPC  C318 2685   4.894   2.546   8.509 -0.9233  0.5785 -0.3789
   20SAPC  H18X 2686   4.843   2.574   8.414  2.2600  0.8063 -2.1563
   20SAPC  H18Y 2687   4.968   2.465   8.492 -1.4878 -0.4589  1.7250
   20SAPC  H18Z 2688   4.945   2.636   8.551 -0.5541 -0.4081  1.3648
   21SAPC     N 2689   4.543   2.595  10.950  0.6656  0.7367 -0.8543
   21SAPC   C12 2690   4.490   2.521  10.830 -0.4333 -0.2455 -0.1343
   21SAPC  H12A 2691   4.394   2.562  10.802  0.4425  1.0858 -1.2907
   21SAPC  H12B 2692   4.470   2.417  10.856 -1.8675 -0.3554 -1.5262
   21SAPC   C13 2693   4.436   2.583  11.060  0.4046  0.4134  0.3000
   21SAPC  H13A 2694   4.414   2.479  11.078 -0.4342  0.7734  1.5846
   21SAPC  H13B 2695   4.461   2.640  11.149 -3.1124  2.8118 -0.0002
   21SAPC  H13C 2696   4.342   2.621  11.022 -0.8329 -0.9300  1.8276
   21SAPC   C14 2697   4.663   2.536  11.014  0.3536 -0.7619 -0.0457
   21SAPC  H14A 2698   4.653   2.432  11.040  0.0003 -0.4113  1.2606
   21SAPC  H14B 2699   4.739   2.540  10.937 -0.8567  0.0846 -1.2554
   21SAPC  H14C 2700   4.701   2.597  11.094  0.4980 -0.0294 -0.6621
   21SAPC   C15 2701   4.569   2.744  10.921  0.9377 -0.4810 -0.3660
   21SAPC  H15A 2702   4.478   2.802  10.914  0.7214 -0.7473  0.1823
   21SAPC  H15B 2703   4.621   2.779  11.009 -4.1374  1.1036  2.4022
   21SAPC  H15C 2704   4.643   2.760  10.843  0.4171 -0.5796 -0.8878
   21SAPC   C11 2705   4.589   2.524  10.709  0.4863  0.0047 -0.7344
   21SAPC  H11A 2706   4.596   2.623  10.660  2.0380  0.2663 -0.0360
   21SAPC  H11B 2707   4.526   2.467  10.637  0.3914 -2.3899  1.1018
   21SAPC     P 2708   4.719   2.301  10.737 -0.0445 -0.2301 -0.3129
   21SAPC   O13 2709   4.861   2.260  10.720 -0.6145  0.1714 -0.5441
   21SAPC   O14 2710   4.644   2.242  10.853 -0.6269  0.0422 -0.1964
   21SAPC   O12 2711   4.713   2.456  10.724 -0.2795 -0.1996 -0.1852
   21SAPC   O11 2712   4.642   2.258  10.609 -0.4082 -0.1126 -0.3529
   21SAPC    C1 2713   4.644   2.131  10.547  0.1391  0.2004 -0.1077
   21SAPC    HA 2714   4.744   2.101  10.510  1.0725 -0.5507  2.7607
   21SAPC    HB 2715   4.613   2.040  10.604 -0.5665  1.6592  1.9609
   21SAPC    C2 2716   4.553   2.133  10.424 -0.7164 -0.2754 -0.0298
   21SAPC    HS 2717   4.549   2.038  10.367 -0.8009  1.6664 -3.4908
   21SAPC   O21 2718   4.598   2.241  10.333  0.0143 -0.1560  0.2275
   21SAPC   C21 2719   4.688   2.199  10.245  0.1002 -0.0616  0.0859
   21SAPC   O22 2720   4.736   2.086  10.248 -0.6700  0.5257 -0.0315
   21SAPC   C22 2721   4.719   2.306  10.142  0.4979  0.2385 -0.6789
   21SAPC   H2R 2722   4.780   2.391  10.179  1.5214 -0.5942 -0.4050
   21SAPC   H2S 2723   4.785   2.257  10.066  1.7833  2.0976 -0.8257
   21SAPC    C3 2724   4.401   2.152  10.480  0.1131 -0.5156 -0.5236
   21SAPC    HX 2725   4.410   2.249  10.533  1.7479 -0.8059 -0.1988
   21SAPC    HY 2726   4.392   2.070  10.554  1.1359 -0.6394 -0.5186
   21SAPC   O31 2727   4.296   2.144  10.382 -0.4280  0.2099 -0.0216
   21SAPC   C31 2728   4.271   2.257  10.328  0.2411 -0.1736 -0.0074
   21SAPC   O32 2729   4.313   2.367  10.354  0.5807 -0.4778 -0.5322
   21SAPC   C32 2730   4.157   2.238  10.227 -0.3442  0.7718 -0.6318
   21SAPC   H2X 2731   4.128   2.342  10.201 -0.3354  0.9044 -0.1227
   21SAPC   H2Y 2732   4.065   2.187  10.262  0.8386 -1.7329 -0.9385
   21SAPC   C23 2733   4.594   2.366  10.070 -0.3685 -0.1450 -0.9938
   21SAPC   H3R 2734   4.521   2.405  10.144 -0.9627 -0.9068 -1.1627
   21SAPC   H3S 2735   4.549   2.285  10.009 -2.6585  0.4156 -0.1311
   21SAPC   C24 2736   4.634   2.476   9.971 -0.2012  0.2198  0.4918
   21SAPC   H4R 2737   4.669   2.569  10.020 -1.3905  0.6088  0.6336
   21SAPC   H4S 2738   4.551   2.515   9.908  2.5293  0.6664 -3.1727
   21SAPC   C25 2739   4.739   2.429   9.870  0.4840 -0.3797  0.1128
   21SAPC   H5R 2740   4.845   2.447   9.893 -0.0857  1.6768  1.3252
   21SAPC   C26 2741   4.717   2.392   9.739  0.0058 -0.1396 -0.7941
   21SAPC   H6R 2742   4.799   2.347   9.681 -0.3970 -0.8830 -0.8118
   21SAPC   C27 2743   4.573   2.366   9.692 -0.1935 -0.2660 -0.3526
   21SAPC   H7R 2744   4.511   2.355   9.783  2.3934 -2.6241  1.3015
   21SAPC   H7S 2745   4.562   2.269   9.638 -1.6690 -0.9296  1.0778
   21SAPC   C28 2746   4.528   2.480   9.602  0.5772  0.1007 -0.1101
   21SAPC   H8R 2747   4.499   2.572   9.655 -0.7004 -1.2694  1.7037
   21SAPC   C29 2748   4.508   2.485   9.468 -0.5342 -0.1481  0.2169
   21SAPC   H9R 2749   4.492   2.589   9.436  0.4327 -0.2422 -0.6231
   21SAPC  C210 2750   4.538   2.377   9.365 -0.1109  0.9821  0.2245
   21SAPC  H10R 2751   4.619   2.309   9.399  0.8725  0.3586 -3.0271
   21SAPC  H10S 2752   4.579   2.424   9.273  1.4483 -0.9154 -0.1070
   21SAPC  C211 2753   4.416   2.291   9.352 -0.0602  0.0837  0.0601
   21SAPC  H11R 2754   4.375   2.242   9.441 -1.7008 -0.6427 -1.0569
   21SAPC  C212 2755   4.388   2.244   9.226 -0.2694 -0.2538 -0.9935
   21SAPC  H12R 2756   4.292   2.190   9.222 -0.9151  0.8497 -0.8816
   21SAPC  C213 2757   4.458   2.271   9.096  0.1613  0.2902 -0.0224
   21SAPC  H13R 2758   4.554   2.216   9.096 -0.1583 -0.2952  1.1325
   21SAPC  H13S 2759   4.483   2.379   9.090  0.3493  0.2274 -0.3634
   21SAPC  C214 2760   4.376   2.222   8.978  0.3040 -0.3674 -0.6694
   21SAPC  H14R 2761   4.394   2.118   8.945  1.8351  0.3566 -2.3106
   21SAPC  C215 2762   4.288   2.297   8.905  0.6887 -0.0425  1.1568
   21SAPC  H15R 2763   4.226   2.248   8.828 -0.8644 -1.0009  2.9193
   21SAPC  C216 2764   4.249   2.441   8.929 -0.0526  0.4774 -0.7030
   21SAPC  H16R 2765   4.274   2.510   8.845 -0.6882  2.4583  0.6632
   21SAPC  H16S 2766   4.302   2.470   9.023  1.7414 -0.1137 -1.4856
   21SAPC  C217 2767   4.096   2.441   8.964  0.0894  0.6530 -0.4741
   21SAPC  H17R 2768   4.068   2.367   9.041  2.2600  1.4980  1.2246
   21SAPC  H17S 2769   4.039   2.425   8.869  0.3854  0.2913 -0.5919
   21SAPC  C218 2770   4.053   2.571   9.029  0.4949 -0.1995 -0.2534
   21SAPC  H18R 2771   3.943   2.553   9.029  0.4799 -0.1062 -0.2757
   21SAPC  H18S 2772   4.091   2.657   8.969  0.4793  0.0699  0.1206
   21SAPC  C219 2773   4.096   2.581   9.172  0.0766  0.4890  0.4446
   21SAPC  H19R 2774   4.201   2.618   9.166  0.5155 -0.8521 -0.8213
   21SAPC  H19S 2775   4.098   2.478   9.213  1.1312 -0.3692 -1.6537
   21SAPC  C220 2776   4.008   2.679   9.257 -0.4381 -0.4232  0.2502
   21SAPC  H20R 2777   3.901   2.681   9.227 -0.7125  0.6170  1.2299
   21SAPC  H20S 2778   4.030   2.788   9.253 -1.5898 -0.2040 -0.5548
   21SAPC  H20T 2779   4.010   2.660   9.366  0.7625  1.2163  0.5620
   21SAPC   C33 2780   4.218   2.177  10.098  0.1586  0.5689  0.7412
   21SAPC   H3X 2781   4.274   2.082  10.111  0.9564  1.1164  1.4054
   21SAPC   H3Y 2782   4.294   2.247  10.059  0.0541  1.0880  1.4642
   21SAPC   C34 2783   4.111   2.156   9.994  0.5107 -0.5315 -0.5461
   21SAPC   H4X 2784   4.080   2.254   9.951  1.2144  0.3665  0.9472
   21SAPC   H4Y 2785   4.022   2.114  10.045  2.0604 -1.3959  1.5814
   21SAPC   C35 2786   4.145   2.057   9.882  0.4417  0.0356  0.1652
   21SAPC   H5X 2787   4.125   1.950   9.905 -1.0537  0.1731 -0.3573
   21SAPC   H5Y 2788   4.254   2.067   9.860  0.3051  1.3473 -0.0199
   21SAPC   C36 2789   4.053   2.094   9.763 -0.2577 -0.6017 -0.4419
   21SAPC   H6X 2790   4.097   2.187   9.720  1.0319 -0.9623  0.0511
   21SAPC   H6Y 2791   3.948   2.114   9.792 -0.2900  1.9442 -1.9558
   21SAPC   C37 2792   4.045   1.994   9.648  0.4365 -0.8487 -0.4171
   21SAPC   H7X 2793   3.953   1.932   9.652 -0.2087  0.0928 -0.2625
   21SAPC   H7Y 2794   4.127   1.920   9.661 -0.9333 -2.3032  0.1987
   21SAPC   C38 2795   4.040   2.067   9.514  0.0609  0.2743 -0.5751
   21SAPC   H8X 2796   4.141   2.109   9.495  0.3545 -0.7542 -1.3391
   21SAPC   H8Y 2797   3.957   2.140   9.499 -0.0830  0.1714 -0.2984
   21SAPC   C39 2798   4.025   1.963   9.395 -0.3720  0.0668 -0.2568
   21SAPC   H9X 2799   3.953   1.883   9.424  2.0350 -1.9831  0.3969
   21SAPC   H9Y 2800   4.124   1.912   9.398 -0.3746 -0.0825 -1.7747
   21SAPC  C310 2801   3.986   2.034   9.260 -0.0112  0.3330  0.2107
   21SAPC  H10X 2802   4.049   2.126   9.257 -0.3800  0.5707 -0.2364
   21SAPC  H10Y 2803   3.882   2.073   9.260 -0.6007 -1.0962 -1.5984
   21SAPC  C311 2804   4.001   1.954   9.128  0.2503  0.3517  0.3034
   21SAPC  H11X 2805   3.971   2.014   9.040 -0.6580  0.9834  1.0252
   21SAPC  H11Y 2806   3.931   1.867   9.134  0.9357 -0.5190 -2.6344
   21SAPC  C312 2807   4.146   1.896   9.110  0.1385  0.1026 -0.1707
   21SAPC  H12X 2808   4.174   1.818   9.185  0.4634 -0.7530 -1.1638
   21SAPC  H12Y 2809   4.226   1.974   9.116  0.3482 -0.1903  3.9102
   21SAPC  C313 2810   4.157   1.823   8.979  1.1843  1.3412  0.3506
   21SAPC  H13X 2811   4.061   1.772   8.957  1.7039  0.8074 -0.7934
   21SAPC  H13Y 2812   4.226   1.735   8.981  0.2516  0.5062 -1.6969
   21SAPC  C314 2813   4.187   1.913   8.860 -0.4031 -0.9043  0.3815
   21SAPC  H14X 2814   4.290   1.953   8.867 -0.3318 -0.9305 -0.4097
   21SAPC  H14Y 2815   4.111   1.994   8.855  1.0616  0.5144  0.3702
   21SAPC  C315 2816   4.166   1.842   8.719  0.3251 -0.8257 -0.3451
   21SAPC  H15X 2817   4.180   1.935   8.659 -0.3797 -0.6057 -0.1772
   21SAPC  H15Y 2818   4.065   1.799   8.702  0.4504 -0.5853 -1.8229
   21SAPC  C316 2819   4.270   1.739   8.688  0.8693 -0.3784 -0.1904
   21SAPC  H16X 2820   4.283   1.662   8.768  0.4722  0.6086  0.8561
   21SAPC  H16Y 2821   4.370   1.785   8.697  1.7372 -2.4653  2.2635
   21SAPC  C317 2822   4.264   1.680   8.546  0.1993  0.2088  0.4699
   21SAPC  H17X 2823   4.174   1.617   8.531  0.1142  0.6278 -0.8992
   21SAPC  H17Y 2824   4.351   1.611   8.536 -1.4872 -1.8192 -1.1285
   21SAPC  C318 2825   4.283   1.772   8.426 -0.4909 -0.1933  0.2940
   21SAPC  H18X 2826   4.386   1.812   8.437 -0.3615 -0.4085 -0.1172
   21SAPC  H18Y 2827   4.205   1.851   8.431 -2.4942 -2.0062 -0.6568
   21SAPC  H18Z 2828   4.283   1.718   8.329 -0.0169 -4.6486  2.5194
   22SAPC     N 2829   1.982   0.425  10.836 -0.1757  0.0352  0.2932
   22SAPC   C12 2830   1.999   0.513  10.718  0.5907 -0.0274 -0.3045
   22SAPC  H12A 2831   2.027   0.612  10.749 -1.0115  1.2939 -2.7806
   22SAPC  H12B 2832   1.908   0.527  10.663 -0.3697 -0.5199  1.1040
   22SAPC   C13 2833   1.958   0.280  10.802  0.2798  0.8234 -0.4209
   22SAPC  H13A 2834   1.866   0.269  10.746 -0.2260 -0.3625  0.6025
   22SAPC  H13B 2835   2.034   0.226  10.746  0.9684 -0.8943  1.9859
   22SAPC  H13C 2836   1.934   0.220  10.888 -1.3931  1.4756 -0.3967
   22SAPC   C14 2837   2.109   0.432  10.918  0.3770  0.0866 -0.2917
   22SAPC  H14A 2838   2.198   0.396  10.868  1.3474 -0.4786  1.7540
   22SAPC  H14B 2839   2.128   0.532  10.954  2.7269 -1.3193  2.8001
   22SAPC  H14C 2840   2.099   0.382  11.013  4.1911 -0.8183 -0.1969
   22SAPC   C15 2841   1.868   0.476  10.918 -0.7976 -0.6854 -0.0043
   22SAPC  H15A 2842   1.908   0.565  10.965  0.6375 -2.2016  1.8198
   22SAPC  H15B 2843   1.782   0.483  10.854 -1.8986  2.3232  1.5997
   22SAPC  H15C 2844   1.847   0.401  10.993  0.6242 -3.1045 -1.8660
   22SAPC   C11 2845   2.103   0.459  10.608  0.3373  0.5553  0.6571
   22SAPC  H11A 2846   2.077   0.499  10.507  0.8913 -1.3844 -0.3169
   22SAPC  H11B 2847   2.087   0.349  10.602 -0.7028  0.4414  3.9164
   22SAPC     P 2848   2.308   0.623  10.650 -0.2389 -0.4478  0.3257
   22SAPC   O13 2849   2.226   0.703  10.741 -0.0656  0.1889 -0.5390
   22SAPC   O14 2850   2.452   0.606  10.682  0.2110 -0.1083  0.2849
   22SAPC   O12 2851   2.238   0.478  10.637 -0.3761  0.0396 -0.2459
   22SAPC   O11 2852   2.294   0.686  10.505 -1.0858 -0.2137 -0.3562
   22SAPC    C1 2853   2.363   0.616  10.398  0.2446  0.7345  0.7654
   22SAPC    HA 2854   2.373   0.507  10.417 -1.7573  0.0866 -1.4058
   22SAPC    HB 2855   2.295   0.628  10.312 -0.6612  1.2010  1.5295
   22SAPC    C2 2856   2.512   0.661  10.377 -0.0842 -0.1563  0.1570
   22SAPC    HS 2857   2.569   0.627  10.466 -1.9802 -0.6880  1.2146
   22SAPC   O21 2858   2.521   0.810  10.372  0.1888 -0.1541  0.6079
   22SAPC   C21 2859   2.624   0.860  10.305 -0.0754 -0.8749 -0.5503
   22SAPC   O22 2860   2.733   0.809  10.299  0.6653  0.1055 -0.3702
   22SAPC   C22 2861   2.591   1.006  10.257 -0.3583  0.2049  0.7207
   22SAPC   H2R 2862   2.487   1.000  10.218  0.3356 -0.3176 -1.1807
   22SAPC   H2S 2863   2.582   1.069  10.348 -1.1382  2.3703 -0.7674
   22SAPC    C3 2864   2.565   0.593  10.241 -0.1404 -0.0229  0.5398
   22SAPC    HX 2865   2.545   0.485  10.255  0.5838 -0.2811 -0.3286
   22SAPC    HY 2866   2.674   0.602  10.226 -0.1889  3.2515  1.3062
   22SAPC   O31 2867   2.488   0.639  10.128 -0.1011 -0.0292  0.2667
   22SAPC   C31 2868   2.486   0.549  10.022  0.5410 -0.0584  0.1971
   22SAPC   O32 2869   2.548   0.447  10.026  0.0817 -0.0754  0.1477
   22SAPC   C32 2870   2.380   0.594   9.917  0.7419  0.5275  0.8007
   22SAPC   H2X 2871   2.377   0.705   9.923 -0.5749  0.4973  1.0854
   22SAPC   H2Y 2872   2.273   0.568   9.936  0.5218 -0.1820 -1.2301
   22SAPC   C23 2873   2.686   1.062  10.149 -0.0081  0.4608 -0.6272
   22SAPC   H3R 2874   2.785   1.039  10.195 -1.0237 -1.5675  0.7081
   22SAPC   H3S 2875   2.673   1.171  10.140  0.0862  0.3629 -2.1606
   22SAPC   C24 2876   2.677   1.004  10.004  0.5894  0.2231  0.1332
   22SAPC   H4R 2877   2.699   0.898   9.979 -1.0049  0.0580 -0.7137
   22SAPC   H4S 2878   2.762   1.052   9.951  0.8280  0.4642  0.7165
   22SAPC   C25 2879   2.556   1.048   9.932  0.0241  0.3092 -0.0333
   22SAPC   H5R 2880   2.469   1.059   9.998 -1.5684 -1.5484 -1.6892
   22SAPC   C26 2881   2.531   1.074   9.801 -0.3200  0.1456  0.2357
   22SAPC   H6R 2882   2.429   1.093   9.766 -0.3830  3.5769  1.8687
   22SAPC   C27 2883   2.632   1.052   9.691  0.1098 -0.0687 -0.0825
   22SAPC   H7R 2884   2.733   1.036   9.733 -0.1717  0.0824  0.6646
   22SAPC   H7S 2885   2.650   1.143   9.629 -0.3097  2.3003  3.0075
   22SAPC   C28 2886   2.586   0.925   9.624  0.2928 -0.4743  0.2452
   22SAPC   H8R 2887   2.552   0.848   9.695  1.3019 -1.8080 -0.6754
   22SAPC   C29 2888   2.587   0.901   9.491 -0.1026  0.2234  0.4875
   22SAPC   H9R 2889   2.544   0.810   9.447  0.4445 -0.0030  0.4079
   22SAPC  C210 2890   2.631   0.999   9.385 -0.2602 -0.6578  0.0222
   22SAPC  H10R 2891   2.689   0.938   9.312 -0.5215  0.7987 -1.4634
   22SAPC  H10S 2892   2.685   1.088   9.425  0.9991 -1.6794  0.6831
   22SAPC  C211 2893   2.497   1.059   9.331 -0.6452  0.7320 -0.1675
   22SAPC  H11R 2894   2.448   1.137   9.391 -0.3602  0.7003  0.1043
   22SAPC  C212 2895   2.447   1.022   9.213  0.0166 -0.4635 -0.4934
   22SAPC  H12R 2896   2.353   1.067   9.180 -0.6209 -0.9871  0.5638
   22SAPC  C213 2897   2.502   0.928   9.115  0.1070 -0.7203  0.2193
   22SAPC  H13R 2898   2.413   0.906   9.052 -1.8034 -0.6131  2.7218
   22SAPC  H13S 2899   2.508   0.833   9.173 -0.6807 -0.0924  1.3557
   22SAPC  C214 2900   2.628   0.971   9.037 -0.4174  0.3533 -0.3367
   22SAPC  H14R 2901   2.724   0.954   9.088 -0.5589 -0.9264 -0.4592
   22SAPC  C215 2902   2.631   1.036   8.911 -0.2085 -0.4488  0.0651
   22SAPC  H15R 2903   2.724   1.052   8.854 -0.0587  0.1981  0.4787
   22SAPC  C216 2904   2.506   1.076   8.839 -0.2897  0.0205  0.6694
   22SAPC  H16R 2905   2.507   1.185   8.820  0.6102 -0.0585  0.2349
   22SAPC  H16S 2906   2.425   1.082   8.916 -0.5320  0.7135  0.3659
   22SAPC  C217 2907   2.466   1.002   8.708  0.2562 -0.0228  0.7125
   22SAPC  H17R 2908   2.539   1.044   8.636  0.0885  3.2008  2.2381
   22SAPC  H17S 2909   2.370   1.034   8.662  0.9761  1.9772  0.4769
   22SAPC  C218 2910   2.489   0.846   8.724  0.2038 -0.3061 -0.9190
   22SAPC  H18R 2911   2.421   0.805   8.801 -0.1303 -1.1424 -1.6494
   22SAPC  H18S 2912   2.591   0.836   8.767 -0.0346  1.1511  0.0930
   22SAPC  C219 2913   2.477   0.779   8.587 -0.0991  0.7564  0.2524
   22SAPC  H19R 2914   2.548   0.825   8.515 -0.2562  0.5609 -0.0318
   22SAPC  H19S 2915   2.381   0.805   8.537  1.2282  3.3453 -1.1653
   22SAPC  C220 2916   2.501   0.629   8.589 -0.1639 -0.5981 -0.5877
   22SAPC  H20R 2917   2.502   0.586   8.486  0.7524  1.1844 -1.3801
   22SAPC  H20S 2918   2.413   0.587   8.643  0.3650  0.1022  0.8677
   22SAPC  H20T 2919   2.590   0.606   8.651 -0.1948 -0.8477 -0.6319
   22SAPC   C33 2920   2.431   0.554   9.780 -0.1066 -0.5800 -0.5323
   22SAPC   H3X 2921   2.423   0.443   9.776 -0.0246 -0.7000  1.4998
   22SAPC   H3Y 2922   2.529   0.602   9.760 -0.2844 -0.7674 -1.9331
   22SAPC   C34 2923   2.334   0.620   9.680  0.0591  0.9615 -0.4545
   22SAPC   H4X 2924   2.337   0.731   9.681  1.8686  0.9348  0.8800
   22SAPC   H4Y 2925   2.228   0.588   9.689  0.5007 -0.5291 -0.3134
   22SAPC   C35 2926   2.370   0.575   9.535 -0.1529 -0.3422 -0.5656
   22SAPC   H5X 2927   2.376   0.464   9.529  0.4250 -0.2810 -1.3207
   22SAPC   H5Y 2928   2.472   0.613   9.510  0.1870 -2.2514 -2.3449
   22SAPC   C36 2929   2.289   0.647   9.429 -0.7651 -0.6499  0.0250
   22SAPC   H6X 2930   2.311   0.756   9.423  1.3986 -0.9925  0.9071
   22SAPC   H6Y 2931   2.183   0.636   9.460 -0.7259 -0.4255  0.2498
   22SAPC   C37 2932   2.304   0.585   9.291 -0.0058  0.6709  0.2290
   22SAPC   H7X 2933   2.272   0.478   9.287 -0.0974  0.7309 -2.2954
   22SAPC   H7Y 2934   2.409   0.575   9.257  0.0412 -1.1604  0.7816
   22SAPC   C38 2935   2.230   0.666   9.183 -0.8347  0.7664 -0.0581
   22SAPC   H8X 2936   2.246   0.775   9.197 -0.9975  0.5292  2.3760
   22SAPC   H8Y 2937   2.120   0.651   9.197 -0.9049 -0.8160 -1.8621
   22SAPC   C39 2938   2.252   0.623   9.041 -0.2321 -0.2283 -0.3854
   22SAPC   H9X 2939   2.360   0.595   9.033  0.2665  0.7837  1.8986
   22SAPC   H9Y 2940   2.230   0.702   8.966 -0.3327 -1.3432 -1.5683
   22SAPC  C310 2941   2.155   0.507   9.001  0.1131  0.0962  0.3102
   22SAPC  H10X 2942   2.048   0.537   9.002  0.6157  2.2262 -1.5003
   22SAPC  H10Y 2943   2.169   0.419   9.068  1.0248 -0.0758 -0.0948
   22SAPC  C311 2944   2.162   0.451   8.858  0.2092  0.0368  0.8429
   22SAPC  H11X 2945   2.083   0.373   8.859 -0.1745  0.4038  2.3324
   22SAPC  H11Y 2946   2.265   0.415   8.838  0.1233 -1.1799  2.4102
   22SAPC  C312 2947   2.116   0.554   8.753  0.1186 -0.1767  0.5711
   22SAPC  H12X 2948   2.195   0.631   8.765  0.3599 -0.7473  3.4748
   22SAPC  H12Y 2949   2.012   0.582   8.779 -1.1096 -1.1665 -2.7499
   22SAPC  C313 2950   2.108   0.495   8.612 -0.6284 -0.0778 -0.0772
   22SAPC  H13X 2951   2.039   0.408   8.624  0.0528 -0.6534 -0.2718
   22SAPC  H13Y 2952   2.203   0.455   8.572 -0.9037 -2.2886  1.3255
   22SAPC  C314 2953   2.035   0.584   8.513 -0.3415 -0.6358  0.6434
   22SAPC  H14X 2954   2.100   0.674   8.499  1.5672 -2.0930 -0.3782
   22SAPC  H14Y 2955   1.952   0.629   8.571 -0.2947  0.0852  0.1732
   22SAPC  C315 2956   1.991   0.519   8.385  0.1190 -0.1499 -0.4073
   22SAPC  H15X 2957   1.916   0.442   8.415 -0.2290  0.3374  0.0066
   22SAPC  H15Y 2958   2.066   0.460   8.328  1.0867 -1.3928  2.0144
   22SAPC  C316 2959   1.918   0.612   8.289 -0.4445 -0.7648  0.2864
   22SAPC  H16X 2960   1.996   0.679   8.249  0.4987 -0.6666  2.1755
   22SAPC  H16Y 2961   1.859   0.688   8.345  1.3346  0.1603  0.9972
   22SAPC  C317 2962   1.843   0.530   8.187 -0.0504  0.3786 -0.0359
   22SAPC  H17X 2963   1.775   0.594   8.128 -0.6566 -0.1229  0.1147
   22SAPC  H17Y 2964   1.790   0.447   8.238  1.9867 -1.2464 -0.3988
   22SAPC  C318 2965   1.926   0.456   8.080  0.1088  0.4334  0.1840
   22SAPC  H18X 2966   1.853   0.423   8.002 -1.7571 -1.3727  2.5459
   22SAPC  H18Y 2967   1.978   0.370   8.127 -1.0946 -0.6154 -0.3528
   22SAPC  H18Z 2968   2.008   0.517   8.036  0.1288  0.1852 -0.1291
   23SAPC     N 2969   6.423   1.175  11.310  0.3527  0.4498 -0.1241
   23SAPC   C12 2970   6.276   1.202  11.283  0.1531  0.4163  0.4481
   23SAPC  H12A 2971   6.241   1.267  11.362  0.0740  0.0350  0.7292
   23SAPC  H12B 2972   6.230   1.105  11.277 -1.4466  1.2205 -1.4044
   23SAPC   C13 2973   6.477   1.076  11.210  0.4991  0.1148 -0.1208
   23SAPC  H13A 2974   6.585   1.064  11.205  0.3128 -1.4616 -2.1471
   23SAPC  H13B 2975   6.434   0.977  11.214  0.4827 -0.1124 -3.0939
   23SAPC  H13C 2976   6.452   1.120  11.114  0.2793  0.6637  0.1864
   23SAPC   C14 2977   6.497   1.300  11.294  0.3427  0.0433  0.2861
   23SAPC  H14A 2978   6.602   1.282  11.275  0.5546  0.4088  1.1185
   23SAPC  H14B 2979   6.469   1.347  11.201 -2.0470 -0.4783  0.6756
   23SAPC  H14C 2980   6.490   1.362  11.381 -0.4060  1.4375 -0.7275
   23SAPC   C15 2981   6.439   1.121  11.446 -0.1552 -0.5168 -0.5200
   23SAPC  H15A 2982   6.544   1.103  11.464  0.7041  3.8298 -0.1158
   23SAPC  H15B 2983   6.402   1.185  11.523 -2.9018 -0.1355 -2.0418
   23SAPC  H15C 2984   6.379   1.033  11.467 -0.5727 -0.5136 -1.5917
   23SAPC   C11 2985   6.244   1.278  11.150 -0.2650 -1.1042  0.0547
   23SAPC  H11A 2986   6.273   1.385  11.161 -0.3223 -0.8345 -1.9869
   23SAPC  H11B 2987   6.133   1.279  11.141 -0.2560  0.0552 -0.0085
   23SAPC     P 2988   6.379   1.295  10.925 -0.0589  0.1467 -0.6390
   23SAPC   O13 2989   6.460   1.404  10.986  0.1254 -0.2353  0.6152
   23SAPC   O14 2990   6.455   1.198  10.848 -0.0496  0.6455  0.8966
   23SAPC   O12 2991   6.309   1.215  11.039  0.3689 -0.4886  0.1152
   23SAPC   O11 2992   6.275   1.371  10.839  0.0849  0.4569  0.2738
   23SAPC    C1 2993   6.141   1.324  10.822 -0.2150 -0.3376 -0.0165
   23SAPC    HA 2994   6.126   1.215  10.835 -1.4517 -0.1493  0.3264
   23SAPC    HB 2995   6.068   1.383  10.883 -0.5031  0.7133 -1.3185
   23SAPC    C2 2996   6.093   1.353  10.681 -0.0448 -0.1568 -0.1463
   23SAPC    HS 2997   6.004   1.296  10.649 -0.3412  0.0676  0.2725
   23SAPC   O21 2998   6.199   1.329  10.588 -0.1872 -0.0547  0.7957
   23SAPC   C21 2999   6.241   1.205  10.566 -0.4124  0.2196  0.3044
   23SAPC   O22 3000   6.202   1.099  10.612 -0.8645  0.8158  0.3796
   23SAPC   C22 3001   6.366   1.217  10.470 -0.2612 -0.0966  1.2817
   23SAPC   H2R 3002   6.395   1.114  10.442 -2.1884 -0.7370  1.4589
   23SAPC   H2S 3003   6.323   1.263  10.378 -1.7422 -1.4006  1.2715
   23SAPC    C3 3004   6.055   1.494  10.662 -0.1367 -0.1032  0.3919
   23SAPC    HX 3005   6.135   1.567  10.686  0.2690  0.6159 -2.7661
   23SAPC    HY 3006   5.966   1.506  10.728 -0.3336 -0.7865  0.2635
   23SAPC   O31 3007   6.028   1.509  10.522  0.6015  0.0744 -0.1628
   23SAPC   C31 3008   5.923   1.593  10.487 -0.6971  0.0783  0.3645
   23SAPC   O32 3009   5.875   1.672  10.563 -0.7284  0.4957  0.2570
   23SAPC   C32 3010   5.899   1.593  10.336  0.6409 -0.0128 -0.1222
   23SAPC   H2X 3011   5.960   1.680  10.304 -0.5619  1.1961  0.7440
   23SAPC   H2Y 3012   5.794   1.628  10.328  0.2031 -1.1611  0.3584
   23SAPC   C23 3013   6.491   1.305  10.512  0.2698  0.7277 -0.0525
   23SAPC   H3R 3014   6.542   1.238  10.584 -0.9941 -1.7886 -1.3439
   23SAPC   H3S 3015   6.460   1.401  10.559 -0.8853  0.1451  0.4327
   23SAPC   C24 3016   6.593   1.332  10.403  0.1876  0.0728  1.1714
   23SAPC   H4R 3017   6.620   1.236  10.354 -1.7517  0.3924 -0.6434
   23SAPC   H4S 3018   6.686   1.379  10.441 -0.5781  1.0001  1.9542
   23SAPC   C25 3019   6.537   1.416  10.288  0.1795  0.1196 -0.1486
   23SAPC   H5R 3020   6.443   1.467  10.310 -1.2067 -3.2875  2.7979
   23SAPC   C26 3021   6.592   1.430  10.165 -1.0928  0.7005  0.1141
   23SAPC   H6R 3022   6.545   1.504  10.099 -2.7750 -0.8012 -0.4655
   23SAPC   C27 3023   6.721   1.370  10.125  0.3246  0.5039 -0.0967
   23SAPC   H7R 3024   6.731   1.331  10.022  1.9441  2.1104 -0.6008
   23SAPC   H7S 3025   6.751   1.286  10.191  0.8176  0.5873 -0.2168
   23SAPC   C28 3026   6.827   1.469  10.160  0.1037 -0.1517 -0.5737
   23SAPC   H8R 3027   6.838   1.485  10.268  1.0146  0.2694 -0.7260
   23SAPC   C29 3028   6.887   1.545  10.074  0.6157 -1.0197 -0.5290
   23SAPC   H9R 3029   6.960   1.613  10.120  0.3842 -1.8596  1.1780
   23SAPC  C210 3030   6.868   1.549   9.928 -0.5569  0.3509  0.2574
   23SAPC  H10R 3031   6.764   1.529   9.895 -0.6517  0.4256  0.5122
   23SAPC  H10S 3032   6.926   1.475   9.869 -1.3633  2.4685 -3.5158
   23SAPC  C211 3033   6.909   1.680   9.861 -0.0526  0.6535  1.2022
   23SAPC  H11R 3034   6.952   1.753   9.931  3.2507 -0.5464  0.5546
   23SAPC  C212 3035   6.907   1.692   9.727 -0.0364 -1.0751 -0.5281
   23SAPC  H12R 3036   6.936   1.790   9.685  0.6798  0.4533  3.1207
   23SAPC  C213 3037   6.860   1.581   9.634 -0.2394 -0.7227 -0.6523
   23SAPC  H13R 3038   6.765   1.543   9.677  1.0182 -0.4357  2.6710
   23SAPC  H13S 3039   6.928   1.494   9.648  0.8226  0.0176 -1.0421
   23SAPC  C214 3040   6.848   1.621   9.492 -0.4210  0.2625  0.4083
   23SAPC  H14R 3041   6.947   1.645   9.450 -0.0660  0.4243  1.3041
   23SAPC  C215 3042   6.738   1.642   9.419 -0.7439 -0.1359  0.1866
   23SAPC  H15R 3043   6.765   1.685   9.322  0.6954  0.7562  0.9486
   23SAPC  C216 3044   6.589   1.640   9.457 -0.6080  0.8244 -0.4745
   23SAPC  H16R 3045   6.586   1.609   9.564 -1.9044  0.5263 -0.5732
   23SAPC  H16S 3046   6.537   1.555   9.406  0.2125  1.4786 -2.5163
   23SAPC  C217 3047   6.533   1.775   9.439  0.0597 -0.4929 -0.1873
   23SAPC  H17R 3048   6.607   1.858   9.436 -0.2027 -0.2069  0.8856
   23SAPC  H17S 3049   6.481   1.807   9.531  1.0833  1.1491 -0.1290
   23SAPC  C218 3050   6.433   1.794   9.321  0.0524 -0.0661 -0.1996
   23SAPC  H18R 3051   6.388   1.695   9.297 -0.4211  0.2769 -0.7787
   23SAPC  H18S 3052   6.479   1.827   9.225  3.1297  1.0353  1.4982
   23SAPC  C219 3053   6.318   1.893   9.352 -0.4524  0.4392 -0.1937
   23SAPC  H19R 3054   6.279   1.932   9.255  1.6031  2.8724 -0.1155
   23SAPC  H19S 3055   6.363   1.984   9.397  0.3943 -0.4800  0.8812
   23SAPC  C220 3056   6.200   1.857   9.454  0.2332  0.8278  1.5921
   23SAPC  H20R 3057   6.122   1.935   9.464 -0.6722  0.4543 -1.4351
   23SAPC  H20S 3058   6.240   1.848   9.557  1.3825  0.8776  1.1677
   23SAPC  H20T 3059   6.144   1.764   9.428 -1.1279  2.0291 -0.0004
   23SAPC   C33 3060   5.932   1.465  10.266  0.4472 -0.0401 -0.3240
   23SAPC   H3X 3061   5.858   1.390  10.302  2.0583 -2.2314 -1.3205
   23SAPC   H3Y 3062   6.036   1.428  10.281  0.7175 -0.5151 -2.8263
   23SAPC   C34 3063   5.902   1.468  10.119  0.0149  0.0932 -0.4557
   23SAPC   H4X 3064   5.947   1.562  10.082 -0.8329  1.4008  1.6601
   23SAPC   H4Y 3065   5.792   1.480  10.113  0.1418  0.6659 -2.1210
   23SAPC   C35 3066   5.952   1.350  10.049 -0.9746  0.7307 -0.3490
   23SAPC   H5X 3067   5.909   1.263  10.103  2.3376 -0.3775  0.7795
   23SAPC   H5Y 3068   6.059   1.325  10.069 -2.2673 -3.8318  2.1152
   23SAPC   C36 3069   5.938   1.352   9.898  0.2978 -0.5907  0.1595
   23SAPC   H6X 3070   5.954   1.458   9.866  0.2472 -0.5902  0.1355
   23SAPC   H6Y 3071   5.841   1.317   9.857 -0.0104 -1.5664  1.6733
   23SAPC   C37 3072   6.051   1.278   9.819  0.3867  0.2043  0.3446
   23SAPC   H7X 3073   6.036   1.169   9.812  0.8714 -0.0158  2.0958
   23SAPC   H7Y 3074   6.150   1.297   9.866  1.7969 -1.8914 -1.5528
   23SAPC   C38 3075   6.057   1.323   9.676 -0.1616 -0.6947 -0.1672
   23SAPC   H8X 3076   6.085   1.430   9.663 -1.7746 -0.3960 -1.5230
   23SAPC   H8Y 3077   5.956   1.304   9.635 -0.2374 -0.7869  0.0638
   23SAPC   C39 3078   6.164   1.241   9.596 -0.1825 -0.3773 -0.1286
   23SAPC   H9X 3079   6.146   1.134   9.616 -3.3846  0.6822  4.2130
   23SAPC   H9Y 3080   6.265   1.271   9.632  0.2017 -0.0616 -1.4245
   23SAPC  C310 3081   6.152   1.253   9.442  0.0534  0.1353  0.1109
   23SAPC  H10X 3082   6.045   1.237   9.418 -0.0673  1.4949 -0.3028
   23SAPC  H10Y 3083   6.215   1.177   9.390 -0.3137  0.9286 -1.5788
   23SAPC  C311 3084   6.195   1.385   9.381 -0.2157  0.4685  0.0149
   23SAPC  H11X 3085   6.296   1.414   9.419  0.5064 -0.5949 -1.0043
   23SAPC  H11Y 3086   6.118   1.463   9.400 -2.4117 -1.6196  0.1259
   23SAPC  C312 3087   6.204   1.373   9.231 -0.1366 -0.8018 -0.0586
   23SAPC  H12X 3088   6.104   1.366   9.183 -0.6186 -0.5703  0.8720
   23SAPC  H12Y 3089   6.259   1.279   9.209 -0.7752 -0.9311 -1.1748
   23SAPC  C313 3090   6.274   1.495   9.171 -0.1151 -0.1234 -0.3989
   23SAPC  H13X 3091   6.384   1.504   9.178 -0.2475  1.1361  0.6388
   23SAPC  H13Y 3092   6.236   1.584   9.227 -3.0031  0.5264 -3.0904
   23SAPC  C314 3093   6.231   1.505   9.023  0.2827 -0.4925  0.2265
   23SAPC  H14X 3094   6.122   1.517   9.010  0.2072 -1.2334  0.1464
   23SAPC  H14Y 3095   6.274   1.414   8.974  1.8341 -0.6800  1.8027
   23SAPC  C315 3096   6.286   1.629   8.954 -1.1511  0.0447  0.0419
   23SAPC  H15X 3097   6.397   1.622   8.952 -1.0695  0.7127  1.2271
   23SAPC  H15Y 3098   6.268   1.722   9.013  1.2369 -1.4517  3.4464
   23SAPC  C316 3099   6.251   1.633   8.801  0.6512  1.0186  0.2400
   23SAPC  H16X 3100   6.241   1.531   8.757  0.9464  0.8468  0.5674
   23SAPC  H16Y 3101   6.324   1.691   8.741 -0.4945 -1.6294 -4.1490
   23SAPC  C317 3102   6.111   1.690   8.766  0.0668 -0.6934  0.0730
   23SAPC  H17X 3103   6.098   1.795   8.801  0.0686 -0.2871 -1.1106
   23SAPC  H17Y 3104   6.029   1.635   8.817 -3.6259  1.8400 -2.6708
   23SAPC  C318 3105   6.066   1.675   8.621  0.2791  0.5707 -0.0108
   23SAPC  H18X 3106   6.021   1.577   8.594 -2.5563  0.8888  2.9065
   23SAPC  H18Y 3107   6.144   1.698   8.546 -0.7705 -1.5852 -1.8703
   23SAPC  H18Z 3108   5.985   1.751   8.610 -1.7105 -1.3782  0.3832
   24SAPC     N 3109   1.107   2.033  11.282 -0.0944  0.4800  0.4822
   24SAPC   C12 3110   1.032   1.919  11.214 -0.1294  0.4312  0.0220
   24SAPC  H12A 3111   0.928   1.921  11.244  0.4300  1.8002  2.1343
   24SAPC  H12B 3112   1.064   1.827  11.262  1.1765  1.1294  0.5236
   24SAPC   C13 3113   1.038   2.166  11.255 -0.4473  0.6018  0.1361
   24SAPC  H13A 3114   1.032   2.174  11.147  0.1694  2.6617  0.2181
   24SAPC  H13B 3115   0.936   2.169  11.289 -0.6669 -0.9108 -0.2914
   24SAPC  H13C 3116   1.083   2.251  11.303 -0.3850  1.0562 -0.7083
   24SAPC   C14 3117   1.096   2.013  11.438 -0.1687 -0.2573 -0.4046
   24SAPC  H14A 3118   1.158   2.084  11.490 -0.4461 -0.0973 -0.2863
   24SAPC  H14B 3119   0.995   2.020  11.475  0.8365  0.4986  2.4055
   24SAPC  H14C 3120   1.134   1.918  11.472 -1.1944  0.6456  3.8110
   24SAPC   C15 3121   1.249   2.029  11.250 -0.6292 -1.1278  0.1712
   24SAPC  H15A 3122   1.291   1.929  11.255  1.4327 -0.2691  1.2673
   24SAPC  H15B 3123   1.265   2.055  11.147 -1.2544  0.0694  0.3550
   24SAPC  H15C 3124   1.301   2.094  11.318 -0.7613  3.0878 -3.3142
   24SAPC   C11 3125   1.050   1.905  11.063 -1.1182 -0.0146 -0.3572
   24SAPC  H11A 3126   0.999   1.821  11.013 -3.9077  1.2261  0.1861
   24SAPC  H11B 3127   1.157   1.897  11.037 -0.9171 -1.2489  0.7475
   24SAPC     P 3128   0.858   2.062  10.973 -0.2302  0.1358 -0.0335
   24SAPC   O13 3129   0.783   2.050  11.100 -0.0418  0.1170 -0.0285
   24SAPC   O14 3130   0.856   2.192  10.893 -1.3268  0.2820 -0.1694
   24SAPC   O12 3131   1.014   2.027  10.995 -0.1648  0.3848  0.2151
   24SAPC   O11 3132   0.808   1.943  10.887  0.1549  0.2845  0.4870
   24SAPC    C1 3133   0.850   1.925  10.752 -0.5215 -0.2887 -0.6024
   24SAPC    HA 3134   0.960   1.942  10.743  0.0549 -1.1869  2.9479
   24SAPC    HB 3135   0.839   1.817  10.726  3.4730 -1.3888  1.3314
   24SAPC    C2 3136   0.775   2.014  10.648  1.0060 -0.2612  0.7648
   24SAPC    HS 3137   0.787   2.120  10.681 -1.9321  0.8989 -1.4312
   24SAPC   O21 3138   0.637   1.973  10.647  0.1477 -0.6162 -0.7615
   24SAPC   C21 3139   0.552   2.073  10.621  0.1542  0.0714 -1.3281
   24SAPC   O22 3140   0.583   2.187  10.591 -0.0750 -0.0582  0.2736
   24SAPC   C22 3141   0.413   2.015  10.647 -0.5223 -0.7628 -0.1408
   24SAPC   H2R 3142   0.433   1.934  10.721  1.6380  0.1664  0.3725
   24SAPC   H2S 3143   0.347   2.097  10.680 -0.8220 -1.0412 -0.0448
   24SAPC    C3 3144   0.840   1.991  10.509  0.5822 -0.5147  0.4036
   24SAPC    HX 3145   0.815   1.884  10.492 -0.5318 -0.0843 -0.7225
   24SAPC    HY 3146   0.949   2.006  10.528  0.5119  0.6853 -0.1099
   24SAPC   O31 3147   0.791   2.068  10.404  0.2056  0.0533  0.0135
   24SAPC   C31 3148   0.806   2.199  10.403 -0.9444 -0.3278 -0.2563
   24SAPC   O32 3149   0.871   2.269  10.483 -0.1905 -0.3571  0.2392
   24SAPC   C32 3150   0.729   2.256  10.281  0.6871  0.0786  0.6801
   24SAPC   H2X 3151   0.739   2.367  10.289  0.6643  0.0104  1.7200
   24SAPC   H2Y 3152   0.621   2.234  10.296  0.2515  0.4060 -1.5691
   24SAPC   C23 3153   0.348   1.931  10.531 -0.2523 -0.1531 -0.4779
   24SAPC   H3R 3154   0.287   1.853  10.582  0.7425  0.2052  1.3598
   24SAPC   H3S 3155   0.427   1.866  10.487  0.1209 -1.4196  1.8710
   24SAPC   C24 3156   0.273   2.016  10.432 -0.3510  0.5275 -0.4493
   24SAPC   H4R 3157   0.203   2.082  10.487  0.0132 -0.1581  0.8685
   24SAPC   H4S 3158   0.203   1.949  10.378  1.1583 -1.1959 -0.3399
   24SAPC   C25 3159   0.361   2.086  10.335  0.0421  0.2675 -0.2905
   24SAPC   H5R 3160   0.432   2.155  10.384 -2.6411  2.9806  0.1184
   24SAPC   C26 3161   0.371   2.067  10.204 -0.3724  0.4598 -0.5069
   24SAPC   H6R 3162   0.428   2.132  10.136  0.1299 -1.7578 -2.3433
   24SAPC   C27 3163   0.284   1.968  10.128  0.0247  0.8769  0.0984
   24SAPC   H7R 3164   0.195   1.928  10.182  0.4987 -0.3581 -0.0143
   24SAPC   H7S 3165   0.353   1.881  10.120  1.7900  1.9911  2.1801
   24SAPC   C28 3166   0.244   2.010   9.984 -0.0190  0.4292  0.0248
   24SAPC   H8R 3167   0.142   2.053   9.978 -0.2779 -0.2419 -0.4240
   24SAPC   C29 3168   0.315   1.988   9.871  0.2768  0.2442  0.3799
   24SAPC   H9R 3169   0.275   2.023   9.775  0.2279 -0.0044  0.3067
   24SAPC  C210 3170   0.453   1.929   9.876  0.3001  0.4384 -0.7857
   24SAPC  H10R 3171   0.510   1.967   9.963 -2.1396  0.2057  1.0337
   24SAPC  H10S 3172   0.504   1.958   9.782  1.8590 -0.9232 -0.4071
   24SAPC  C211 3173   0.465   1.779   9.890  0.6631 -0.3029 -0.7458
   24SAPC  H11R 3174   0.370   1.741   9.930 -1.1421  4.5452  0.3754
   24SAPC  C212 3175   0.573   1.701   9.858 -0.3296 -0.1938 -0.2389
   24SAPC  H12R 3176   0.557   1.594   9.872 -0.7923 -0.0832  0.0665
   24SAPC  C213 3177   0.707   1.747   9.804 -0.1854 -0.2078 -0.2874
   24SAPC  H13R 3178   0.789   1.744   9.879 -0.6680  0.1448  0.2612
   24SAPC  H13S 3179   0.692   1.854   9.779 -1.0538 -0.5430 -1.2463
   24SAPC  C214 3180   0.771   1.675   9.682  0.0736  0.7501 -0.4300
   24SAPC  H14R 3181   0.723   1.581   9.649  0.3239  0.3128  0.4215
   24SAPC  C215 3182   0.878   1.714   9.616 -0.1723  0.0997  0.4346
   24SAPC  H15R 3183   0.921   1.641   9.545 -2.3921 -0.0090 -0.8822
   24SAPC  C216 3184   0.965   1.835   9.652 -0.3251 -0.9037  0.0504
   24SAPC  H16R 3185   1.068   1.803   9.679  0.0480 -1.3085 -1.7078
   24SAPC  H16S 3186   0.924   1.898   9.733  0.5695  2.0624 -1.6373
   24SAPC  C217 3187   0.990   1.924   9.532  0.1434  0.1643  0.3873
   24SAPC  H17R 3188   0.889   1.958   9.500  0.4052  2.7617  1.9825
   24SAPC  H17S 3189   1.044   1.863   9.457 -2.1558 -0.2369 -1.0526
   24SAPC  C218 3190   1.073   2.047   9.564  0.1891 -0.5691 -0.2441
   24SAPC  H18R 3191   1.174   2.014   9.598 -0.3171 -1.3845  0.4906
   24SAPC  H18S 3192   1.012   2.101   9.639 -1.4446 -1.0468 -1.1876
   24SAPC  C219 3193   1.077   2.134   9.440 -0.0331 -0.1847  0.2205
   24SAPC  H19R 3194   1.086   2.237   9.480 -1.0612 -1.0620  2.9288
   24SAPC  H19S 3195   0.983   2.109   9.386 -0.6391 -1.6717  1.8451
   24SAPC  C220 3196   1.192   2.113   9.347 -0.2369 -0.3629  1.2273
   24SAPC  H20R 3197   1.158   2.147   9.246 -0.9481 -2.9278  0.5199
   24SAPC  H20S 3198   1.224   2.009   9.325  0.7989  0.3367 -0.8718
   24SAPC  H20T 3199   1.278   2.174   9.382 -0.4520  0.2792  0.6785
   24SAPC   C33 3200   0.768   2.193  10.143 -0.4290  0.2310 -0.9201
   24SAPC   H3X 3201   0.747   2.084  10.151  0.6531  0.1050  0.4339
   24SAPC   H3Y 3202   0.878   2.200  10.131 -0.3048  0.1066  0.0777
   24SAPC   C34 3203   0.713   2.250  10.015 -0.4328 -0.2595  0.1823
   24SAPC   H4X 3204   0.757   2.349   9.992 -3.8045  1.1902 -0.6781
   24SAPC   H4Y 3205   0.607   2.268  10.041 -0.3927  0.0169  0.1543
   24SAPC   C35 3206   0.735   2.151   9.895 -0.1838 -0.5810 -0.1696
   24SAPC   H5X 3207   0.704   2.046   9.917 -1.4577 -0.8740 -2.8775
   24SAPC   H5Y 3208   0.846   2.151   9.889  0.1760 -1.8139  3.6712
   24SAPC   C36 3209   0.650   2.198   9.773 -0.3602 -0.0432 -0.0048
   24SAPC   H6X 3210   0.675   2.305   9.760  0.8196 -0.3076  0.0132
   24SAPC   H6Y 3211   0.540   2.205   9.785 -0.2673  0.4552  0.5907
   24SAPC   C37 3212   0.694   2.129   9.640 -0.1952 -0.5152 -0.1046
   24SAPC   H7X 3213   0.682   2.019   9.649 -0.4743 -0.4957 -0.2302
   24SAPC   H7Y 3214   0.805   2.140   9.633 -0.1440  0.0993  1.4525
   24SAPC   C38 3215   0.621   2.182   9.514  0.3754  0.0840 -0.1893
   24SAPC   H8X 3216   0.642   2.289   9.492  1.8932 -0.0957  0.2447
   24SAPC   H8Y 3217   0.511   2.183   9.530  0.0046 -0.1095 -2.4514
   24SAPC   C39 3218   0.651   2.103   9.386  0.2684  0.0084  0.0638
   24SAPC   H9X 3219   0.755   2.118   9.349 -0.0325 -0.5286 -1.0351
   24SAPC   H9Y 3220   0.582   2.148   9.311  0.7444  1.4317  0.4397
   24SAPC  C310 3221   0.607   1.955   9.389  0.2034  0.1016 -0.0287
   24SAPC  H10X 3222   0.689   1.891   9.428  0.0693  0.0931  0.2401
   24SAPC  H10Y 3223   0.604   1.925   9.282 -0.5236 -3.7688  0.9290
   24SAPC  C311 3224   0.468   1.932   9.446  0.5328  0.2054  0.8147
   24SAPC  H11X 3225   0.390   1.995   9.399 -1.1913 -1.0757  1.8568
   24SAPC  H11Y 3226   0.481   1.954   9.554  0.2732 -1.1563  1.1416
   24SAPC  C312 3227   0.428   1.781   9.457  0.2455 -0.1499 -0.3717
   24SAPC  H12X 3228   0.337   1.785   9.521  2.6829 -0.0392  3.3907
   24SAPC  H12Y 3229   0.504   1.730   9.520 -0.6204 -0.4559  0.4663
   24SAPC  C313 3230   0.411   1.715   9.317 -0.0477  0.5068  0.2825
   24SAPC  H13X 3231   0.359   1.617   9.321 -0.7769  0.8713  0.0494
   24SAPC  H13Y 3232   0.507   1.715   9.262  0.9174 -1.1734  1.8659
   24SAPC  C314 3233   0.308   1.801   9.231  0.4102 -0.3728  0.0552
   24SAPC  H14X 3234   0.353   1.901   9.215  0.1565  0.1076  2.0553
   24SAPC  H14Y 3235   0.220   1.816   9.298 -0.0510 -0.0858 -0.6068
   24SAPC  C315 3236   0.261   1.730   9.099 -0.2681  0.1794  0.2005
   24SAPC  H15X 3237   0.170   1.782   9.061  1.8751  2.3877 -2.3567
   24SAPC  H15Y 3238   0.220   1.630   9.123  0.8015 -0.0478  1.1709
   24SAPC  C316 3239   0.372   1.708   8.988  0.3267 -0.6965  0.0833
   24SAPC  H16X 3240   0.442   1.624   9.007  0.5944 -0.2390  1.1718
   24SAPC  H16Y 3241   0.436   1.797   9.004  1.3520 -1.4358  0.2195
   24SAPC  C317 3242   0.329   1.704   8.842 -0.2464  0.2206  0.0225
   24SAPC  H17X 3243   0.290   1.799   8.799  0.5050 -0.1344 -1.4996
   24SAPC  H17Y 3244   0.254   1.623   8.831  0.3494 -0.8179  2.6494
   24SAPC  C318 3245   0.454   1.665   8.757  0.5945  0.2110  0.1220
   24SAPC  H18X 3246   0.498   1.575   8.805  0.0614  0.0934  0.4045
   24SAPC  H18Y 3247   0.530   1.744   8.776  1.9919 -0.8447 -0.9365
   24SAPC  H18Z 3248   0.423   1.641   8.653  0.6198 -0.4020  0.2537
   25SAPC     N 3249   5.012   0.467   5.745  0.5241 -0.3487  0.5953
   25SAPC   C12 3250   4.932   0.578   5.676  0.0956 -0.0485  0.1291
   25SAPC  H12A 3251   4.826   0.560   5.685 -0.3993  0.5919 -3.1233
   25SAPC  H12B 3252   4.960   0.584   5.572 -2.4170  3.0679 -0.4973
   25SAPC   C13 3253   5.153   0.517   5.762  0.5175  0.2573 -1.0959
   25SAPC  H13A 3254   5.154   0.601   5.829  0.0875  1.1623 -2.1878
   25SAPC  H13B 3255   5.210   0.435   5.804 -1.1902 -1.3073 -1.7104
   25SAPC  H13C 3256   5.199   0.541   5.666 -1.6316  1.9728 -1.7635
   25SAPC   C14 3257   4.959   0.433   5.883  0.2311  0.3432 -0.0806
   25SAPC  H14A 3258   4.856   0.403   5.886  0.7851 -1.6288  0.7871
   25SAPC  H14B 3259   5.025   0.354   5.916  0.3317  1.2800  2.1017
   25SAPC  H14C 3260   4.970   0.519   5.947 -1.5295  0.1890  0.4647
   25SAPC   C15 3261   5.012   0.343   5.661 -0.7142 -0.1067 -0.3209
   25SAPC  H15A 3262   5.068   0.266   5.712  0.2723  0.1303 -1.0235
   25SAPC  H15B 3263   4.911   0.313   5.637 -2.1167  2.3418  1.9463
   25SAPC  H15C 3264   5.055   0.369   5.566 -0.0170 -0.4462 -0.1063
   25SAPC   C11 3265   4.965   0.724   5.727 -0.6972  0.2910  0.6800
   25SAPC  H11A 3266   4.930   0.803   5.657  2.2555  1.4822  0.4141
   25SAPC  H11B 3267   5.072   0.752   5.724 -0.7046  0.7068  2.8002
   25SAPC     P 3268   4.758   0.743   5.888  0.0205 -0.2072 -0.0239
   25SAPC   O13 3269   4.710   0.881   5.882 -0.4343 -0.6181  0.8636
   25SAPC   O14 3270   4.693   0.643   5.795 -0.0821 -0.8541 -0.0754
   25SAPC   O12 3271   4.915   0.739   5.861 -0.4323  0.6428 -0.2993
   25SAPC   O11 3272   4.743   0.683   6.028  0.3760 -0.1866  0.5419
   25SAPC    C1 3273   4.849   0.643   6.117  0.5599  0.0611 -0.7345
   25SAPC    HA 3274   4.847   0.534   6.141  1.4389 -0.2449 -1.9361
   25SAPC    HB 3275   4.954   0.655   6.081  0.1935 -2.3377 -2.9415
   25SAPC    C2 3276   4.845   0.711   6.257 -0.1052  0.3486 -0.0999
   25SAPC    HS 3277   4.780   0.643   6.315  0.6842 -0.4601 -0.1436
   25SAPC   O21 3278   4.797   0.850   6.247 -0.0228  0.2836  0.4107
   25SAPC   C21 3279   4.663   0.868   6.242 -0.7956 -0.0037 -0.3672
   25SAPC   O22 3280   4.584   0.777   6.250  0.2051 -0.4309 -0.6515
   25SAPC   C22 3281   4.629   1.014   6.272 -0.1216  0.3490  0.0655
   25SAPC   H2R 3282   4.718   1.081   6.269  1.8788 -2.1760 -0.7885
   25SAPC   H2S 3283   4.570   1.054   6.186  0.7831 -1.1260 -1.3047
   25SAPC    C3 3284   4.987   0.708   6.333  0.1892  0.8104 -0.5590
   25SAPC    HX 3285   5.067   0.757   6.274  2.3862 -2.7773 -0.8281
   25SAPC    HY 3286   5.015   0.601   6.332 -2.0677  0.1698 -2.3075
   25SAPC   O31 3287   4.985   0.752   6.469  0.1650 -0.3566 -0.1498
   25SAPC   C31 3288   5.016   0.876   6.489 -0.0009  0.0978  0.2112
   25SAPC   O32 3289   5.067   0.954   6.412 -0.1013 -0.5648 -0.2540
   25SAPC   C32 3290   4.991   0.894   6.638 -0.1354  0.1002  0.0738
   25SAPC   H2X 3291   5.050   0.813   6.687 -1.6399 -1.3557 -0.4137
   25SAPC   H2Y 3292   4.882   0.878   6.652 -0.1862  0.0082 -0.3999
   25SAPC   C23 3293   4.545   1.028   6.401 -0.1923 -0.6802 -0.0019
   25SAPC   H3R 3294   4.481   0.938   6.407 -0.7948 -0.1408  3.4758
   25SAPC   H3S 3295   4.480   1.114   6.374 -1.0887 -1.6458 -1.0193
   25SAPC   C24 3296   4.625   1.042   6.534  0.3655  0.7968 -0.2530
   25SAPC   H4R 3297   4.694   0.954   6.532 -0.9439 -0.2463 -1.3626
   25SAPC   H4S 3298   4.560   1.004   6.617  0.2944  2.3559  0.4373
   25SAPC   C25 3299   4.689   1.178   6.555  0.0290 -0.8455 -0.4749
   25SAPC   H5R 3300   4.776   1.209   6.495  0.8759 -0.1457  1.0798
   25SAPC   C26 3301   4.653   1.265   6.653 -0.2845  0.0752 -0.3425
   25SAPC   H6R 3302   4.703   1.362   6.649  0.3352 -0.2746 -2.1658
   25SAPC   C27 3303   4.549   1.249   6.756 -0.4851  0.2674  0.0466
   25SAPC   H7R 3304   4.470   1.179   6.721 -0.4277  1.6634 -3.1673
   25SAPC   H7S 3305   4.505   1.351   6.763 -1.2337  0.1050 -1.7261
   25SAPC   C28 3306   4.600   1.192   6.896  0.0506 -0.2046  1.1502
   25SAPC   H8R 3307   4.710   1.193   6.898  0.2112 -1.8545 -1.4750
   25SAPC   C29 3308   4.530   1.122   6.992  0.2836 -0.1480  0.1018
   25SAPC   H9R 3309   4.598   1.092   7.074 -0.0923 -2.7287 -0.4387
   25SAPC  C210 3310   4.385   1.097   6.995 -0.3111 -0.5710 -0.3115
   25SAPC  H10R 3311   4.356   0.991   6.975 -0.8621 -0.1037 -2.2212
   25SAPC  H10S 3312   4.331   1.161   6.922 -3.2394  0.2567  2.3467
   25SAPC  C211 3313   4.343   1.144   7.137  0.4845 -0.4808 -0.0461
   25SAPC  H11R 3314   4.289   1.240   7.141  0.2846 -0.4932 -1.5958
   25SAPC  C212 3315   4.354   1.075   7.253  0.5357 -0.3703  0.3183
   25SAPC  H12R 3316   4.318   1.122   7.346  0.4611 -2.7275  1.5731
   25SAPC  C213 3317   4.426   0.947   7.278 -0.0551 -0.5289  0.2760
   25SAPC  H13R 3318   4.505   0.979   7.349 -1.4488  1.4993  0.9810
   25SAPC  H13S 3319   4.478   0.900   7.191 -1.9421  0.2328 -1.3539
   25SAPC  C214 3320   4.355   0.831   7.340 -0.4657  0.4843 -0.0389
   25SAPC  H14R 3321   4.297   0.777   7.263 -0.2865  0.0492  0.1261
   25SAPC  C215 3322   4.372   0.771   7.463 -0.1836  0.1249 -0.0557
   25SAPC  H15R 3323   4.305   0.692   7.502 -1.0577  1.6631  1.7315
   25SAPC  C216 3324   4.468   0.824   7.572 -0.0759 -0.0261  0.7373
   25SAPC  H16R 3325   4.472   0.935   7.579 -2.1768  0.0685  1.4694
   25SAPC  H16S 3326   4.571   0.789   7.555 -0.8962 -2.6311  0.6538
   25SAPC  C217 3327   4.419   0.797   7.713 -0.0833  0.4658 -0.3362
   25SAPC  H17R 3328   4.311   0.822   7.714 -0.6006 -1.2812 -2.6577
   25SAPC  H17S 3329   4.474   0.861   7.785 -1.7165  0.9971  0.4905
   25SAPC  C218 3330   4.423   0.648   7.757  0.0768 -1.0853 -0.3077
   25SAPC  H18R 3331   4.500   0.590   7.703 -0.5053 -1.4745 -0.7346
   25SAPC  H18S 3332   4.327   0.597   7.732 -1.1088  1.7297 -1.9534
   25SAPC  C219 3333   4.452   0.635   7.908  0.0229  0.6458 -0.3551
   25SAPC  H19R 3334   4.374   0.694   7.960 -0.5343 -2.4339  2.6523
   25SAPC  H19S 3335   4.552   0.680   7.928  0.2998 -0.3902  0.6970
   25SAPC  C220 3336   4.472   0.485   7.961  0.4090 -0.2308  0.6312
   25SAPC  H20R 3337   4.391   0.422   7.918 -0.7657  1.1951  0.6812
   25SAPC  H20S 3338   4.468   0.490   8.072  0.2903  0.4375  0.6044
   25SAPC  H20T 3339   4.569   0.459   7.914  0.0530  0.3645 -0.4663
   25SAPC   C33 3340   5.029   1.033   6.694 -0.2682 -0.3681 -0.3962
   25SAPC   H3X 3341   4.966   1.099   6.632  2.0156  2.1822 -0.1970
   25SAPC   H3Y 3342   5.136   1.055   6.671 -0.1933 -2.4893 -2.4356
   25SAPC   C34 3343   4.986   1.051   6.839 -0.9600 -0.1992  0.1104
   25SAPC   H4X 3344   4.877   1.043   6.856 -0.9412  1.8357  1.5524
   25SAPC   H4Y 3345   5.014   1.151   6.876  1.2423 -0.9723  0.7059
   25SAPC   C35 3346   5.058   0.952   6.931  0.2991 -0.3560  0.1490
   25SAPC   H5X 3347   5.166   0.969   6.917 -0.0158  1.4013 -0.4056
   25SAPC   H5Y 3348   5.049   0.849   6.891  2.1775 -0.3304 -0.4308
   25SAPC   C36 3349   5.009   0.959   7.073 -0.2036  0.2547 -0.3568
   25SAPC   H6X 3350   5.049   0.867   7.120 -3.0431  0.6575  3.3398
   25SAPC   H6Y 3351   4.898   0.953   7.070 -0.3404  2.2325 -0.5354
   25SAPC   C37 3352   5.058   1.088   7.146 -0.0023 -0.3181  0.6708
   25SAPC   H7X 3353   5.057   1.177   7.079  0.3374  0.2238  1.3843
   25SAPC   H7Y 3354   5.159   1.088   7.190  1.8936 -0.5297 -3.2105
   25SAPC   C38 3355   4.976   1.110   7.271  0.0843 -0.7394 -0.0058
   25SAPC   H8X 3356   4.870   1.121   7.239  0.1771 -2.0672 -0.8439
   25SAPC   H8Y 3357   5.017   1.204   7.315 -0.7715 -0.3603  0.0025
   25SAPC   C39 3358   4.972   0.997   7.364 -0.3232 -0.4972 -0.1315
   25SAPC   H9X 3359   5.068   0.952   7.396 -1.8025 -1.3498  3.5876
   25SAPC   H9Y 3360   4.906   0.919   7.320  2.0281 -2.4934 -0.3050
   25SAPC  C310 3361   4.914   1.047   7.492  0.5550 -0.4618 -0.3852
   25SAPC  H10X 3362   4.807   1.074   7.474  1.0855  2.9851  0.8068
   25SAPC  H10Y 3363   4.962   1.143   7.520  1.7753 -1.1058 -0.2121
   25SAPC  C311 3364   4.919   0.939   7.604 -0.3478  0.3261  0.4415
   25SAPC  H11X 3365   5.019   0.893   7.614  0.6678  2.3735  0.1217
   25SAPC  H11Y 3366   4.853   0.860   7.562 -1.0757  0.4636  1.2924
   25SAPC  C312 3367   4.878   0.989   7.738  0.3487  0.2245 -0.1162
   25SAPC  H12X 3368   4.788   1.052   7.753 -0.7906 -1.8839  2.8723
   25SAPC  H12Y 3369   4.961   1.055   7.772  0.8499 -0.5802  0.2699
   25SAPC  C313 3370   4.867   0.871   7.833  0.3346  0.3883 -0.3071
   25SAPC  H13X 3371   4.960   0.813   7.848 -0.5288 -0.7106  1.0641
   25SAPC  H13Y 3372   4.792   0.806   7.783  1.2569  0.4797 -1.8705
   25SAPC  C314 3373   4.818   0.929   7.965 -0.6560  0.7628  0.3493
   25SAPC  H14X 3374   4.719   0.980   7.955 -0.0282  1.9331 -0.0663
   25SAPC  H14Y 3375   4.889   1.003   8.007 -1.2091 -0.0258  2.8423
   25SAPC  C315 3376   4.819   0.807   8.058 -0.1493  0.8969  0.1929
   25SAPC  H15X 3377   4.925   0.785   8.079 -0.4335 -0.0808  0.6397
   25SAPC  H15Y 3378   4.787   0.710   8.016  1.2873 -0.5862  2.3333
   25SAPC  C316 3379   4.748   0.844   8.187 -0.2432 -0.3692 -0.3773
   25SAPC  H16X 3380   4.792   0.936   8.232 -0.0747 -1.0723  0.9723
   25SAPC  H16Y 3381   4.765   0.765   8.264  2.3669 -0.3865 -0.8903
   25SAPC  C317 3382   4.590   0.850   8.177 -0.0081 -0.9905  0.1965
   25SAPC  H17X 3383   4.551   0.748   8.155 -3.3523 -0.0034  0.9747
   25SAPC  H17Y 3384   4.572   0.926   8.099  1.1700 -0.7597  0.1382
   25SAPC  C318 3385   4.526   0.895   8.312  0.1525  0.1156  0.4156
   25SAPC  H18X 3386   4.518   1.005   8.326  0.2430  0.2654 -0.6345
   25SAPC  H18Y 3387   4.582   0.861   8.402  0.5362  2.0458  0.9385
   25SAPC  H18Z 3388   4.425   0.848   8.312  0.7686 -1.3511 -1.4056
   26SAPC     N 3389   4.048   3.226   6.206  0.2682 -0.0235  0.2473
   26SAPC   C12 3390   4.056   3.113   6.115 -0.1101 -0.6053  0.2769
   26SAPC  H12A 3391   4.108   3.034   6.166  1.4390  0.4556  0.4295
   26SAPC  H12B 3392   4.110   3.143   6.026  1.7083  0.8530  1.7899
   26SAPC   C13 3393   4.188   3.287   6.212  0.6433  0.3897 -0.1804
   26SAPC  H13A 3394   4.222   3.344   6.127  2.4905 -0.1457  0.1643
   26SAPC  H13B 3395   4.184   3.359   6.293  0.5939 -0.0285  0.1909
   26SAPC  H13C 3396   4.259   3.207   6.228 -0.3135 -1.5539 -4.2969
   26SAPC   C14 3397   3.953   3.325   6.155 -0.0033  0.2414 -0.4438
   26SAPC  H14A 3398   3.956   3.419   6.209 -0.4268  0.8053 -1.3686
   26SAPC  H14B 3399   3.956   3.347   6.050 -1.9792  4.6229  0.1918
   26SAPC  H14C 3400   3.855   3.283   6.173  0.3167 -0.1190  0.5293
   26SAPC   C15 3401   4.005   3.186   6.338 -0.0871  0.8617 -0.2912
   26SAPC  H15A 3402   4.009   3.260   6.416  0.7115 -0.9744  1.5164
   26SAPC  H15B 3403   3.915   3.127   6.340  1.2519 -1.2664  0.0172
   26SAPC  H15C 3404   4.075   3.119   6.387 -0.2735  1.5877  1.0139
   26SAPC   C11 3405   3.919   3.050   6.070  1.0890  0.1822 -0.1560
   26SAPC  H11A 3406   3.927   2.976   5.987  3.2343  0.5706 -0.3717
   26SAPC  H11B 3407   3.858   3.131   6.024  0.1101 -0.9055 -0.8239
   26SAPC     P 3408   3.742   2.874   6.142  0.2700  0.1439  0.2791
   26SAPC   O13 3409   3.637   2.922   6.055 -0.0375  0.2932  0.5599
   26SAPC   O14 3410   3.813   2.748   6.107  0.5809  0.0579  0.3158
   26SAPC   O12 3411   3.837   2.993   6.175 -0.0456 -0.5212  0.2220
   26SAPC   O11 3412   3.672   2.837   6.278 -0.1271 -0.1252 -0.3192
   26SAPC    C1 3413   3.638   2.923   6.384  0.0997 -0.4991 -0.8627
   26SAPC    HA 3414   3.610   3.019   6.336  2.3846 -0.3998 -2.1569
   26SAPC    HB 3415   3.549   2.878   6.433  0.2638 -0.3209 -0.3967
   26SAPC    C2 3416   3.746   2.941   6.483  0.3981  0.2038  0.2651
   26SAPC    HS 3417   3.819   3.018   6.449 -0.7321  1.9680  1.6466
   26SAPC   O21 3418   3.799   2.808   6.519  0.1054  0.6684  0.3859
   26SAPC   C21 3419   3.913   2.774   6.460  0.4255  0.4647  0.6950
   26SAPC   O22 3420   3.991   2.859   6.411  0.1340 -0.2285 -0.3189
   26SAPC   C22 3421   3.928   2.615   6.454 -0.6035  0.3020 -0.4988
   26SAPC   H2R 3422   3.832   2.571   6.488  0.1754 -0.8317  0.2625
   26SAPC   H2S 3423   3.944   2.572   6.353  0.1831 -1.8593  0.4951
   26SAPC    C3 3424   3.691   2.997   6.616  0.3900  0.5569  0.9084
   26SAPC    HX 3425   3.608   2.926   6.639 -0.1450  0.3944 -1.2877
   26SAPC    HY 3426   3.646   3.098   6.612  0.9159  0.7613 -0.6579
   26SAPC   O31 3427   3.789   2.983   6.719  0.2448 -0.5067 -0.2045
   26SAPC   C31 3428   3.890   3.069   6.723  0.0873 -0.3172  0.4506
   26SAPC   O32 3429   3.897   3.171   6.660 -0.2683  0.5652 -0.0654
   26SAPC   C32 3430   4.006   3.003   6.797  0.3619 -0.6699 -0.3633
   26SAPC   H2X 3431   4.099   3.060   6.775 -1.0379  2.0880  0.4170
   26SAPC   H2Y 3432   4.022   2.906   6.746  3.0285 -0.5157  0.0394
   26SAPC   C23 3433   4.059   2.580   6.534 -0.6742 -0.4167  0.5329
   26SAPC   H3R 3434   4.147   2.638   6.500 -1.7798 -0.7666 -3.4141
   26SAPC   H3S 3435   4.086   2.478   6.499  0.2542  0.1304 -0.4001
   26SAPC   C24 3436   4.051   2.579   6.689  0.2289  0.8761  0.9181
   26SAPC   H4R 3437   3.985   2.501   6.732  1.8205  0.1246  2.1017
   26SAPC   H4S 3438   3.999   2.674   6.714 -1.3280  0.1117  0.7118
   26SAPC   C25 3439   4.192   2.568   6.749  0.1515  0.7845  0.3599
   26SAPC   H5R 3440   4.274   2.576   6.677 -0.5235  1.0749 -0.4018
   26SAPC   C26 3441   4.222   2.565   6.877  0.4984  0.0390  0.4122
   26SAPC   H6R 3442   4.324   2.539   6.909  0.6451  2.5467  2.3344
   26SAPC   C27 3443   4.112   2.558   6.984  0.4156 -0.2480  0.2604
   26SAPC   H7R 3444   4.007   2.583   6.958  0.0439 -2.2800 -0.3985
   26SAPC   H7S 3445   4.134   2.635   7.061 -1.4290  2.2546 -1.5383
   26SAPC   C28 3446   4.132   2.414   7.037  0.0415  0.4343  0.2169
   26SAPC   H8R 3447   4.077   2.335   6.985  1.1702  0.1274 -0.5546
   26SAPC   C29 3448   4.207   2.376   7.138 -0.1195 -0.3347 -0.0071
   26SAPC   H9R 3449   4.219   2.271   7.167 -0.2543  0.0186  1.3870
   26SAPC  C210 3450   4.296   2.474   7.221  0.6675 -0.3130  0.2052
   26SAPC  H10R 3451   4.222   2.506   7.297  0.8828 -0.2249  0.3778
   26SAPC  H10S 3452   4.331   2.563   7.164  2.1865  0.0272  1.6041
   26SAPC  C211 3453   4.421   2.412   7.286 -0.4212 -0.5157 -0.0510
   26SAPC  H11R 3454   4.507   2.390   7.221  0.5135 -1.0850  1.3219
   26SAPC  C212 3455   4.429   2.361   7.418 -0.1415  0.7144 -0.4567
   26SAPC  H12R 3456   4.530   2.337   7.455 -1.5360  0.2390  3.4132
   26SAPC  C213 3457   4.320   2.366   7.519 -0.1449  0.2712 -0.8358
   26SAPC  H13R 3458   4.249   2.449   7.499  0.2488  0.4492 -1.5083
   26SAPC  H13S 3459   4.373   2.389   7.614  1.5646  1.3899 -1.9997
   26SAPC  C214 3460   4.236   2.240   7.536  0.7232  0.1586 -0.2873
   26SAPC  H14R 3461   4.170   2.211   7.453 -1.1404  0.7487  0.9272
   26SAPC  C215 3462   4.217   2.176   7.654  0.8111 -0.3195  0.1749
   26SAPC  H15R 3463   4.150   2.089   7.658  0.6190 -0.1424  2.8311
   26SAPC  C216 3464   4.283   2.204   7.785 -0.3856  0.7649  0.2403
   26SAPC  H16R 3465   4.349   2.293   7.784 -0.2158  0.6457 -0.8629
   26SAPC  H16S 3466   4.348   2.120   7.816 -1.7952 -0.4068  0.1450
   26SAPC  C217 3467   4.185   2.221   7.902 -0.4719 -0.2749  0.3861
   26SAPC  H17R 3468   4.103   2.291   7.879 -0.0497  0.7995  1.9790
   26SAPC  H17S 3469   4.238   2.277   7.983 -1.0478 -0.7124  1.0764
   26SAPC  C218 3470   4.138   2.099   7.977 -0.1454  0.4875  0.6654
   26SAPC  H18R 3471   4.219   2.024   7.987  0.1641  0.9673  2.0233
   26SAPC  H18S 3472   4.051   2.053   7.925 -0.7697  0.3483  1.7778
   26SAPC  C219 3473   4.092   2.142   8.117  0.2308 -0.5202 -0.3084
   26SAPC  H19R 3474   3.995   2.097   8.148  0.9644 -1.1090  1.2860
   26SAPC  H19S 3475   4.082   2.252   8.128  2.4501 -0.2048 -0.9491
   26SAPC  C220 3476   4.197   2.101   8.225  0.0899 -0.4405  0.5171
   26SAPC  H20R 3477   4.210   1.991   8.239 -1.4923 -0.3070  4.2456
   26SAPC  H20S 3478   4.164   2.146   8.321  0.7867  0.9088  0.1434
   26SAPC  H20T 3479   4.301   2.134   8.206 -0.6527  0.8725 -1.5402
   26SAPC   C33 3480   3.988   2.990   6.954 -0.3879  0.6937  1.2445
   26SAPC   H3X 3481   4.028   2.892   6.989 -1.2572  0.3943  1.4303
   26SAPC   H3Y 3482   3.879   2.977   6.976 -0.5135  0.1776  0.3691
   26SAPC   C34 3483   4.069   3.088   7.040  0.1345  0.3384 -0.2780
   26SAPC   H4X 3484   4.024   3.189   7.030 -1.1760  0.0189  1.8102
   26SAPC   H4Y 3485   4.176   3.082   7.009 -0.3816  0.6988 -2.2531
   26SAPC   C35 3486   4.061   3.051   7.192 -0.4104  0.5888  0.5400
   26SAPC   H5X 3487   3.955   3.052   7.224 -0.4982  0.9672  0.2491
   26SAPC   H5Y 3488   4.110   3.137   7.242  1.3349 -0.9264  1.5627
   26SAPC   C36 3489   4.118   2.918   7.234 -0.2088  0.5042  0.0495
   26SAPC   H6X 3490   4.225   2.909   7.205  0.6560  0.6389  2.8882
   26SAPC   H6Y 3491   4.059   2.843   7.177  2.9639 -1.5429 -0.8200
   26SAPC   C37 3492   4.127   2.895   7.381 -0.0537  0.1845  0.7996
   26SAPC   H7X 3493   4.197   2.811   7.400 -0.4738 -0.6999 -1.2802
   26SAPC   H7Y 3494   4.025   2.877   7.420  0.0552  1.4551  1.7258
   26SAPC   C38 3495   4.186   3.015   7.455  0.1877  0.0764  0.4699
   26SAPC   H8X 3496   4.127   3.109   7.449  0.3314  0.1520  0.2232
   26SAPC   H8Y 3497   4.279   3.051   7.408  0.2772  1.6810  1.7703
   26SAPC   C39 3498   4.222   2.979   7.600  0.4548  0.6047  0.4156
   26SAPC   H9X 3499   4.252   3.073   7.651 -1.3335  0.6743  1.4302
   26SAPC   H9Y 3500   4.309   2.911   7.598 -0.7617 -1.0123 -1.8830
   26SAPC  C310 3501   4.103   2.940   7.682  0.4140 -0.5852  0.2211
   26SAPC  H10X 3502   4.054   2.852   7.634  1.7923 -1.0443 -0.4093
   26SAPC  H10Y 3503   4.032   3.025   7.676 -1.7621 -2.3639 -0.7644
   26SAPC  C311 3504   4.146   2.910   7.822 -0.1169 -0.5578 -0.0678
   26SAPC  H11X 3505   4.051   2.930   7.877  0.5955  2.1350  0.3323
   26SAPC  H11Y 3506   4.225   2.972   7.870 -1.0700 -0.4911  1.4954
   26SAPC  C312 3507   4.191   2.764   7.832  0.3224 -0.2466  0.1155
   26SAPC  H12X 3508   4.300   2.756   7.811 -0.0260 -4.0538 -1.0982
   26SAPC  H12Y 3509   4.133   2.700   7.762 -0.9938 -1.1482  1.9479
   26SAPC  C313 3510   4.165   2.704   7.974  0.5131  0.5031  0.8081
   26SAPC  H13X 3511   4.191   2.597   7.964 -0.3683  0.4393 -1.3474
   26SAPC  H13Y 3512   4.060   2.706   8.009 -0.3918  0.9223 -1.7145
   26SAPC  C314 3513   4.251   2.765   8.089  0.5468 -0.0547 -0.4135
   26SAPC  H14X 3514   4.214   2.869   8.101 -0.1003 -0.5236  2.4966
   26SAPC  H14Y 3515   4.356   2.765   8.051  0.0698  0.5348 -1.7871
   26SAPC  C315 3516   4.231   2.688   8.221 -0.2622 -0.3109 -0.5166
   26SAPC  H15X 3517   4.279   2.588   8.214 -0.2614 -0.5951  2.4985
   26SAPC  H15Y 3518   4.124   2.663   8.236 -0.1848 -1.7342 -2.0873
   26SAPC  C316 3519   4.288   2.771   8.338 -0.5926  0.5878  0.3864
   26SAPC  H16X 3520   4.218   2.858   8.339 -0.9959  0.2600  0.5489
   26SAPC  H16Y 3521   4.387   2.815   8.313 -1.5659  2.9370  0.3370
   26SAPC  C317 3522   4.297   2.697   8.470  0.0435  0.3993  0.7364
   26SAPC  H17X 3523   4.208   2.637   8.500  0.0844 -1.0528 -1.8408
   26SAPC  H17Y 3524   4.310   2.777   8.546 -0.6664  0.3746  0.8904
   26SAPC  C318 3525   4.419   2.604   8.485 -0.2352 -0.2161  0.4990
   26SAPC  H18X 3526   4.511   2.658   8.453 -0.2587 -1.3758 -1.6797
   26SAPC  H18Y 3527   4.401   2.511   8.427 -1.3241 -0.4429  1.1748
   26SAPC  H18Z 3528   4.436   2.573   8.590  0.4501 -2.0456 -0.1208
   27SAPC     N 3529   1.780   3.771   6.788  0.0345 -0.1530  0.1237
   27SAPC   C12 3530   1.895   3.684   6.806  0.0726 -0.3407 -0.3160
   27SAPC  H12A 3531   1.982   3.744   6.828 -1.0740  0.8900  1.0610
   27SAPC  H12B 3532   1.920   3.637   6.712  2.5549 -0.2899  0.2381
   27SAPC   C13 3533   1.672   3.696   6.710 -0.5631 -0.4352  0.2795
   27SAPC  H13A 3534   1.708   3.662   6.614 -0.1205 -0.7172  0.5394
   27SAPC  H13B 3535   1.657   3.606   6.768  1.2890 -0.9372  0.0513
   27SAPC  H13C 3536   1.579   3.751   6.706  0.0475  0.7064  1.2316
   27SAPC   C14 3537   1.723   3.812   6.920 -0.4982 -0.1117 -0.7266
   27SAPC  H14A 3538   1.708   3.724   6.981 -1.1706 -0.3145 -1.1763
   27SAPC  H14B 3539   1.788   3.876   6.978 -0.9736  1.9835 -2.3874
   27SAPC  H14C 3540   1.632   3.870   6.916 -0.9368 -0.8379 -1.5856
   27SAPC   C15 3541   1.808   3.898   6.709  1.2381  0.3822  0.3032
   27SAPC  H15A 3542   1.730   3.972   6.717  0.8547 -0.1914  2.8099
   27SAPC  H15B 3543   1.892   3.948   6.753  0.9443  1.3433 -0.2054
   27SAPC  H15C 3544   1.842   3.868   6.611 -0.4226  0.5786 -0.3659
   27SAPC   C11 3545   1.894   3.579   6.919 -0.2435  0.8101 -0.6777
   27SAPC  H11A 3546   1.899   3.627   7.019  0.7079 -0.3659 -0.1330
   27SAPC  H11B 3547   1.992   3.527   6.911 -0.8717 -0.8807  1.5543
   27SAPC     P 3548   1.798   3.373   6.798  0.3434 -0.0010 -0.0043
   27SAPC   O13 3549   1.667   3.361   6.732  0.2310 -0.0073 -0.2221
   27SAPC   O14 3550   1.916   3.398   6.711  0.8490 -0.5379  0.0789
   27SAPC   O12 3551   1.788   3.492   6.901  0.3346 -0.5698 -0.1177
   27SAPC   O11 3552   1.818   3.250   6.895  0.2198 -0.3273  0.5316
   27SAPC    C1 3553   1.714   3.208   6.979  0.2827 -1.2638 -0.4914
   27SAPC    HA 3554   1.617   3.260   6.964  0.0952  0.6551  4.9955
   27SAPC    HB 3555   1.692   3.099   6.977 -1.4471 -0.9596  0.0625
   27SAPC    C2 3556   1.750   3.245   7.122  0.1290 -0.8465 -0.4079
   27SAPC    HS 3557   1.816   3.334   7.122 -1.3070  0.3387  2.0867
   27SAPC   O21 3558   1.806   3.128   7.186 -0.3358 -0.5012 -0.2686
   27SAPC   C21 3559   1.923   3.090   7.149 -0.8880 -0.7303 -0.4305
   27SAPC   O22 3560   2.008   3.159   7.096 -0.6719  0.2103  0.3242
   27SAPC   C22 3561   1.926   2.945   7.193  0.6086 -0.1375  0.2313
   27SAPC   H2R 3562   1.912   2.943   7.303  0.7447  1.3884  0.2941
   27SAPC   H2S 3563   1.840   2.896   7.142  0.4323  1.4603 -1.1185
   27SAPC    C3 3564   1.620   3.284   7.200 -0.2518  0.3930 -0.2847
   27SAPC    HX 3565   1.549   3.200   7.181  0.8492 -0.8853  0.9130
   27SAPC    HY 3566   1.580   3.377   7.156  0.8728  0.3227 -1.4888
   27SAPC   O31 3567   1.642   3.287   7.351 -0.4513 -0.1025  0.8028
   27SAPC   C31 3568   1.565   3.375   7.418 -0.0596  0.5022  0.8416
   27SAPC   O32 3569   1.461   3.432   7.378 -0.1227 -0.2832 -0.2195
   27SAPC   C32 3570   1.639   3.398   7.546 -0.2564  0.2779 -0.0055
   27SAPC   H2X 3571   1.733   3.454   7.528  0.3852 -0.0695  1.9524
   27SAPC   H2Y 3572   1.661   3.296   7.584 -0.3267 -0.5993 -2.1832
   27SAPC   C23 3573   2.064   2.893   7.153  0.0272 -0.2066 -0.9595
   27SAPC   H3R 3574   2.144   2.946   7.209 -1.3715 -0.9116  1.9208
   27SAPC   H3S 3575   2.075   2.925   7.048 -2.5891  1.1929 -0.8899
   27SAPC   C24 3576   2.070   2.740   7.178  0.1768 -0.0211  0.2645
   27SAPC   H4R 3577   1.997   2.692   7.110  0.4309  1.8132 -1.3777
   27SAPC   H4S 3578   2.042   2.720   7.284 -2.1632 -0.8490 -0.4399
   27SAPC   C25 3579   2.209   2.681   7.165  0.1680  0.2045 -0.8729
   27SAPC   H5R 3580   2.250   2.689   7.063  2.7370  4.4912  0.2358
   27SAPC   C26 3581   2.284   2.631   7.262 -0.2389  0.6734 -0.0405
   27SAPC   H6R 3582   2.390   2.607   7.245 -0.3701  0.6616 -0.8774
   27SAPC   C27 3583   2.245   2.619   7.412 -0.9674  0.0176  0.3707
   27SAPC   H7R 3584   2.134   2.615   7.410 -0.9518 -0.7839 -2.2738
   27SAPC   H7S 3585   2.278   2.713   7.461 -0.7355  0.1785 -0.0827
   27SAPC   C28 3586   2.319   2.499   7.474  0.0554 -0.4786  0.5848
   27SAPC   H8R 3587   2.398   2.451   7.415  0.6374 -0.0225  0.9794
   27SAPC   C29 3588   2.291   2.453   7.593  0.7451  0.1203  0.1297
   27SAPC   H9R 3589   2.332   2.353   7.614  1.4288  0.1634 -0.9578
   27SAPC  C210 3590   2.174   2.501   7.684 -0.1053  0.2811 -0.0303
   27SAPC  H10R 3591   2.099   2.420   7.690  1.4100 -1.0373  3.0989
   27SAPC  H10S 3592   2.116   2.583   7.636 -3.3053 -1.6752  0.2108
   27SAPC  C211 3593   2.227   2.531   7.820 -0.2180  0.0133 -0.2703
   27SAPC  H11R 3594   2.296   2.455   7.858  0.6241  0.8438 -0.1133
   27SAPC  C212 3595   2.179   2.621   7.911 -0.2104 -0.1878  0.1941
   27SAPC  H12R 3596   2.225   2.630   8.011 -3.6376  2.8940  1.7237
   27SAPC  C213 3597   2.070   2.721   7.876 -0.1223 -0.6382 -1.0653
   27SAPC  H13R 3598   2.001   2.676   7.801 -0.1597  0.1729 -1.5284
   27SAPC  H13S 3599   2.126   2.808   7.838 -2.0131  0.6234 -1.0931
   27SAPC  C214 3600   1.995   2.772   7.999  0.6149  0.1113  0.0749
   27SAPC  H14R 3601   2.004   2.877   8.031  2.2172 -0.0089  0.0698
   27SAPC  C215 3602   1.912   2.701   8.068  0.2304  0.4386  0.3933
   27SAPC  H15R 3603   1.848   2.745   8.146 -3.9820 -1.3643 -1.6791
   27SAPC  C216 3604   1.874   2.557   8.028  0.6366 -0.6202 -0.0944
   27SAPC  H16R 3605   1.859   2.493   8.117  0.9775 -0.9091 -0.2409
   27SAPC  H16S 3606   1.957   2.509   7.971  0.3043  1.1001 -2.1743
   27SAPC  C217 3607   1.747   2.541   7.935  0.2711 -0.6658  0.2136
   27SAPC  H17R 3608   1.773   2.602   7.846 -0.0008 -1.7658 -0.6431
   27SAPC  H17S 3609   1.652   2.577   7.981  0.3498 -1.8011  1.3329
   27SAPC  C218 3610   1.724   2.394   7.907  0.6000  0.5545 -0.4876
   27SAPC  H18R 3611   1.721   2.335   8.001 -1.0755  1.4156  0.0352
   27SAPC  H18S 3612   1.812   2.362   7.846 -0.5011 -1.1121 -1.2764
   27SAPC  C219 3613   1.588   2.358   7.838  0.5824  0.1280  0.0900
   27SAPC  H19R 3614   1.498   2.416   7.870 -1.3219 -1.3882 -2.1324
   27SAPC  H19S 3615   1.570   2.253   7.870  0.7887 -0.0454 -0.3556
   27SAPC  C220 3616   1.597   2.371   7.685  0.0027 -0.1456  0.4393
   27SAPC  H20R 3617   1.703   2.361   7.652  0.4412  1.1683  1.3562
   27SAPC  H20S 3618   1.553   2.468   7.655 -0.0176 -0.4676 -0.6092
   27SAPC  H20T 3619   1.538   2.291   7.634 -0.2136 -0.6715  1.4937
   27SAPC   C33 3620   1.553   3.477   7.645  0.1048  0.1508 -0.8756
   27SAPC   H3X 3621   1.444   3.454   7.647 -0.5320  2.7931  0.1772
   27SAPC   H3Y 3622   1.568   3.585   7.621  0.7323  0.9250  2.5313
   27SAPC   C34 3623   1.604   3.459   7.788 -0.3960  1.0323 -0.5549
   27SAPC   H4X 3624   1.715   3.459   7.790 -0.3341 -0.7386 -1.6455
   27SAPC   H4Y 3625   1.570   3.360   7.824  1.1931  0.5145 -0.4216
   27SAPC   C35 3626   1.540   3.572   7.881 -0.3337  0.3766  0.1614
   27SAPC   H5X 3627   1.439   3.593   7.838  0.3528  2.3121 -0.5767
   27SAPC   H5Y 3628   1.608   3.658   7.867 -0.2413  0.0992 -1.2869
   27SAPC   C36 3629   1.528   3.537   8.030  0.9651  0.6353  0.0629
   27SAPC   H6X 3630   1.477   3.443   8.058  2.2390  0.1032  0.7005
   27SAPC   H6Y 3631   1.455   3.609   8.071 -0.5113 -0.9701  0.3455
   27SAPC   C37 3632   1.659   3.540   8.096 -0.0059  0.3906  0.2438
   27SAPC   H7X 3633   1.690   3.645   8.073 -2.2944  1.6005  2.2469
   27SAPC   H7Y 3634   1.716   3.474   8.027 -2.0671 -0.6187 -0.5429
   27SAPC   C38 3635   1.661   3.508   8.247 -0.5256 -0.2764  0.3510
   27SAPC   H8X 3636   1.653   3.397   8.258 -3.1096 -0.3516 -1.5959
   27SAPC   H8Y 3637   1.587   3.566   8.306 -0.4570  1.0352 -0.8137
   27SAPC   C39 3638   1.788   3.568   8.315 -0.3799 -0.3049  0.0977
   27SAPC   H9X 3639   1.783   3.677   8.337  0.4582 -0.3582  0.6372
   27SAPC   H9Y 3640   1.870   3.553   8.242 -2.3543  0.1382 -2.3473
   27SAPC  C310 3641   1.813   3.499   8.451 -0.1901 -0.5159  0.2152
   27SAPC  H10X 3642   1.842   3.394   8.433  0.2005 -0.6940  1.6864
   27SAPC  H10Y 3643   1.718   3.511   8.507 -0.6615 -0.2831 -0.6277
   27SAPC  C311 3644   1.940   3.559   8.529 -0.0796  0.3105 -0.2169
   27SAPC  H11X 3645   2.036   3.527   8.484 -0.8383 -3.0386  0.2584
   27SAPC  H11Y 3646   1.935   3.501   8.624 -2.2987 -2.0566 -1.6546
   27SAPC  C312 3647   1.944   3.712   8.554 -0.0222  0.6312 -0.9030
   27SAPC  H12X 3648   1.845   3.754   8.583 -0.1418 -0.6162  0.6539
   27SAPC  H12Y 3649   1.987   3.749   8.459  2.0602 -3.1770 -1.6385
   27SAPC  C313 3650   2.047   3.752   8.660 -0.0165 -0.2347  0.0402
   27SAPC  H13X 3651   2.137   3.689   8.650  0.0607 -0.1588  0.2619
   27SAPC  H13Y 3652   1.996   3.743   8.758 -0.2632 -0.1324 -0.0762
   27SAPC  C314 3653   2.092   3.896   8.643 -0.5148 -0.0973  0.6306
   27SAPC  H14X 3654   2.000   3.957   8.632  1.1657  2.2986 -1.0720
   27SAPC  H14Y 3655   2.158   3.907   8.555 -0.8076 -0.7700  0.3177
   27SAPC  C315 3656   2.169   3.957   8.766 -0.1675  0.3650 -0.1859
   27SAPC  H15X 3657   2.249   3.884   8.790 -0.0962  0.9764  1.5967
   27SAPC  H15Y 3658   2.107   3.945   8.857  1.3472 -1.9705  0.6372
   27SAPC  C316 3659   2.232   4.091   8.745 -0.1883  0.5770 -0.5529
   27SAPC  H16X 3660   2.296   4.100   8.836 -0.7723 -2.2952  0.2543
   27SAPC  H16Y 3661   2.156   4.169   8.765 -0.5138  0.0542  0.3227
   27SAPC  C317 3662   2.308   4.105   8.615 -0.4419 -0.5849  0.1808
   27SAPC  H17X 3663   2.237   4.117   8.531 -1.6039 -1.4095  1.0054
   27SAPC  H17Y 3664   2.369   4.013   8.604  0.5628  0.0622  0.1518
   27SAPC  C318 3665   2.395   4.237   8.601  0.0363 -0.0160  0.5299
   27SAPC  H18X 3666   2.472   4.250   8.680 -1.1710 -0.6245  1.8608
   27SAPC  H18Y 3667   2.316   4.315   8.604 -1.9905 -1.9631  0.4683
   27SAPC  H18Z 3668   2.446   4.255   8.504 -0.2376 -0.0100  0.3853
   28SAPC     N 3669   0.485   6.697   5.838 -0.5826 -0.3131 -0.4503
   28SAPC   C12 3670   0.451   6.811   5.933 -0.4759 -0.4046  0.6506
   28SAPC  H12A 3671   0.460   6.909   5.890 -2.7695 -0.2551  0.3643
   28SAPC  H12B 3672   0.515   6.809   6.020  0.7747  1.4827 -0.1730
   28SAPC   C13 3673   0.476   6.567   5.911 -0.0492  0.9078 -0.0811
   28SAPC  H13A 3674   0.375   6.556   5.948  0.1365  0.8875  0.4288
   28SAPC  H13B 3675   0.508   6.483   5.851  3.7667  2.0933  0.0423
   28SAPC  H13C 3676   0.537   6.572   5.999 -0.6117 -0.2147  0.3888
   28SAPC   C14 3677   0.399   6.703   5.717  0.3178 -0.4808 -0.3568
   28SAPC  H14A 3678   0.415   6.617   5.654 -1.7572 -0.8170 -0.5086
   28SAPC  H14B 3679   0.297   6.691   5.750  0.3381  0.7543  0.1863
   28SAPC  H14C 3680   0.418   6.790   5.656  1.5469 -0.8745 -0.5508
   28SAPC   C15 3681   0.621   6.714   5.781 -0.0603  0.4659  0.0915
   28SAPC  H15A 3682   0.634   6.793   5.709  2.6115  0.9309  0.9519
   28SAPC  H15B 3683   0.691   6.741   5.859 -1.2100 -0.1240  1.3770
   28SAPC  H15C 3684   0.653   6.618   5.742 -2.4892 -0.9454  1.3842
   28SAPC   C11 3685   0.310   6.804   5.994  0.1856 -0.1738 -0.9505
   28SAPC  H11A 3686   0.289   6.704   6.038 -1.1169  0.3864 -0.2608
   28SAPC  H11B 3687   0.230   6.816   5.918  0.0355 -0.7054 -0.8800
   28SAPC     P 3688   0.174   6.947   6.157 -0.0809 -0.0498  0.2247
   28SAPC   O13 3689   0.181   7.096   6.166  0.4131 -0.2432 -0.0274
   28SAPC   O14 3690   0.060   6.885   6.082  0.0934 -0.5075 -0.2694
   28SAPC   O12 3691   0.311   6.896   6.102  0.4582  0.3143  0.0988
   28SAPC   O11 3692   0.176   6.891   6.309 -0.1790  0.0194  0.2828
   28SAPC    C1 3693   0.194   6.756   6.342 -0.3811  0.3572  0.6360
   28SAPC    HA 3694   0.129   6.694   6.277  0.3195 -2.9995  2.9077
   28SAPC    HB 3695   0.301   6.727   6.332 -0.4575  0.1332  0.4600
   28SAPC    C2 3696   0.152   6.732   6.492 -0.3296  0.3555  0.7195
   28SAPC    HS 3697   0.041   6.723   6.494 -0.1911 -1.6437  2.3075
   28SAPC   O21 3698   0.189   6.839   6.583 -0.1559 -0.3072  0.5380
   28SAPC   C21 3699   0.091   6.924   6.617  0.3294 -0.2388  0.0574
   28SAPC   O22 3700  -0.028   6.896   6.603  0.7301 -0.6333  0.1613
   28SAPC   C22 3701   0.155   7.047   6.695 -0.1130  0.4106  0.2625
   28SAPC   H2R 3702   0.231   7.016   6.771  0.1126 -2.6210 -1.0726
   28SAPC   H2S 3703   0.197   7.106   6.611 -0.0912 -0.4378 -0.3398
   28SAPC    C3 3704   0.220   6.597   6.537 -0.7852 -0.0835 -0.9523
   28SAPC    HX 3705   0.330   6.611   6.534 -0.7308 -0.7288 -2.9451
   28SAPC    HY 3706   0.197   6.524   6.456  1.8510  0.6278 -2.4250
   28SAPC   O31 3707   0.167   6.554   6.666  0.2970  0.3389 -0.0435
   28SAPC   C31 3708   0.233   6.597   6.776  1.2914  0.5079  0.0161
   28SAPC   O32 3709   0.317   6.684   6.782 -0.4073  0.5033  0.1507
   28SAPC   C32 3710   0.205   6.503   6.893  0.1291  0.4411  0.5655
   28SAPC   H2X 3711   0.117   6.440   6.870  1.0504  0.0476 -2.2416
   28SAPC   H2Y 3712   0.188   6.564   6.985 -0.2463 -2.3147  2.4600
   28SAPC   C23 3713   0.031   7.132   6.761  0.5091 -0.4484  0.6079
   28SAPC   H3R 3714  -0.048   7.158   6.688  1.3415  0.6061  0.0514
   28SAPC   H3S 3715   0.060   7.230   6.804 -0.4007 -0.0505  0.3326
   28SAPC   C24 3716  -0.036   7.055   6.876 -0.2354 -0.2569  0.2933
   28SAPC   H4R 3717  -0.083   6.964   6.833  0.3016 -0.0573 -0.7386
   28SAPC   H4S 3718   0.049   7.025   6.941  1.1243 -5.2103 -3.1898
   28SAPC   C25 3719  -0.135   7.143   6.953  0.6705 -0.0992 -0.5506
   28SAPC   H5R 3720  -0.204   7.201   6.889  0.3614  1.1433  0.8465
   28SAPC   C26 3721  -0.150   7.149   7.091 -0.6819 -0.0811 -0.2200
   28SAPC   H6R 3722  -0.228   7.212   7.138 -1.0534 -0.9964  0.4182
   28SAPC   C27 3723  -0.058   7.072   7.186 -0.1138  0.1504 -0.1589
   28SAPC   H7R 3724   0.046   7.062   7.150  0.2043  0.3315  0.6812
   28SAPC   H7S 3725  -0.109   6.973   7.195  0.7806 -0.1712  1.7685
   28SAPC   C28 3726  -0.048   7.127   7.330  0.1145 -0.1935  0.0084
   28SAPC   H8R 3727  -0.008   7.229   7.336  2.6843 -1.0033 -1.7407
   28SAPC   C29 3728  -0.066   7.069   7.451  0.2096 -1.0641  0.0386
   28SAPC   H9R 3729  -0.048   7.140   7.533  1.7546  1.7604 -2.5392
   28SAPC  C210 3730  -0.105   6.927   7.484  0.1264 -0.3315 -0.2290
   28SAPC  H10R 3731  -0.167   6.890   7.400  1.7382 -1.8663 -0.7919
   28SAPC  H10S 3732  -0.180   6.924   7.567 -3.1948  0.5422 -2.9628
   28SAPC  C211 3733   0.009   6.827   7.510 -0.0409 -0.3797  0.6808
   28SAPC  H11R 3734   0.035   6.765   7.423 -1.2835  0.0985 -0.0516
   28SAPC  C212 3735   0.072   6.814   7.625 -0.6359 -0.2128  0.8603
   28SAPC  H12R 3736   0.143   6.732   7.644  0.7232  0.8562  0.5374
   28SAPC  C213 3737   0.038   6.890   7.747  0.0745 -0.3347  0.2020
   28SAPC  H13R 3738   0.017   6.996   7.724  3.1942  0.0774 -1.1831
   28SAPC  H13S 3739   0.130   6.886   7.809  0.0973  2.0124  0.4121
   28SAPC  C214 3740  -0.081   6.831   7.825 -0.0043 -0.6227 -0.0232
   28SAPC  H14R 3741  -0.146   6.762   7.769 -0.1556  1.3484 -2.4399
   28SAPC  C215 3742  -0.100   6.852   7.959  0.4486 -0.0460  0.6361
   28SAPC  H15R 3743  -0.187   6.801   8.003 -0.2589 -0.6106 -1.3275
   28SAPC  C216 3744  -0.018   6.930   8.055  0.3276 -0.1309  0.5524
   28SAPC  H16R 3745   0.061   6.978   7.993  0.1900 -0.7988 -0.1525
   28SAPC  H16S 3746   0.021   6.857   8.129 -0.0568 -0.3120  0.5760
   28SAPC  C217 3747  -0.093   7.041   8.128  0.0266  0.1307 -0.3419
   28SAPC  H17R 3748  -0.165   7.100   8.066 -1.7004 -1.5662 -0.0476
   28SAPC  H17S 3749  -0.022   7.120   8.160 -0.3808  0.0341  0.8517
   28SAPC  C218 3750  -0.165   6.991   8.256 -0.5062  0.4636 -0.0005
   28SAPC  H18R 3751  -0.085   6.985   8.333  0.5335  2.5609 -0.8449
   28SAPC  H18S 3752  -0.209   6.891   8.231 -0.6318  0.6523 -0.5494
   28SAPC  C219 3753  -0.276   7.091   8.291  0.4284  0.1785  0.4005
   28SAPC  H19R 3754  -0.351   7.090   8.209 -0.6219  0.0173  1.3320
   28SAPC  H19S 3755  -0.243   7.197   8.302 -1.6893  0.9403 -0.0997
   28SAPC  C220 3756  -0.345   7.056   8.422  0.0720  0.1013 -0.0487
   28SAPC  H20R 3757  -0.404   6.962   8.409  2.6601 -1.8766  1.5023
   28SAPC  H20S 3758  -0.416   7.131   8.464 -1.0335 -1.8327  1.7871
   28SAPC  H20T 3759  -0.280   7.040   8.511 -0.5641 -0.4766  0.3187
   28SAPC   C33 3760   0.319   6.400   6.912  0.5811  0.3775  0.0597
   28SAPC   H3X 3761   0.408   6.443   6.962  0.5509  1.0368 -0.4460
   28SAPC   H3Y 3762   0.342   6.364   6.810 -1.3351 -1.2956  0.1453
   28SAPC   C34 3763   0.281   6.274   6.989 -0.1189  0.2719 -0.0283
   28SAPC   H4X 3764   0.360   6.197   6.977 -0.0246  0.1949  0.9804
   28SAPC   H4Y 3765   0.183   6.244   6.946  0.9211 -0.7371 -1.8021
   28SAPC   C35 3766   0.259   6.286   7.136 -0.4010 -0.9007  0.5500
   28SAPC   H5X 3767   0.185   6.207   7.158 -1.5914 -0.1706 -0.6433
   28SAPC   H5Y 3768   0.216   6.388   7.146  0.6291 -0.3330 -0.5660
   28SAPC   C36 3769   0.396   6.273   7.209  0.1564  0.1974  0.9696
   28SAPC   H6X 3770   0.473   6.332   7.155  1.1984 -1.6577  0.3469
   28SAPC   H6Y 3771   0.437   6.170   7.202 -1.7248 -0.5885  1.0529
   28SAPC   C37 3772   0.396   6.308   7.352 -0.4681 -0.0189  0.4645
   28SAPC   H7X 3773   0.332   6.230   7.400 -0.6570  1.0072  1.9605
   28SAPC   H7Y 3774   0.366   6.414   7.369  0.1702  0.5309 -1.5786
   28SAPC   C38 3775   0.531   6.302   7.416 -0.7274  0.0285  0.2039
   28SAPC   H8X 3776   0.599   6.369   7.359  0.5951 -2.1018 -0.8658
   28SAPC   H8Y 3777   0.568   6.200   7.392  1.8373  0.8563  0.2858
   28SAPC   C39 3778   0.522   6.336   7.568  0.4404  0.4421 -0.4592
   28SAPC   H9X 3779   0.459   6.260   7.617  0.6082  1.1450  0.9021
   28SAPC   H9Y 3780   0.485   6.438   7.591  1.6528  0.6147  0.8605
   28SAPC  C310 3781   0.662   6.332   7.630 -1.1908 -0.4004 -0.2621
   28SAPC  H10X 3782   0.734   6.389   7.567  0.2528 -1.4668  0.3786
   28SAPC  H10Y 3783   0.701   6.228   7.635  1.8449  0.6529  0.4914
   28SAPC  C311 3784   0.671   6.384   7.773 -0.3152 -0.0028  0.5190
   28SAPC  H11X 3785   0.606   6.316   7.833 -1.0474 -0.1196 -0.3778
   28SAPC  H11Y 3786   0.618   6.481   7.776 -1.2996 -0.4334 -1.3167
   28SAPC  C312 3787   0.817   6.391   7.823  0.9789 -0.4846 -0.2371
   28SAPC  H12X 3788   0.863   6.473   7.765 -1.6430 -0.3812 -2.3922
   28SAPC  H12Y 3789   0.866   6.297   7.791 -0.2844 -1.3718  0.3461
   28SAPC  C313 3790   0.830   6.384   7.983 -0.4754  0.3369 -0.1985
   28SAPC  H13X 3791   0.935   6.378   8.019 -0.1872 -1.7770 -1.2196
   28SAPC  H13Y 3792   0.785   6.289   8.018  1.9262 -1.0181 -0.5586
   28SAPC  C314 3793   0.764   6.498   8.062 -0.1056  0.3514 -0.5474
   28SAPC  H14X 3794   0.656   6.496   8.037 -0.6684 -2.1635  1.5239
   28SAPC  H14Y 3795   0.820   6.590   8.036  1.9754 -0.2077  1.5412
   28SAPC  C315 3796   0.792   6.481   8.213  0.1462  0.9603  0.0417
   28SAPC  H15X 3797   0.896   6.450   8.240 -0.6868 -2.8334 -0.4797
   28SAPC  H15Y 3798   0.733   6.393   8.247 -1.0829  1.2700 -1.2255
   28SAPC  C316 3799   0.748   6.608   8.298 -0.2807  0.2930  0.6721
   28SAPC  H16X 3800   0.638   6.617   8.285 -0.6372 -2.8652  0.7139
   28SAPC  H16Y 3801   0.808   6.697   8.267 -0.7506  0.5902  0.6047
   28SAPC  C317 3802   0.780   6.589   8.444  0.0721 -0.9221  0.7018
   28SAPC  H17X 3803   0.886   6.555   8.442  1.0326  1.7149 -2.5577
   28SAPC  H17Y 3804   0.723   6.501   8.480 -0.6414 -1.0792 -0.7683
   28SAPC  C318 3805   0.733   6.710   8.526 -0.3397 -0.0430  0.0822
   28SAPC  H18X 3806   0.774   6.720   8.629 -0.5311  2.8138 -0.0362
   28SAPC  H18Y 3807   0.623   6.728   8.533 -0.2531  1.6157 -1.9293
   28SAPC  H18Z 3808   0.760   6.806   8.476 -0.3436  0.7879  1.6169
   29SAPC     N 3809   4.276   3.786   5.853  0.1049 -0.4337  0.5020
   29SAPC   C12 3810   4.264   3.678   5.953  0.2210 -0.3261  0.4323
   29SAPC  H12A 3811   4.344   3.695   6.024 -0.0955  1.3962  0.4338
   29SAPC  H12B 3812   4.273   3.580   5.908 -1.3431  0.3957 -1.6137
   29SAPC   C13 3813   4.397   3.762   5.761 -0.1600 -0.0937  0.3703
   29SAPC  H13A 3814   4.393   3.826   5.674 -3.5331  1.1944  1.3383
   29SAPC  H13B 3815   4.490   3.773   5.814  1.5898 -0.5415 -2.3814
   29SAPC  H13C 3816   4.376   3.662   5.725  0.4666  0.0545 -0.4372
   29SAPC   C14 3817   4.162   3.803   5.764 -0.3231  0.5069 -0.2216
   29SAPC  H14A 3818   4.075   3.825   5.823  1.1659  0.3004  2.1686
   29SAPC  H14B 3819   4.191   3.887   5.702  0.6865  1.2011  1.1537
   29SAPC  H14C 3820   4.137   3.715   5.706 -2.3021 -0.3563  1.8117
   29SAPC   C15 3821   4.303   3.913   5.929  0.2376  0.3813 -0.3640
   29SAPC  H15A 3822   4.218   3.952   5.983  1.2909  2.8053 -0.2918
   29SAPC  H15B 3823   4.381   3.889   5.999  0.1954  0.7454 -0.1871
   29SAPC  H15C 3824   4.329   3.996   5.865 -0.9629  1.8179  0.9331
   29SAPC   C11 3825   4.130   3.659   6.035 -0.1165  0.6295  0.4393
   29SAPC  H11A 3826   4.137   3.565   6.094 -3.3842  0.7871  1.2425
   29SAPC  H11B 3827   4.059   3.649   5.950 -0.2711 -1.1218  0.7296
   29SAPC     P 3828   4.141   3.781   6.258  0.3731 -0.0090  0.2305
   29SAPC   O13 3829   4.286   3.761   6.272  0.8396  0.1349  0.2860
   29SAPC   O14 3830   4.083   3.907   6.316  0.5272  0.4694  0.0760
   29SAPC   O12 3831   4.083   3.772   6.106  0.5972  0.6327 -0.6310
   29SAPC   O11 3832   4.069   3.667   6.338 -0.4231  0.4156 -0.3634
   29SAPC    C1 3833   3.929   3.643   6.335 -0.3032 -0.1515 -0.0817
   29SAPC    HA 3834   3.892   3.645   6.230  1.2524  1.0006 -0.6410
   29SAPC    HB 3835   3.913   3.539   6.371 -0.2426  0.6390  2.4243
   29SAPC    C2 3836   3.850   3.744   6.426 -0.2638 -0.2987 -0.6301
   29SAPC    HS 3837   3.865   3.841   6.375 -2.2917  0.1561 -0.4277
   29SAPC   O21 3838   3.920   3.754   6.553 -0.0137 -0.1784 -0.2689
   29SAPC   C21 3839   3.882   3.851   6.638  0.3836  0.0932 -0.7894
   29SAPC   O22 3840   3.826   3.955   6.613 -0.1515 -0.2193  0.3483
   29SAPC   C22 3841   3.928   3.812   6.783 -0.4853 -0.3716 -0.5552
   29SAPC   H2R 3842   3.887   3.715   6.820 -0.4089 -0.1826  0.0357
   29SAPC   H2S 3843   4.038   3.800   6.774 -0.3113  1.0409 -0.4714
   29SAPC    C3 3844   3.702   3.713   6.446 -0.4458  0.3163 -0.1052
   29SAPC    HX 3845   3.655   3.712   6.346  0.4943 -0.8389 -0.5497
   29SAPC    HY 3846   3.644   3.784   6.509  2.5407  2.2615  0.7130
   29SAPC   O31 3847   3.686   3.575   6.486  0.2492  0.1061  0.1186
   29SAPC   C31 3848   3.677   3.558   6.620 -1.1730  0.1114  0.6872
   29SAPC   O32 3849   3.682   3.653   6.692  0.6616 -0.1492  0.2000
   29SAPC   C32 3850   3.672   3.410   6.659 -0.2817 -0.2362  0.2331
   29SAPC   H2X 3851   3.764   3.362   6.620  0.0931  0.2251  0.5388
   29SAPC   H2Y 3852   3.584   3.379   6.598  1.5468  1.3125 -3.5711
   29SAPC   C23 3853   3.893   3.908   6.900  0.4189  0.1945 -0.3188
   29SAPC   H3R 3854   3.783   3.914   6.918  0.6954  1.7468  1.0029
   29SAPC   H3S 3855   3.927   4.009   6.868  1.6135  0.0314  0.3987
   29SAPC   C24 3856   3.963   3.879   7.031  0.4773 -0.0585  0.1879
   29SAPC   H4R 3857   4.072   3.862   7.013  0.3715  0.7701 -1.4050
   29SAPC   H4S 3858   3.919   3.781   7.063  2.6446 -0.5145  2.0568
   29SAPC   C25 3859   3.943   3.984   7.138  0.1920 -0.1097 -0.6871
   29SAPC   H5R 3860   3.985   4.083   7.118  3.0599 -1.1611 -0.3790
   29SAPC   C26 3861   3.874   3.969   7.256 -0.2680 -0.7839 -0.8704
   29SAPC   H6R 3862   3.872   4.060   7.318 -1.7574 -0.6000 -1.1438
   29SAPC   C27 3863   3.803   3.845   7.303  0.2082  0.3901  0.2426
   29SAPC   H7R 3864   3.848   3.802   7.395 -0.3522 -0.9077 -0.0546
   29SAPC   H7S 3865   3.811   3.772   7.219  0.9114  1.9025 -1.0468
   29SAPC   C28 3866   3.659   3.871   7.326  0.0227  0.4826  0.1433
   29SAPC   H8R 3867   3.593   3.834   7.246  0.6185  0.3268 -0.2808
   29SAPC   C29 3868   3.606   3.921   7.441  0.4406  0.0601 -0.2500
   29SAPC   H9R 3869   3.496   3.931   7.442  0.3718 -0.6385  0.4790
   29SAPC  C210 3870   3.690   3.956   7.570 -0.0217  0.2323 -0.9838
   29SAPC  H10R 3871   3.645   4.044   7.621  1.1980  0.5942 -0.5160
   29SAPC  H10S 3872   3.791   3.992   7.543  0.9507 -1.8498 -0.2777
   29SAPC  C211 3873   3.719   3.842   7.661  0.0319 -0.4276 -0.6148
   29SAPC  H11R 3874   3.788   3.771   7.614  0.6502 -0.0474 -0.2989
   29SAPC  C212 3875   3.676   3.817   7.788 -0.2562 -0.1799  0.0489
   29SAPC  H12R 3876   3.708   3.718   7.823  2.1031  0.1260 -1.1032
   29SAPC  C213 3877   3.590   3.908   7.873  0.7613 -0.1722 -0.6576
   29SAPC  H13R 3878   3.527   3.849   7.942  1.1926 -0.8409 -0.8316
   29SAPC  H13S 3879   3.525   3.978   7.815 -1.0844  0.8303  2.3817
   29SAPC  C214 3880   3.682   3.984   7.971 -0.0298  0.3248  0.2829
   29SAPC  H14R 3881   3.779   4.016   7.930  0.8651 -2.9018 -0.3285
   29SAPC  C215 3882   3.663   3.996   8.107  0.0949  0.1270 -0.1304
   29SAPC  H15R 3883   3.743   4.039   8.168 -0.4862 -0.4939  1.1224
   29SAPC  C216 3884   3.539   3.948   8.184 -0.0848 -0.2617 -0.5596
   29SAPC  H16R 3885   3.556   3.839   8.202  0.7594  0.0752  0.8189
   29SAPC  H16S 3886   3.451   3.956   8.117 -0.0644 -0.0362 -0.5585
   29SAPC  C217 3887   3.507   4.017   8.312  0.1179  0.1802 -0.6812
   29SAPC  H17R 3888   3.420   3.978   8.369  1.8312 -0.0171  1.9868
   29SAPC  H17S 3889   3.495   4.124   8.284 -0.5997  0.1804 -0.3900
   29SAPC  C218 3890   3.623   4.033   8.420  0.3680 -0.1081 -1.2935
   29SAPC  H18R 3891   3.713   4.087   8.384  2.0486 -3.4096 -2.4192
   29SAPC  H18S 3892   3.664   3.930   8.428  3.0796  1.0149  0.3743
   29SAPC  C219 3893   3.572   4.086   8.559 -0.1546 -0.5942 -0.5070
   29SAPC  H19R 3894   3.642   4.083   8.645 -2.1490  1.3144  1.3158
   29SAPC  H19S 3895   3.484   4.025   8.592  0.8379 -1.8081 -0.0138
   29SAPC  C220 3896   3.538   4.240   8.564  1.1813  0.5165  0.2014
   29SAPC  H20R 3897   3.622   4.292   8.512  0.7188 -0.0446 -1.1744
   29SAPC  H20S 3898   3.529   4.285   8.665 -0.3412  0.4574  0.1173
   29SAPC  H20T 3899   3.437   4.251   8.519  0.2598  0.2136  2.1349
   29SAPC   C33 3900   3.655   3.391   6.812 -0.5898 -0.2743  0.4064
   29SAPC   H3X 3901   3.624   3.285   6.823 -2.0382  0.0643 -0.1370
   29SAPC   H3Y 3902   3.561   3.438   6.850 -1.1172 -1.8618  1.1646
   29SAPC   C34 3903   3.780   3.435   6.890 -0.6139  0.1466  0.5153
   29SAPC   H4X 3904   3.778   3.545   6.898  0.6069  0.2123  0.1654
   29SAPC   H4Y 3905   3.877   3.403   6.847 -1.0998 -0.2064 -0.3511
   29SAPC   C35 3906   3.769   3.376   7.034 -0.7882  0.0429  0.2622
   29SAPC   H5X 3907   3.792   3.267   7.035 -0.4574  0.0972  1.6427
   29SAPC   H5Y 3908   3.664   3.387   7.068 -1.1275 -1.9391 -0.0307
   29SAPC   C36 3909   3.856   3.452   7.134 -0.4846  0.3812  0.0326
   29SAPC   H6X 3910   3.838   3.560   7.117 -2.3355 -0.1562 -1.8847
   29SAPC   H6Y 3911   3.965   3.428   7.131 -0.5243 -0.4880  2.6368
   29SAPC   C37 3912   3.810   3.417   7.287  0.2108  0.0777  0.1004
   29SAPC   H7X 3913   3.800   3.306   7.280 -0.4915 -0.0092  1.8855
   29SAPC   H7Y 3914   3.711   3.464   7.306 -0.4547 -0.6118 -1.4743
   29SAPC   C38 3915   3.914   3.463   7.392  0.0366  0.2277 -0.2340
   29SAPC   H8X 3916   3.926   3.573   7.384 -4.5883  1.1598  2.1788
   29SAPC   H8Y 3917   4.005   3.408   7.359 -0.6010 -0.5546 -0.7447
   29SAPC   C39 3918   3.872   3.414   7.531  0.1102  0.3090 -0.2558
   29SAPC   H9X 3919   3.843   3.307   7.530 -0.1494  0.3638  0.4505
   29SAPC   H9Y 3920   3.787   3.476   7.567  0.2173  0.6099 -0.5232
   29SAPC  C310 3921   3.992   3.440   7.630 -0.2448 -0.2082 -0.5330
   29SAPC  H10X 3922   4.003   3.550   7.644 -2.2201 -0.3079  2.8762
   29SAPC  H10Y 3923   4.080   3.395   7.578 -1.0849 -1.4829 -0.8960
   29SAPC  C311 3924   3.972   3.369   7.767 -0.2864  0.1228 -0.5959
   29SAPC  H11X 3925   3.956   3.260   7.756  0.7529  0.0364 -1.3330
   29SAPC  H11Y 3926   3.883   3.408   7.822 -0.4610 -1.3771  0.2228
   29SAPC  C312 3927   4.095   3.382   7.860  0.3678 -0.3367  0.3351
   29SAPC  H12X 3928   4.124   3.488   7.870 -1.5067  0.5532 -2.5735
   29SAPC  H12Y 3929   4.175   3.323   7.810  0.3301  0.2192 -0.3893
   29SAPC  C313 3930   4.063   3.305   7.995 -0.6555  0.2485 -0.2091
   29SAPC  H13X 3931   4.058   3.196   7.979  1.2926 -0.4932  3.2811
   29SAPC  H13Y 3932   3.967   3.339   8.040 -1.5374  0.6650 -2.2981
   29SAPC  C314 3933   4.181   3.313   8.099 -1.0147  0.3611  0.1152
   29SAPC  H14X 3934   4.137   3.246   8.176 -2.4531 -1.4776 -2.1608
   29SAPC  H14Y 3935   4.206   3.408   8.150  0.9034 -0.5523  0.9456
   29SAPC  C315 3936   4.313   3.257   8.048  0.0123 -0.2651 -0.6190
   29SAPC  H15X 3937   4.356   3.337   7.984  0.8819  0.2601  0.5769
   29SAPC  H15Y 3938   4.304   3.156   8.003 -2.6510  0.0165 -0.8319
   29SAPC  C316 3939   4.423   3.238   8.157  0.0649  0.2849 -0.6244
   29SAPC  H16X 3940   4.386   3.206   8.257  2.0099  1.3043  0.4795
   29SAPC  H16Y 3941   4.477   3.334   8.173 -0.4536  0.4042  0.4823
   29SAPC  C317 3942   4.527   3.131   8.110 -0.7655 -0.2394  0.0442
   29SAPC  H17X 3943   4.482   3.031   8.089  0.6440 -0.6918 -0.9654
   29SAPC  H17Y 3944   4.592   3.122   8.199 -0.0750  0.1951 -0.3983
   29SAPC  C318 3945   4.616   3.179   7.992  0.0809  0.2883  0.3057
   29SAPC  H18X 3946   4.559   3.171   7.897 -3.0836  0.5447  2.0270
   29SAPC  H18Y 3947   4.713   3.125   7.983 -0.1693  0.0538 -1.2272
   29SAPC  H18Z 3948   4.639   3.286   8.010 -0.5754  0.0575  2.8783
   30SAPC     N 3949   4.779   4.150   5.899 -0.4586 -0.2784 -0.0637
   30SAPC   C12 3950   4.831   4.067   6.008 -0.8388 -0.0076  0.0682
   30SAPC  H12A 3951   4.898   3.999   5.957 -0.9528  0.0939 -0.2208
   30SAPC  H12B 3952   4.758   4.006   6.058 -1.5278  3.2113  3.4549
   30SAPC   C13 3953   4.699   4.267   5.957 -0.1190  0.1258 -0.1904
   30SAPC  H13A 3954   4.658   4.325   5.876  1.3342 -0.3271 -1.2938
   30SAPC  H13B 3955   4.623   4.229   6.023 -0.7131 -1.1643 -1.5462
   30SAPC  H13C 3956   4.767   4.326   6.016  0.1275  1.0652 -1.3783
   30SAPC   C14 3957   4.879   4.214   5.807 -0.2066  0.0658 -0.1725
   30SAPC  H14A 3958   4.947   4.139   5.770 -0.7663 -0.1581 -0.7614
   30SAPC  H14B 3959   4.841   4.259   5.716  1.1285  0.1964 -0.6942
   30SAPC  H14C 3960   4.927   4.294   5.861  1.0238  1.3608 -2.9946
   30SAPC   C15 3961   4.682   4.067   5.817  0.4764 -0.0459 -0.7912
   30SAPC  H15A 3962   4.602   4.024   5.876  0.3122  0.2830 -0.7732
   30SAPC  H15B 3963   4.639   4.130   5.740 -0.3597 -0.0107 -0.3112
   30SAPC  H15C 3964   4.742   3.987   5.777 -0.3104 -0.4176 -1.2546
   30SAPC   C11 3965   4.906   4.143   6.133  0.1915  0.1453 -0.0922
   30SAPC  H11A 3966   4.917   4.078   6.222  1.7241  1.5122  0.7549
   30SAPC  H11B 3967   4.839   4.225   6.164  0.7223  1.5099 -2.3018
   30SAPC     P 3968   5.162   4.112   6.078  0.0104  0.2428 -0.2889
   30SAPC   O13 3969   5.146   4.013   5.970 -0.8845 -0.5272 -0.3574
   30SAPC   O14 3970   5.290   4.189   6.071 -0.1488 -0.0593  0.6272
   30SAPC   O12 3971   5.032   4.201   6.086 -1.0672  0.1064 -0.8083
   30SAPC   O11 3972   5.147   4.035   6.218 -1.0783  0.1238 -0.1601
   30SAPC    C1 3973   5.196   3.902   6.217 -0.5364 -0.0907  0.2800
   30SAPC    HA 3974   5.129   3.840   6.154  0.2626 -0.5497 -0.1270
   30SAPC    HB 3975   5.300   3.892   6.180 -0.4333  1.9422 -0.1030
   30SAPC    C2 3976   5.186   3.858   6.366  0.0453  0.5199  0.7907
   30SAPC    HS 3977   5.185   3.747   6.376  0.7327  0.5630  1.4254
   30SAPC   O21 3978   5.062   3.897   6.431  0.3889 -0.6835  0.5291
   30SAPC   C21 3979   4.942   3.850   6.381  0.4430 -0.8581 -0.0997
   30SAPC   O22 3980   4.935   3.777   6.282 -0.2147 -0.2717  0.5756
   30SAPC   C22 3981   4.827   3.916   6.457  0.5016 -0.2013 -0.5095
   30SAPC   H2R 3982   4.838   4.018   6.415 -1.6747  0.6857  0.8639
   30SAPC   H2S 3983   4.734   3.871   6.415 -0.3752  1.5850 -0.5867
   30SAPC    C3 3984   5.305   3.915   6.452 -0.2110 -0.4239 -0.9507
   30SAPC    HX 3985   5.303   4.023   6.428  2.0767 -0.1972 -0.3861
   30SAPC    HY 3986   5.396   3.866   6.410 -0.8116 -2.0736 -0.4272
   30SAPC   O31 3987   5.290   3.894   6.593  0.0846 -0.3239 -0.8602
   30SAPC   C31 3988   5.316   3.772   6.630 -0.8983 -0.2120 -0.0480
   30SAPC   O32 3989   5.353   3.684   6.558 -0.2688 -0.0161 -0.0414
   30SAPC   C32 3990   5.295   3.759   6.779 -0.0002  0.0549  0.5516
   30SAPC   H2X 3991   5.190   3.730   6.802  0.7382 -2.8652  0.6353
   30SAPC   H2Y 3992   5.305   3.857   6.830 -2.2300  0.3233  0.5587
   30SAPC   C23 3993   4.835   3.915   6.614  0.7829  0.3396  0.0557
   30SAPC   H3R 3994   4.801   4.007   6.665 -2.6212 -0.0081 -1.3447
   30SAPC   H3S 3995   4.939   3.907   6.652  0.0478 -2.3270  1.8064
   30SAPC   C24 3996   4.747   3.801   6.675 -0.7559 -0.2294  0.6097
   30SAPC   H4R 3997   4.782   3.704   6.632 -1.5094 -1.0344  1.7421
   30SAPC   H4S 3998   4.644   3.807   6.633 -0.5577 -0.7840  0.0267
   30SAPC   C25 3999   4.735   3.767   6.817 -1.1364  0.0485  0.1005
   30SAPC   H5R 4000   4.763   3.667   6.854 -1.4123  0.8862  2.8049
   30SAPC   C26 4001   4.673   3.844   6.907  0.2074 -0.3003 -0.5923
   30SAPC   H6R 4002   4.668   3.793   7.004 -2.5485 -2.0733 -1.5429
   30SAPC   C27 4003   4.605   3.979   6.891  0.1006  0.3175  0.8217
   30SAPC   H7R 4004   4.496   3.977   6.915 -0.0203  1.9522  0.4811
   30SAPC   H7S 4005   4.598   3.991   6.781  3.2247 -2.6654  0.1217
   30SAPC   C28 4006   4.668   4.093   6.967 -0.6380  0.0836  0.0842
   30SAPC   H8R 4007   4.759   4.139   6.926 -0.0560 -0.8025  0.3375
   30SAPC   C29 4008   4.624   4.144   7.086 -0.3496 -0.3057  0.0212
   30SAPC   H9R 4009   4.686   4.214   7.143  0.4447  0.3916 -1.6350
   30SAPC  C210 4010   4.497   4.098   7.163  0.2504 -0.1247 -0.2238
   30SAPC  H10R 4011   4.519   4.010   7.228 -2.1783 -0.6780 -0.0478
   30SAPC  H10S 4012   4.417   4.070   7.091 -0.1785 -2.0371  0.9194
   30SAPC  C211 4013   4.448   4.216   7.240 -0.3337  0.0625  0.2272
   30SAPC  H11R 4014   4.386   4.283   7.179  1.1717 -1.2386 -2.9630
   30SAPC  C212 4015   4.453   4.224   7.377  0.0251  0.6611 -0.2400
   30SAPC  H12R 4016   4.428   4.321   7.422 -0.1193 -0.1353  1.4856
   30SAPC  C213 4017   4.503   4.123   7.478  0.4039 -0.4694 -0.3703
   30SAPC  H13R 4018   4.610   4.111   7.452  0.3265 -1.3939 -0.2835
   30SAPC  H13S 4019   4.456   4.023   7.466 -2.3084  0.7787 -0.7780
   30SAPC  C214 4020   4.483   4.160   7.628 -0.0031  0.4846  0.1289
   30SAPC  H14R 4021   4.442   4.260   7.650  3.4595  2.0560  0.1097
   30SAPC  C215 4022   4.527   4.088   7.726 -0.5630  0.7971  0.5175
   30SAPC  H15R 4023   4.529   4.128   7.828 -0.3394 -1.3642  1.4266
   30SAPC  C216 4024   4.603   3.954   7.722 -0.0773  0.5380 -0.3124
   30SAPC  H16R 4025   4.624   3.920   7.618  0.3057 -1.2308  0.3149
   30SAPC  H16S 4026   4.548   3.867   7.764  2.1076  0.3265  2.3946
   30SAPC  C217 4027   4.740   3.956   7.798 -0.0570  0.6011  0.9267
   30SAPC  H17R 4028   4.770   3.850   7.816  0.0546  0.2834 -0.9113
   30SAPC  H17S 4029   4.720   4.005   7.895  0.1524 -0.2422  1.4018
   30SAPC  C218 4030   4.850   4.036   7.727  0.3546 -0.2150  0.1986
   30SAPC  H18R 4031   4.818   4.141   7.739  0.6710 -0.3477  2.6931
   30SAPC  H18S 4032   4.853   4.012   7.618  1.0813  0.8233 -0.0206
   30SAPC  C219 4033   4.992   4.011   7.791 -0.5722  1.2324 -0.0911
   30SAPC  H19R 4034   5.014   3.902   7.788  2.1826  1.7121  0.1394
   30SAPC  H19S 4035   4.992   4.038   7.899 -0.8397 -2.6743  1.0640
   30SAPC  C220 4036   5.105   4.082   7.706  0.0082  0.7864 -0.5976
   30SAPC  H20R 4037   5.079   4.190   7.703  0.0326  0.9594  2.3901
   30SAPC  H20S 4038   5.106   4.034   7.606  1.6278  0.4116 -0.4315
   30SAPC  H20T 4039   5.199   4.064   7.763 -0.8427 -1.5202  0.2177
   30SAPC   C33 4040   5.394   3.664   6.846  0.2618 -0.2296 -0.1545
   30SAPC   H3X 4041   5.500   3.696   6.859 -0.0409  0.2972  1.1965
   30SAPC   H3Y 4042   5.407   3.563   6.802 -1.4487 -0.4978 -0.1110
   30SAPC   C34 4043   5.348   3.624   6.987 -0.0569  0.4860  0.0196
   30SAPC   H4X 4044   5.396   3.532   7.028 -2.1069 -0.4545  0.4387
   30SAPC   H4Y 4045   5.239   3.604   6.993  0.2859 -1.0917  2.3332
   30SAPC   C35 4046   5.384   3.726   7.087 -0.2098  0.3851  0.0099
   30SAPC   H5X 4047   5.310   3.808   7.076 -0.5498  0.1735  0.6971
   30SAPC   H5Y 4048   5.484   3.773   7.072 -1.4092  3.9224  1.9371
   30SAPC   C36 4049   5.381   3.682   7.238  0.1266  0.6490 -0.5542
   30SAPC   H6X 4050   5.457   3.602   7.250 -2.3264 -2.0903 -1.9688
   30SAPC   H6Y 4051   5.282   3.639   7.265 -0.3285  2.4260  0.8480
   30SAPC   C37 4052   5.425   3.794   7.338 -0.0792  0.3522  0.1120
   30SAPC   H7X 4053   5.371   3.887   7.312  1.5768  1.9260  2.0166
   30SAPC   H7Y 4054   5.533   3.814   7.321 -0.4548  2.5090 -0.0270
   30SAPC   C38 4055   5.412   3.761   7.482  0.4187 -0.0085 -0.7536
   30SAPC   H8X 4056   5.439   3.855   7.535 -3.8851 -0.2664  2.3918
   30SAPC   H8Y 4057   5.479   3.673   7.495 -0.0663 -0.5087 -1.5605
   30SAPC   C39 4058   5.270   3.741   7.545  0.8866  0.5016  0.0130
   30SAPC   H9X 4059   5.222   3.649   7.507  0.7720 -0.1168  1.5719
   30SAPC   H9Y 4060   5.201   3.822   7.512 -0.0585 -0.5086 -0.5153
   30SAPC  C310 4061   5.280   3.731   7.694 -0.3301  0.0704 -0.1790
   30SAPC  H10X 4062   5.181   3.706   7.738 -0.4348 -0.4156 -0.6870
   30SAPC  H10Y 4063   5.316   3.825   7.742  0.7269  0.1597 -1.1028
   30SAPC  C311 4064   5.362   3.615   7.741  0.4857 -0.9634  0.3493
   30SAPC  H11X 4065   5.464   3.639   7.703  0.1129 -1.6102 -1.1000
   30SAPC  H11Y 4066   5.338   3.524   7.683  1.7093  0.7374 -3.1118
   30SAPC  C312 4067   5.353   3.593   7.890  0.2717 -0.1563 -0.4163
   30SAPC  H12X 4068   5.247   3.575   7.920  0.2113 -0.4224 -0.7871
   30SAPC  H12Y 4069   5.376   3.689   7.940 -1.2946 -1.0588  2.2516
   30SAPC  C313 4070   5.456   3.496   7.947  0.3036  0.2748  0.1798
   30SAPC  H13X 4071   5.558   3.536   7.929 -0.1079  1.3045  0.0905
   30SAPC  H13Y 4072   5.449   3.401   7.890  0.9025  0.8714 -0.9191
   30SAPC  C314 4073   5.437   3.464   8.097 -0.1292 -0.8897 -0.1086
   30SAPC  H14X 4074   5.490   3.368   8.109  1.1245 -0.1895  0.1501
   30SAPC  H14Y 4075   5.327   3.456   8.110 -0.1380  0.1328  0.5605
   30SAPC  C315 4076   5.483   3.568   8.201 -0.6175 -0.0467 -0.7016
   30SAPC  H15X 4077   5.449   3.667   8.164  0.9226  1.1565  0.9512
   30SAPC  H15Y 4078   5.594   3.563   8.192 -0.6196  0.3129 -0.9458
   30SAPC  C316 4079   5.436   3.537   8.346 -0.5546  0.9120  0.1159
   30SAPC  H16X 4080   5.327   3.556   8.343 -1.2418 -2.6056 -1.5086
   30SAPC  H16Y 4081   5.491   3.610   8.410 -2.4632  0.9311  1.8400
   30SAPC  C317 4082   5.465   3.395   8.390 -0.4252  0.0743  0.5276
   30SAPC  H17X 4083   5.574   3.388   8.410  0.0170 -0.5222 -1.7147
   30SAPC  H17Y 4084   5.445   3.321   8.309 -1.0075  0.5618  0.2196
   30SAPC  C318 4085   5.390   3.352   8.513 -0.0325  0.0062  0.5225
   30SAPC  H18X 4086   5.283   3.348   8.486 -0.2621 -0.6976  1.4858
   30SAPC  H18Y 4087   5.397   3.428   8.594 -0.8696  0.3082  0.3243
   30SAPC  H18Z 4088   5.423   3.254   8.554 -1.9188  0.0505  2.2737
   31SAPC     N 4089   5.882   4.565   6.205  0.3200  0.5084  0.0849
   31SAPC   C12 4090   5.766   4.553   6.303 -0.2975 -0.0092  0.0032
   31SAPC  H12A 4091   5.741   4.653   6.336 -1.0340 -0.5076  1.0040
   31SAPC  H12B 4092   5.798   4.498   6.390  0.3636 -0.0494 -0.2559
   31SAPC   C13 4093   5.845   4.655   6.091  0.6096  1.0218 -0.4369
   31SAPC  H13A 4094   5.924   4.662   6.017  1.8109  1.2561  0.8050
   31SAPC  H13B 4095   5.755   4.613   6.050 -0.7386  0.8997  2.4274
   31SAPC  H13C 4096   5.812   4.751   6.128  1.3878  1.0170  0.3188
   31SAPC   C14 4097   6.004   4.627   6.274 -0.0141  0.0698 -0.2491
   31SAPC  H14A 4098   6.023   4.566   6.361  0.8064 -1.6367 -1.5644
   31SAPC  H14B 4099   6.095   4.609   6.218  0.6352  1.9241  0.1426
   31SAPC  H14C 4100   5.985   4.729   6.303 -0.0763 -0.4233  1.5253
   31SAPC   C15 4101   5.927   4.433   6.151 -0.2349 -0.2376 -0.2241
   31SAPC  H15A 4102   5.843   4.378   6.109 -0.1681 -0.2402 -0.3564
   31SAPC  H15B 4103   6.017   4.443   6.093 -1.1966 -0.7740 -1.8903
   31SAPC  H15C 4104   5.955   4.377   6.239  1.6899  0.8500 -0.0923
   31SAPC   C11 4105   5.629   4.486   6.259  0.7733 -0.1811 -0.8246
   31SAPC  H11A 4106   5.561   4.477   6.346 -0.6544 -1.1872 -2.0067
   31SAPC  H11B 4107   5.647   4.386   6.215  1.5923  0.0386 -1.0001
   31SAPC     P 4108   5.464   4.670   6.183 -0.1098 -0.2924  0.1385
   31SAPC   O13 4109   5.523   4.804   6.144 -0.2823  0.4671  0.1971
   31SAPC   O14 4110   5.344   4.630   6.106  0.2560 -0.2007  0.1054
   31SAPC   O12 4111   5.563   4.560   6.152  0.4938  0.5602 -0.4148
   31SAPC   O11 4112   5.446   4.662   6.333  0.2787  0.7112 -0.4999
   31SAPC    C1 4113   5.337   4.719   6.411 -0.1021  0.5383 -0.7306
   31SAPC    HA 4114   5.278   4.792   6.352 -1.5505 -1.1430 -1.4717
   31SAPC    HB 4115   5.273   4.632   6.441  0.1819  0.3380 -0.7037
   31SAPC    C2 4116   5.401   4.788   6.533 -0.3444  0.5939 -0.8360
   31SAPC    HS 4117   5.327   4.851   6.587  2.2243  1.0823  2.4538
   31SAPC   O21 4118   5.517   4.859   6.494  0.0857  0.1188 -0.0088
   31SAPC   C21 4119   5.488   4.974   6.439 -0.1953  0.8897  0.4083
   31SAPC   O22 4120   5.383   5.014   6.398  0.1717  0.5462  0.1132
   31SAPC   C22 4121   5.627   5.050   6.433  0.2753 -0.7109 -0.1458
   31SAPC   H2R 4122   5.707   4.985   6.473 -0.5294 -0.1799  2.4954
   31SAPC   H2S 4123   5.639   5.048   6.322  0.3544  0.2152 -0.1650
   31SAPC    C3 4124   5.442   4.686   6.633 -0.4410  0.8640 -0.2830
   31SAPC    HX 4125   5.534   4.626   6.617 -0.9123 -0.4609  1.5885
   31SAPC    HY 4126   5.365   4.607   6.625 -0.4690  1.0216 -1.8015
   31SAPC   O31 4127   5.441   4.737   6.772 -0.2745  0.0890 -0.3658
   31SAPC   C31 4128   5.559   4.762   6.822 -0.2999 -0.7226 -0.1134
   31SAPC   O32 4129   5.666   4.752   6.765 -0.4207 -0.4869 -0.0306
   31SAPC   C32 4130   5.541   4.825   6.963 -0.0364 -0.1056 -0.4573
   31SAPC   H2X 4131   5.529   4.732   7.021 -2.1813  0.2441 -0.2678
   31SAPC   H2Y 4132   5.447   4.884   6.962 -0.5992 -0.8219  2.5220
   31SAPC   C23 4133   5.624   5.191   6.494  0.3476 -0.2511  0.3140
   31SAPC   H3R 4134   5.525   5.241   6.503  0.4418  0.6317 -2.6095
   31SAPC   H3S 4135   5.670   5.258   6.420 -1.1523  2.1570  1.4320
   31SAPC   C24 4136   5.688   5.202   6.634  0.4077 -0.4915  0.3628
   31SAPC   H4R 4137   5.782   5.145   6.646  1.0235  0.2293 -0.8146
   31SAPC   H4S 4138   5.619   5.147   6.701 -0.7788 -1.4172 -1.5446
   31SAPC   C25 4139   5.699   5.347   6.670 -0.4292  0.8637 -0.7945
   31SAPC   H5R 4140   5.718   5.416   6.586 -0.2652  4.3787  1.9064
   31SAPC   C26 4141   5.703   5.400   6.794  0.0837 -0.1792 -0.2062
   31SAPC   H6R 4142   5.715   5.509   6.796  2.8727 -0.3331 -2.8526
   31SAPC   C27 4143   5.691   5.330   6.932 -0.4057  0.8807  1.0260
   31SAPC   H7R 4144   5.684   5.220   6.917 -0.3707  1.2077 -2.0299
   31SAPC   H7S 4145   5.593   5.362   6.972 -0.6332  0.9417  0.4273
   31SAPC   C28 4146   5.816   5.362   7.012  0.1563 -0.5903 -0.1540
   31SAPC   H8R 4147   5.908   5.385   6.957 -0.4719 -0.6335 -1.2407
   31SAPC   C29 4148   5.812   5.385   7.144  0.5642  0.2238 -1.3312
   31SAPC   H9R 4149   5.905   5.415   7.194 -0.5196  1.3910  0.0421
   31SAPC  C210 4150   5.687   5.381   7.233 -0.1053 -0.1418 -0.7278
   31SAPC  H10R 4151   5.671   5.278   7.270  0.2821  0.6671  1.9945
   31SAPC  H10S 4152   5.591   5.406   7.184  0.2405  0.4232 -1.1434
   31SAPC  C211 4153   5.690   5.476   7.349  0.0281  0.0249  1.0493
   31SAPC  H11R 4154   5.713   5.576   7.311  0.9846 -0.4428  0.3665
   31SAPC  C212 4155   5.660   5.469   7.479  0.1820  0.1999 -0.2409
   31SAPC  H12R 4156   5.675   5.556   7.545 -4.7206  0.1645  1.2842
   31SAPC  C213 4157   5.615   5.336   7.547  0.0077 -0.0717  0.4911
   31SAPC  H13R 4158   5.679   5.252   7.514 -1.0459 -1.0412  0.8350
   31SAPC  H13S 4159   5.511   5.308   7.519 -1.5618  1.4382  4.0989
   31SAPC  C214 4160   5.614   5.329   7.700 -0.4929 -0.5783  0.3089
   31SAPC  H14R 4161   5.513   5.335   7.742 -1.0443 -2.3223 -0.6954
   31SAPC  C215 4162   5.722   5.323   7.777  0.1986 -0.0786  0.2716
   31SAPC  H15R 4163   5.697   5.295   7.880 -2.5131 -1.2432 -0.6024
   31SAPC  C216 4164   5.860   5.319   7.719 -0.3139 -0.4614  0.6256
   31SAPC  H16R 4165   5.862   5.300   7.610 -1.2392 -1.4288  0.7613
   31SAPC  H16S 4166   5.911   5.228   7.759 -2.8859 -1.3789  2.0061
   31SAPC  C217 4167   5.945   5.437   7.755  0.3274  0.3849 -1.1336
   31SAPC  H17R 4168   5.954   5.469   7.861  0.9254  2.7383 -1.8222
   31SAPC  H17S 4169   5.901   5.525   7.702  2.1847  1.7683 -0.4826
   31SAPC  C218 4170   6.085   5.441   7.690  0.2405 -0.2439 -0.2552
   31SAPC  H18R 4171   6.147   5.533   7.701 -1.1333  0.9420 -1.8769
   31SAPC  H18S 4172   6.069   5.418   7.582  1.1212  0.6587 -0.5976
   31SAPC  C219 4173   6.160   5.322   7.741 -0.1461  0.0434 -0.0319
   31SAPC  H19R 4174   6.126   5.224   7.702 -1.8787 -1.0892  3.7963
   31SAPC  H19S 4175   6.143   5.321   7.851 -2.1998  0.1921 -0.3164
   31SAPC  C220 4176   6.311   5.331   7.696 -0.1423 -0.4013  0.4363
   31SAPC  H20R 4177   6.355   5.408   7.763  0.3873  0.4342 -0.8450
   31SAPC  H20S 4178   6.327   5.362   7.591  1.4502 -2.0001  0.1670
   31SAPC  H20T 4179   6.363   5.239   7.729 -0.5231 -1.4708 -1.8223
   31SAPC   C33 4180   5.661   4.902   7.022 -0.5944  0.3947 -0.0549
   31SAPC   H3X 4181   5.713   4.964   6.946 -1.8593  0.2185 -1.1012
   31SAPC   H3Y 4182   5.742   4.831   7.047 -0.5916  0.2126 -0.5812
   31SAPC   C34 4183   5.617   4.985   7.148  1.0752 -0.5166  0.1103
   31SAPC   H4X 4184   5.554   5.066   7.106 -1.0573 -1.6372  1.0010
   31SAPC   H4Y 4185   5.712   5.022   7.192  2.3714 -1.3795 -1.8508
   31SAPC   C35 4186   5.540   4.911   7.256 -0.2361  0.0192  0.4521
   31SAPC   H5X 4187   5.609   4.829   7.286 -0.2697  0.2033  1.0672
   31SAPC   H5Y 4188   5.449   4.870   7.209  0.8296 -0.0159 -1.6768
   31SAPC   C36 4189   5.521   5.002   7.382  0.5199 -0.1183 -0.5808
   31SAPC   H6X 4190   5.445   5.076   7.349  1.9915  1.3131 -0.8578
   31SAPC   H6Y 4191   5.613   5.059   7.405 -0.0430  0.6343 -0.1644
   31SAPC   C37 4192   5.460   4.924   7.499  0.2205  0.1316 -0.0755
   31SAPC   H7X 4193   5.544   4.881   7.558  1.6655  0.0614 -2.0899
   31SAPC   H7Y 4194   5.388   4.845   7.468 -1.3630  0.4479  2.5283
   31SAPC   C38 4195   5.391   5.025   7.598  0.1392  0.2733 -0.0795
   31SAPC   H8X 4196   5.314   5.083   7.544 -0.5205 -0.0981  0.4507
   31SAPC   H8Y 4197   5.463   5.103   7.629 -2.0076  2.0498  0.6472
   31SAPC   C39 4198   5.334   4.943   7.716 -0.0460 -0.2381 -0.3569
   31SAPC   H9X 4199   5.419   4.897   7.771  0.1959 -1.7504 -1.9226
   31SAPC   H9Y 4200   5.263   4.863   7.688 -2.3594  1.0167  1.5166
   31SAPC  C310 4201   5.256   5.039   7.804  0.4664  0.1805 -0.1141
   31SAPC  H10X 4202   5.225   4.988   7.898 -0.7414  1.0266 -0.0359
   31SAPC  H10Y 4203   5.152   5.052   7.769  0.3795  0.6819  0.3113
   31SAPC  C311 4204   5.322   5.171   7.839 -0.7270 -0.7767  0.0115
   31SAPC  H11X 4205   5.318   5.240   7.752  1.9882 -0.7482 -0.1891
   31SAPC  H11Y 4206   5.429   5.157   7.865 -0.2183 -1.9800 -2.3840
   31SAPC  C312 4207   5.254   5.257   7.950  0.6855  0.3860 -0.8991
   31SAPC  H12X 4208   5.255   5.201   8.045 -1.0163 -1.1890 -1.7532
   31SAPC  H12Y 4209   5.149   5.266   7.914  1.1288  0.5402 -2.2052
   31SAPC  C313 4210   5.302   5.398   7.977 -0.1535 -0.0727 -0.0966
   31SAPC  H13X 4211   5.284   5.469   7.894  1.1359  1.8032  1.1410
   31SAPC  H13Y 4212   5.412   5.385   7.987 -0.3010 -1.9672 -0.5382
   31SAPC  C314 4213   5.239   5.458   8.107  0.3324  0.0661 -0.6010
   31SAPC  H14X 4214   5.129   5.465   8.111  0.1784 -1.9403 -0.0038
   31SAPC  H14Y 4215   5.289   5.554   8.131  1.0947 -0.4460 -0.0914
   31SAPC  C315 4216   5.272   5.367   8.225  0.3684  0.0631 -0.2304
   31SAPC  H15X 4217   5.377   5.334   8.238  0.4269  0.8201  1.4003
   31SAPC  H15Y 4218   5.214   5.272   8.226  0.4798 -0.0064 -0.2754
   31SAPC  C316 4219   5.250   5.441   8.362 -0.9183 -0.0700 -0.1901
   31SAPC  H16X 4220   5.143   5.469   8.368 -0.7020  1.0397 -1.1127
   31SAPC  H16Y 4221   5.295   5.543   8.355  1.8873 -1.1295  1.0465
   31SAPC  C317 4222   5.286   5.364   8.482  0.5716  1.0462 -0.0850
   31SAPC  H17X 4223   5.312   5.426   8.571 -1.1115  0.5016  0.8194
   31SAPC  H17Y 4224   5.380   5.308   8.466  0.7007  0.6490  1.9218
   31SAPC  C318 4225   5.187   5.264   8.525  1.2183 -0.3013  0.3613
   31SAPC  H18X 4226   5.183   5.176   8.458  0.1707  0.5904 -0.7891
   31SAPC  H18Y 4227   5.079   5.291   8.528  0.9320 -0.9679 -1.8633
   31SAPC  H18Z 4228   5.222   5.220   8.621  2.1780 -1.3683 -0.4539
   32SAPC     N 4229   0.526   0.246   6.366  0.2669 -0.4194 -0.1035
   32SAPC   C12 4230   0.463   0.127   6.435 -0.3462  0.4545  0.4264
   32SAPC  H12A 4231   0.368   0.107   6.388 -0.2209 -0.3884  0.5158
   32SAPC  H12B 4232   0.439   0.151   6.538  2.6532  1.1650  1.0567
   32SAPC   C13 4233   0.434   0.362   6.375 -0.8365  0.7521 -0.1008
   32SAPC  H13A 4234   0.417   0.396   6.476  1.4836  0.7717  0.3358
   32SAPC  H13B 4235   0.474   0.443   6.315 -0.4526 -0.8684 -2.1534
   32SAPC  H13C 4236   0.332   0.346   6.346 -0.1918 -1.4070 -1.3655
   32SAPC   C14 4237   0.659   0.289   6.424 -0.8320  0.0638 -0.0723
   32SAPC  H14A 4238   0.707   0.365   6.364  0.8178 -2.1228 -1.7097
   32SAPC  H14B 4239   0.657   0.313   6.529  0.9899  2.0376 -0.4126
   32SAPC  H14C 4240   0.737   0.214   6.418 -0.0300  0.6690  2.0268
   32SAPC   C15 4241   0.545   0.218   6.219  0.0931 -0.2345  0.2305
   32SAPC  H15A 4242   0.456   0.174   6.176  1.2248  0.2075 -2.8818
   32SAPC  H15B 4243   0.565   0.303   6.155 -0.6238 -1.5151 -1.8267
   32SAPC  H15C 4244   0.626   0.148   6.207 -2.2784 -3.3404  1.2175
   32SAPC   C11 4245   0.541  -0.005   6.441  0.1181 -0.4506  0.0741
   32SAPC  H11A 4246   0.480  -0.071   6.506 -1.5502  1.8237  0.9473
   32SAPC  H11B 4247   0.633   0.013   6.501  0.8319  3.4108 -1.8523
   32SAPC     P 4248   0.599  -0.210   6.292 -0.4424 -0.0863 -0.0822
   32SAPC   O13 4249   0.482  -0.300   6.297 -0.2376 -0.1414 -0.6561
   32SAPC   O14 4250   0.671  -0.222   6.165 -0.1866  0.0726  0.7877
   32SAPC   O12 4251   0.556  -0.060   6.315  0.0978  0.1288  0.3812
   32SAPC   O11 4252   0.698  -0.237   6.410 -0.3601  0.0852  0.1305
   32SAPC    C1 4253   0.735  -0.373   6.452  0.3796  0.0507 -0.2678
   32SAPC    HA 4254   0.718  -0.444   6.368 -1.0273 -0.8155  0.7218
   32SAPC    HB 4255   0.844  -0.375   6.472  0.3025  2.8099  0.8480
   32SAPC    C2 4256   0.671  -0.402   6.586  0.3255  0.3221  0.1786
   32SAPC    HS 4257   0.730  -0.484   6.632  0.2141  0.6243  0.8783
   32SAPC   O21 4258   0.535  -0.445   6.581 -0.0588 -0.2564 -0.6583
   32SAPC   C21 4259   0.528  -0.567   6.518  0.2146 -0.8468  0.0780
   32SAPC   O22 4260   0.619  -0.628   6.473  0.2548  0.2869  0.2809
   32SAPC   C22 4261   0.382  -0.611   6.524  0.2830 -0.0358  0.0920
   32SAPC   H2R 4262   0.363  -0.649   6.626  2.9062  0.0143  0.6616
   32SAPC   H2S 4263   0.316  -0.524   6.502 -1.3272 -0.5798  2.4655
   32SAPC    C3 4264   0.684  -0.281   6.684  0.0690  0.2767 -0.6218
   32SAPC    HX 4265   0.622  -0.194   6.657  0.8639  0.2357 -2.8044
   32SAPC    HY 4266   0.785  -0.235   6.682  0.3440 -0.0620  1.6873
   32SAPC   O31 4267   0.656  -0.321   6.820 -0.4040 -0.2145  0.3567
   32SAPC   C31 4268   0.755  -0.364   6.898  0.2074 -0.6425  0.2683
   32SAPC   O32 4269   0.875  -0.374   6.871  0.8465  0.0328  0.0284
   32SAPC   C32 4270   0.698  -0.440   7.023 -0.9663 -0.2267 -0.0406
   32SAPC   H2X 4271   0.628  -0.524   7.006 -3.9876  1.5946  2.2790
   32SAPC   H2Y 4272   0.643  -0.372   7.092 -1.0678 -0.6708  0.3173
   32SAPC   C23 4273   0.338  -0.718   6.432 -0.1540  0.0647  0.2848
   32SAPC   H3R 4274   0.378  -0.818   6.462 -1.3222 -0.5770 -0.2525
   32SAPC   H3S 4275   0.371  -0.688   6.331  2.8036  1.2515  1.4742
   32SAPC   C24 4276   0.181  -0.748   6.428  0.0450  0.4709 -0.2729
   32SAPC   H4R 4277   0.150  -0.827   6.356  1.5322 -2.1700  1.7861
   32SAPC   H4S 4278   0.128  -0.656   6.396 -0.3253  0.7213  1.0295
   32SAPC   C25 4279   0.123  -0.796   6.561  1.2357  0.5241 -0.1223
   32SAPC   H5R 4280   0.167  -0.894   6.587 -0.4894  0.1429  1.5537
   32SAPC   C26 4281   0.054  -0.736   6.655  0.3316  0.2653  1.0149
   32SAPC   H6R 4282   0.010  -0.801   6.732  1.1339 -2.0550 -0.3564
   32SAPC   C27 4283   0.004  -0.594   6.649 -0.5797 -0.3651  0.7963
   32SAPC   H7R 4284   0.047  -0.525   6.573 -1.6266 -0.3157  0.2307
   32SAPC   H7S 4285   0.041  -0.559   6.748  1.0148 -1.6706  0.7169
   32SAPC   C28 4286  -0.144  -0.584   6.643 -0.4082  0.8320 -0.1674
   32SAPC   H8R 4287  -0.198  -0.671   6.603 -1.3427  1.4679 -0.3223
   32SAPC   C29 4288  -0.219  -0.485   6.681 -0.6540 -0.5939  0.0892
   32SAPC   H9R 4289  -0.326  -0.484   6.654 -0.3945  0.4433 -0.9402
   32SAPC  C210 4290  -0.166  -0.357   6.737 -0.1347  0.1278 -0.5055
   32SAPC  H10R 4291  -0.100  -0.300   6.668  2.8942 -2.9232 -0.4351
   32SAPC  H10S 4292  -0.097  -0.379   6.822 -1.9012 -2.0598  0.4516
   32SAPC  C211 4293  -0.276  -0.273   6.793  0.2423 -1.0061  0.0897
   32SAPC  H11R 4294  -0.349  -0.229   6.725  1.1904  0.3079 -0.1229
   32SAPC  C212 4295  -0.311  -0.245   6.922  0.6746 -0.7250  0.3479
   32SAPC  H12R 4296  -0.400  -0.180   6.925  0.6990 -0.3939 -2.5706
   32SAPC  C213 4297  -0.246  -0.277   7.052  0.3410 -0.6353  0.2532
   32SAPC  H13R 4298  -0.180  -0.366   7.052 -1.8127 -2.3437  0.6912
   32SAPC  H13S 4299  -0.317  -0.314   7.130  0.4609 -3.5509 -0.8852
   32SAPC  C214 4300  -0.170  -0.167   7.111 -0.4156 -0.4138 -0.0407
   32SAPC  H14R 4301  -0.209  -0.074   7.065 -0.3900 -2.3020 -4.3353
   32SAPC  C215 4302  -0.063  -0.172   7.186 -0.0570  0.3446 -0.5822
   32SAPC  H15R 4303  -0.014  -0.078   7.219  0.6030 -0.7360  1.7541
   32SAPC  C216 4304   0.005  -0.297   7.236 -0.6564  0.1595 -0.1697
   32SAPC  H16R 4305   0.105  -0.255   7.258 -0.8318  3.0263 -3.8166
   32SAPC  H16S 4306   0.013  -0.370   7.153 -0.8354 -0.1221  0.0605
   32SAPC  C217 4307  -0.051  -0.371   7.357  0.2178 -0.3231 -0.4396
   32SAPC  H17R 4308  -0.153  -0.393   7.321 -0.1957 -0.5636  0.8297
   32SAPC  H17S 4309  -0.055  -0.308   7.448 -0.7780 -0.4715 -0.3783
   32SAPC  C218 4310   0.015  -0.510   7.383  0.2024 -0.2384  0.7329
   32SAPC  H18R 4311   0.121  -0.507   7.417  1.4703  2.7918 -2.8527
   32SAPC  H18S 4312   0.013  -0.557   7.283 -0.3978  0.0470  0.6096
   32SAPC  C219 4313  -0.070  -0.599   7.465  0.1909  0.5433  1.2742
   32SAPC  H19R 4314  -0.057  -0.703   7.427 -0.2189  0.6539  0.8227
   32SAPC  H19S 4315  -0.178  -0.572   7.457  0.4141  1.0162 -1.0576
   32SAPC  C220 4316  -0.033  -0.600   7.608 -0.4225 -0.3671  0.0537
   32SAPC  H20R 4317   0.070  -0.639   7.618  0.2740  0.7484 -2.1523
   32SAPC  H20S 4318  -0.103  -0.664   7.666 -1.9501  0.4607 -0.7985
   32SAPC  H20T 4319  -0.038  -0.501   7.658 -1.8765 -1.7687  2.9929
   32SAPC   C33 4320   0.811  -0.508   7.110 -0.6173 -0.6212 -0.2210
   32SAPC   H3X 4321   0.866  -0.570   7.036 -0.3977 -0.5713 -0.1021
   32SAPC   H3Y 4322   0.773  -0.575   7.190 -2.2429 -0.6933 -1.0145
   32SAPC   C34 4323   0.900  -0.400   7.168 -1.3194  0.1555 -0.5808
   32SAPC   H4X 4324   0.850  -0.301   7.163  0.4287  1.1504  0.7261
   32SAPC   H4Y 4325   0.989  -0.382   7.104  0.0261  1.2979  1.5188
   32SAPC   C35 4326   0.930  -0.421   7.318 -0.0798 -0.4469 -0.1796
   32SAPC   H5X 4327   0.949  -0.527   7.344 -0.6057 -0.5554 -0.2268
   32SAPC   H5Y 4328   0.840  -0.391   7.376  0.0766  1.1579 -0.7007
   32SAPC   C36 4329   1.044  -0.335   7.375 -0.6799  0.2107  0.3817
   32SAPC   H6X 4330   1.017  -0.228   7.366  0.6629  0.5445  0.1934
   32SAPC   H6Y 4331   1.137  -0.345   7.316 -0.4052  0.5528  0.7556
   32SAPC   C37 4332   1.065  -0.376   7.519  0.5331  0.3505 -0.1503
   32SAPC   H7X 4333   1.097  -0.482   7.531 -2.1232 -0.6116 -0.8731
   32SAPC   H7Y 4334   0.971  -0.381   7.577  0.0891  0.6332 -0.8271
   32SAPC   C38 4335   1.165  -0.297   7.602  0.6527  0.5038  0.1238
   32SAPC   H8X 4336   1.141  -0.189   7.607 -0.7436  0.2087  0.1011
   32SAPC   H8Y 4337   1.266  -0.294   7.556  0.1171  2.6813 -1.0611
   32SAPC   C39 4338   1.175  -0.350   7.746 -0.6259 -0.0500 -0.9515
   32SAPC   H9X 4339   1.081  -0.350   7.805  0.0183 -1.1964  0.1050
   32SAPC   H9Y 4340   1.228  -0.264   7.792  1.3417 -0.3840 -2.4496
   32SAPC  C310 4341   1.259  -0.480   7.757  0.7054  0.2160  0.0221
   32SAPC  H10X 4342   1.353  -0.468   7.699  1.0156  2.6961  0.9228
   32SAPC  H10Y 4343   1.193  -0.555   7.710 -0.0355  0.8991 -0.0410
   32SAPC  C311 4344   1.310  -0.521   7.899 -0.6070  0.0328  0.3440
   32SAPC  H11X 4345   1.334  -0.629   7.886 -1.0748  0.2577 -3.4827
   32SAPC  H11Y 4346   1.234  -0.494   7.975 -0.1967 -1.0617  1.1758
   32SAPC  C312 4347   1.434  -0.441   7.938  0.9455  0.2209  0.5800
   32SAPC  H12X 4348   1.426  -0.332   7.915  2.9374 -0.0339 -1.6736
   32SAPC  H12Y 4349   1.510  -0.487   7.872  0.7912  0.3406  0.3141
   32SAPC  C313 4350   1.480  -0.464   8.079  0.1279  0.4731 -0.3628
   32SAPC  H13X 4351   1.588  -0.451   8.101  0.1659 -0.7977  0.2761
   32SAPC  H13Y 4352   1.454  -0.569   8.101 -0.4898  0.8440  0.7736
   32SAPC  C314 4353   1.412  -0.358   8.161 -0.2539  0.1178  0.1947
   32SAPC  H14X 4354   1.304  -0.370   8.137 -0.4316  0.4256  0.8097
   32SAPC  H14Y 4355   1.445  -0.257   8.127 -0.4100  0.8477  2.0493
   32SAPC  C315 4356   1.433  -0.373   8.312  0.4212 -0.0568  0.4766
   32SAPC  H15X 4357   1.360  -0.301   8.357 -0.1424  1.0292 -1.9968
   32SAPC  H15Y 4358   1.534  -0.341   8.345  1.2134 -2.0503  0.0993
   32SAPC  C316 4359   1.411  -0.521   8.360 -0.2870  0.1602 -0.4906
   32SAPC  H16X 4360   1.500  -0.577   8.325  0.0370 -0.6829  1.5839
   32SAPC  H16Y 4361   1.316  -0.567   8.324 -0.4302  0.1171 -0.0585
   32SAPC  C317 4362   1.410  -0.540   8.514  0.3437  0.0479 -0.4219
   32SAPC  H17X 4363   1.332  -0.482   8.567 -0.5501  0.9444 -2.6464
   32SAPC  H17Y 4364   1.513  -0.500   8.531  0.3312 -0.2304  0.3628
   32SAPC  C318 4365   1.405  -0.678   8.567  0.1642 -0.6950 -0.2333
   32SAPC  H18X 4366   1.473  -0.738   8.504 -0.7061  0.0244 -1.9236
   32SAPC  H18Y 4367   1.306  -0.728   8.579  0.1950 -1.5784 -3.1039
   32SAPC  H18Z 4368   1.455  -0.670   8.666 -0.1112 -0.1480 -0.1355
   33POPC     N 4369   3.920   5.963  10.970 -0.3690 -0.3915  0.3154
   33POPC   C12 4370   3.820   6.003  10.861 -0.7619 -0.2782  0.0308
   33POPC  H12A 4371   3.859   6.085  10.802  0.7885 -0.9048  0.1288
   33POPC  H12B 4372   3.734   6.044  10.911 -0.4893 -0.9139  1.0431
   33POPC   C13 4373   3.914   6.070  11.079 -1.1453 -0.7526  0.0856
   33POPC  H13A 4374   3.935   6.172  11.051 -0.4169 -1.0836 -0.6219
   33POPC  H13B 4375   3.816   6.071  11.125 -0.3923  0.0918  1.7557
   33POPC  H13C 4376   3.988   6.042  11.153 -0.7996  1.3014  0.5611
   33POPC   C14 4377   3.886   5.833  11.038 -0.1853 -0.7820 -0.2045
   33POPC  H14A 4378   3.847   5.757  10.972  0.5652 -1.3842  0.0393
   33POPC  H14B 4379   3.958   5.785  11.103 -1.0173 -0.6119  0.8585
   33POPC  H14C 4380   3.795   5.849  11.092 -0.8345  1.8258 -1.8750
   33POPC   C15 4381   4.062   5.968  10.936  0.5256  0.5465 -0.3731
   33POPC  H15A 4382   4.090   5.917  10.845  0.2249  1.9063 -1.2520
   33POPC  H15B 4383   4.113   5.925  11.021 -0.1124 -0.2520 -0.3738
   33POPC  H15C 4384   4.086   6.072  10.923 -1.1333  1.0459  0.3227
   33POPC   C11 4385   3.783   5.893  10.757 -0.0474  0.2168  0.4104
   33POPC  H11A 4386   3.699   5.912  10.687 -1.0503  1.5478  1.8794
   33POPC  H11B 4387   3.745   5.806  10.815 -0.5987 -0.3581 -0.7931
   33POPC     P 4388   3.948   5.944  10.573 -0.1542  0.1509 -0.3030
   33POPC   O13 4389   4.096   5.956  10.567 -0.1657 -0.3397 -0.2257
   33POPC   O14 4390   3.870   6.075  10.588 -0.5458 -0.8403 -0.0678
   33POPC   O12 4391   3.894   5.844  10.678  0.3083 -0.1746 -0.5424
   33POPC   O11 4392   3.909   5.886  10.430  0.9965  0.2430  0.8518
   33POPC    C1 4393   3.798   5.786  10.415 -0.4186 -0.1313  0.3350
   33POPC    HA 4394   3.855   5.692  10.404 -0.9997 -0.2893 -1.8298
   33POPC    HB 4395   3.744   5.767  10.510  1.1993  0.4760  1.4333
   33POPC    C2 4396   3.698   5.828  10.300  0.0672  0.3695 -0.5833
   33POPC    HS 4397   3.615   5.755  10.303 -0.6357  1.0138 -2.6026
   33POPC   O21 4398   3.763   5.820  10.171  0.2310 -0.0050  0.3627
   33POPC   C21 4399   3.797   5.696  10.129 -0.0285  0.1223  0.1937
   33POPC   O22 4400   3.767   5.590  10.178 -0.3827 -0.0840  0.3033
   33POPC   C22 4401   3.896   5.706  10.013 -0.3996 -0.3730  0.1125
   33POPC   H2R 4402   3.991   5.685  10.066 -0.6570  1.7033  1.5106
   33POPC   H2S 4403   3.901   5.809   9.973  2.3695 -0.1821  0.7636
   33POPC    C3 4404   3.630   5.969  10.324 -0.5022  0.1347  0.9331
   33POPC    HX 4405   3.712   6.042  10.342  1.0897 -1.6765  1.3411
   33POPC    HY 4406   3.585   5.952  10.425 -0.8398 -2.0372  0.4655
   33POPC   O31 4407   3.532   6.000  10.229  0.6568  0.4443 -0.3781
   33POPC   C31 4408   3.584   6.057  10.119  0.4302 -0.0325  0.1187
   33POPC   O32 4409   3.692   6.115  10.109  0.7494  0.0601 -0.1623
   33POPC   C32 4410   3.484   6.030   9.999 -0.2172  0.4818  0.6826
   33POPC   H2X 4411   3.399   6.102   9.998 -1.1724 -0.6085  0.8810
   33POPC   H2Y 4412   3.430   5.933  10.007  0.3705  0.0602 -0.2402
   33POPC   C23 4413   3.864   5.594   9.908 -0.0222 -0.3268 -0.3076
   33POPC   H3R 4414   3.835   5.496   9.951  1.2494 -0.5643  0.0513
   33POPC   H3S 4415   3.960   5.578   9.853  1.6238  0.0875  2.2549
   33POPC   C24 4416   3.763   5.642   9.804  0.0680 -0.3667  0.8044
   33POPC   H4R 4417   3.804   5.733   9.756  0.9255 -0.6227  1.0292
   33POPC   H4S 4418   3.674   5.671   9.865 -1.1184 -0.0871 -0.9765
   33POPC   C25 4419   3.727   5.534   9.708  0.3701  0.0166  0.3328
   33POPC   H5R 4420   3.695   5.443   9.763 -0.8796 -0.8155 -1.6291
   33POPC   H5S 4421   3.819   5.513   9.650  0.9574  2.7098  0.1495
   33POPC   C26 4422   3.620   5.575   9.603  0.2812 -0.4366 -0.5533
   33POPC   H6R 4423   3.653   5.672   9.560  1.2745 -0.0586  1.0006
   33POPC   H6S 4424   3.520   5.593   9.649  0.1515  0.3684 -1.1270
   33POPC   C27 4425   3.622   5.472   9.486  0.1258  0.5547 -0.1933
   33POPC   H7R 4426   3.727   5.447   9.460  0.2534 -0.6210  1.3046
   33POPC   H7S 4427   3.583   5.530   9.399  1.4661  3.0871  0.7903
   33POPC   C28 4428   3.535   5.333   9.494  0.7531  0.2768  0.2001
   33POPC   H8R 4429   3.507   5.312   9.389 -0.8231 -1.8248  0.9772
   33POPC   H8S 4430   3.453   5.351   9.566 -0.4184  0.1786 -1.0810
   33POPC   C29 4431   3.608   5.212   9.556  0.0577  0.2787 -0.5404
   33POPC   H91 4432   3.716   5.214   9.537  0.8610  0.4842  3.2213
   33POPC  C210 4433   3.567   5.134   9.666 -0.8245 -0.1036  0.3897
   33POPC  H101 4434   3.641   5.060   9.699 -0.0534  1.1302  1.4987
   33POPC  C211 4435   3.437   5.140   9.739  0.3324  0.1783 -0.3235
   33POPC  H11R 4436   3.418   5.040   9.783 -1.4426  0.0514 -1.2852
   33POPC  H11S 4437   3.357   5.150   9.662 -0.4071 -1.4696  0.1951
   33POPC  C212 4438   3.412   5.255   9.840  0.3503 -0.6038 -0.3900
   33POPC  H12R 4439   3.304   5.242   9.866  0.0192 -0.0706 -1.4525
   33POPC  H12S 4440   3.425   5.356   9.797  1.3864 -1.3755 -2.0215
   33POPC  C213 4441   3.500   5.233   9.970  0.1378  0.2791  0.1611
   33POPC  H13R 4442   3.609   5.241   9.950  0.2900  1.0951  1.2307
   33POPC  H13S 4443   3.475   5.129  10.002  0.1171 -0.2353 -1.4166
   33POPC  C214 4444   3.469   5.322  10.085  0.2895  0.1818 -0.0910
   33POPC  H14R 4445   3.363   5.303  10.113  0.0669 -0.0884 -1.0900
   33POPC  H14S 4446   3.487   5.426  10.049 -0.9245  0.0283 -1.2117
   33POPC  C215 4447   3.550   5.292  10.212  0.2480 -0.0664 -0.1051
   33POPC  H15R 4448   3.553   5.377  10.283 -0.3490  0.0817 -0.2466
   33POPC  H15S 4449   3.656   5.266  10.195  0.1319 -0.0916 -0.8367
   33POPC  C216 4450   3.500   5.185  10.301 -0.0330  0.1316 -0.0913
   33POPC  H16R 4451   3.510   5.084  10.256  1.3936  1.4510 -3.0037
   33POPC  H16S 4452   3.395   5.210  10.327  1.2936  3.2754  2.9972
   33POPC  C217 4453   3.563   5.174  10.440 -0.1590 -0.2141 -0.5887
   33POPC  H17R 4454   3.554   5.270  10.495 -1.0709 -0.1033 -0.9125
   33POPC  H17S 4455   3.669   5.143  10.426  0.0263  0.2035 -0.1407
   33POPC  C218 4456   3.503   5.066  10.528 -0.8139 -0.3495 -0.0234
   33POPC  H18R 4457   3.399   5.097  10.550 -0.7073 -0.4026  0.5802
   33POPC  H18S 4458   3.547   5.069  10.630 -0.2356  0.3417 -0.2799
   33POPC  H18T 4459   3.489   4.969  10.476 -1.3863  1.1533 -2.8745
   33POPC   C33 4460   3.550   6.031   9.859  0.8080  0.0960 -0.2090
   33POPC   H3X 4461   3.612   5.939   9.847  0.0308 -0.5982  0.9225
   33POPC   H3Y 4462   3.602   6.128   9.848 -0.3549  0.4725 -4.2241
   33POPC   C34 4463   3.449   6.012   9.749 -0.9212 -0.5408  0.4501
   33POPC   H4X 4464   3.516   6.011   9.661  0.3696 -1.3276  1.4046
   33POPC   H4Y 4465   3.375   6.095   9.753  0.1127  0.3557  2.8040
   33POPC   C35 4466   3.370   5.878   9.756  0.3998 -0.5996 -0.2652
   33POPC   H5X 4467   3.326   5.861   9.856  3.0496  1.7083  1.4671
   33POPC   H5Y 4468   3.444   5.798   9.731  1.3553 -0.0688  0.7669
   33POPC   C36 4469   3.249   5.878   9.668  0.2152  0.6033  0.0453
   33POPC   H6X 4470   3.175   5.955   9.698 -0.2111  0.2289 -0.0339
   33POPC   H6Y 4471   3.199   5.779   9.682 -0.5854  0.9470 -0.2733
   33POPC   C37 4472   3.283   5.917   9.526 -0.4149  0.3749 -1.0218
   33POPC   H7X 4473   3.336   6.014   9.519 -0.2834  0.4288  0.4591
   33POPC   H7Y 4474   3.186   5.930   9.473  0.2235 -2.3077 -3.1149
   33POPC   C38 4475   3.355   5.808   9.448 -0.7653 -0.5591 -0.5822
   33POPC   H8X 4476   3.310   5.709   9.465  0.6416 -1.0097  0.7566
   33POPC   H8Y 4477   3.461   5.799   9.480 -0.5219 -0.5276 -1.3597
   33POPC   C39 4478   3.365   5.830   9.291  0.1003 -0.2287  0.1172
   33POPC   H9X 4479   3.471   5.853   9.268 -0.4547  1.6727 -0.7017
   33POPC   H9Y 4480   3.312   5.923   9.263 -0.3993 -1.1816 -2.4304
   33POPC  C310 4481   3.312   5.715   9.209 -0.3433  0.3332 -0.1422
   33POPC  H10X 4482   3.203   5.730   9.191  0.0550  3.8051 -0.2158
   33POPC  H10Y 4483   3.335   5.624   9.269  1.8041  1.6859  1.2248
   33POPC  C311 4484   3.383   5.701   9.075 -0.1614  0.6443 -0.2613
   33POPC  H11X 4485   3.490   5.727   9.087 -0.0009  0.3180 -0.9346
   33POPC  H11Y 4486   3.346   5.786   9.015  0.7430  1.7754  0.7483
   33POPC  C312 4487   3.361   5.563   9.004 -0.2525  0.2999  0.1578
   33POPC  H12X 4488   3.253   5.537   8.992  0.6259 -2.6519 -3.2912
   33POPC  H12Y 4489   3.411   5.488   9.068 -0.1853  0.8386  0.7443
   33POPC  C313 4490   3.416   5.561   8.855  0.0149 -0.7250  0.0439
   33POPC  H13X 4491   3.411   5.462   8.806 -2.3468 -0.1196 -1.0875
   33POPC  H13Y 4492   3.520   5.597   8.866 -1.1961  2.6926  1.8889
   33POPC  C314 4493   3.338   5.653   8.758  0.2280  0.9067  0.0452
   33POPC  H14X 4494   3.278   5.728   8.813 -0.7992 -1.8726  2.9976
   33POPC  H14Y 4495   3.258   5.585   8.721  1.4461 -0.6468  0.1485
   33POPC  C315 4496   3.423   5.731   8.661 -0.0152  0.5810  0.0724
   33POPC  H15X 4497   3.457   5.671   8.574 -0.5328  0.5915 -0.1395
   33POPC  H15Y 4498   3.516   5.771   8.706 -0.7043  1.0804  1.0980
   33POPC  C316 4499   3.347   5.853   8.605 -0.0557 -0.1452  0.4780
   33POPC  H16X 4500   3.393   5.883   8.508  0.0553 -0.3190  0.4776
   33POPC  H16Y 4501   3.358   5.939   8.675 -0.0861  2.0888 -2.0880
   33POPC  H16Z 4502   3.237   5.844   8.592 -0.4971  3.7314  0.1684
   34POPC     N 4503   3.533   4.994  11.049 -0.3521 -0.2985  0.3019
   34POPC   C12 4504   3.531   4.991  10.896  0.2392 -0.0478  0.2153
   34POPC  H12A 4505   3.576   5.081  10.856 -2.3418  1.5857  0.7805
   34POPC  H12B 4506   3.427   4.983  10.867  0.5160 -4.3515 -0.3293
   34POPC   C13 4507   3.471   5.124  11.108 -0.1221 -0.6594 -0.6598
   34POPC  H13A 4508   3.512   5.210  11.057  1.8271 -0.9496  0.3154
   34POPC  H13B 4509   3.365   5.140  11.115 -0.0843 -1.0863  1.8624
   34POPC  H13C 4510   3.502   5.132  11.211  0.6970 -0.9575 -0.8781
   34POPC   C14 4511   3.481   4.877  11.114  0.0655  0.6021  0.2695
   34POPC  H14A 4512   3.523   4.784  11.080  1.3976  1.1762  0.2961
   34POPC  H14B 4513   3.508   4.892  11.217 -0.3480  4.2297 -0.0003
   34POPC  H14C 4514   3.374   4.878  11.098  0.0850  1.7406  0.1399
   34POPC   C15 4515   3.672   5.005  11.093 -0.3992 -0.2015 -0.6125
   34POPC  H15A 4516   3.716   5.095  11.055  0.0215  0.7949  2.0153
   34POPC  H15B 4517   3.720   4.920  11.048 -1.9227 -1.8618  0.7058
   34POPC  H15C 4518   3.689   4.992  11.199  0.6732 -0.4646 -0.8070
   34POPC   C11 4519   3.587   4.870  10.821 -0.5924  0.4503 -0.0889
   34POPC  H11A 4520   3.557   4.874  10.714  0.5601  2.2536 -0.3855
   34POPC  H11B 4521   3.545   4.773  10.855 -1.2427  0.3874 -1.0538
   34POPC     P 4522   3.807   4.723  10.835 -0.0389  0.3166  0.3625
   34POPC   O13 4523   3.742   4.605  10.898 -0.3973  0.5526 -0.4807
   34POPC   O14 4524   3.941   4.765  10.887 -0.6818  0.3019  0.6690
   34POPC   O12 4525   3.724   4.857  10.826 -0.5861 -0.2771  0.6549
   34POPC   O11 4526   3.819   4.681  10.683  0.4523  0.1183 -0.0976
   34POPC    C1 4527   3.870   4.782  10.594  0.2550 -0.5586  0.2407
   34POPC    HA 4528   3.981   4.784  10.602  0.3055  0.0228 -0.5000
   34POPC    HB 4529   3.829   4.883  10.616  0.1733 -0.3299 -0.9359
   34POPC    C2 4530   3.833   4.742  10.453  0.0005 -0.2716 -0.4974
   34POPC    HS 4531   3.912   4.671  10.421  0.5930 -0.9918  2.2815
   34POPC   O21 4532   3.840   4.857  10.369  0.7294 -0.5214  0.2515
   34POPC   C21 4533   3.951   4.874  10.295  0.7239  0.4207 -0.3326
   34POPC   O22 4534   4.045   4.799  10.290 -0.0383 -0.0139  0.5600
   34POPC   C22 4535   3.910   4.988  10.207  0.2562 -0.0373 -0.3760
   34POPC   H2R 4536   3.963   5.077  10.247 -1.3010  0.4602  0.6897
   34POPC   H2S 4537   3.801   5.011  10.214  0.1048 -0.9262  0.4406
   34POPC    C3 4538   3.697   4.675  10.438  0.4025 -0.2050 -0.8896
   34POPC    HX 4539   3.624   4.751  10.474  0.7668 -1.2668  2.4135
   34POPC    HY 4540   3.677   4.593  10.510  0.9109  0.1315 -0.3567
   34POPC   O31 4541   3.679   4.637  10.301 -0.3597 -0.2214  0.1024
   34POPC   C31 4542   3.719   4.510  10.260  0.0590 -0.1800  0.6445
   34POPC   O32 4543   3.743   4.423  10.341 -0.1988  0.2138 -0.4513
   34POPC   C32 4544   3.718   4.488  10.111 -0.3068  0.2711  0.1144
   34POPC   H2X 4545   3.610   4.475  10.088 -0.3687  1.1839 -0.1520
   34POPC   H2Y 4546   3.779   4.398  10.090  0.1187 -0.2833  3.1912
   34POPC   C23 4547   3.953   4.958  10.061 -0.0119  0.6537  0.7041
   34POPC   H3R 4548   3.898   4.874  10.012 -0.2542  0.5833  1.0950
   34POPC   H3S 4549   4.059   4.933  10.041 -0.9682 -0.8730 -3.8552
   34POPC   C24 4550   3.929   5.071   9.963 -0.2739 -0.0229 -0.5235
   34POPC   H4R 4551   3.995   5.152  10.001 -1.7874  0.6703  0.7665
   34POPC   H4S 4552   3.822   5.102   9.961 -0.2859 -0.0902 -1.2454
   34POPC   C25 4553   3.964   5.030   9.821  0.5379  0.2602  0.0688
   34POPC   H5R 4554   3.882   4.964   9.785 -2.0302  2.3596  1.6850
   34POPC   H5S 4555   4.069   4.996   9.811  1.4416  2.5872  1.0192
   34POPC   C26 4556   3.952   5.160   9.732  0.3337  0.7870  0.0565
   34POPC   H6R 4557   4.026   5.240   9.754  1.6215 -0.8871  2.2731
   34POPC   H6S 4558   3.852   5.206   9.747 -1.0874 -1.7505 -1.0542
   34POPC   C27 4559   3.984   5.128   9.582  0.4482  0.1709  0.0768
   34POPC   H7R 4560   3.900   5.064   9.548 -1.2690  1.4852  1.6835
   34POPC   H7S 4561   4.081   5.073   9.578  2.4024  3.3590 -0.5170
   34POPC   C28 4562   4.009   5.248   9.490 -0.4446  0.3805  0.2613
   34POPC   H8R 4563   4.050   5.333   9.551  0.2258  0.2089  0.0599
   34POPC   H8S 4564   3.907   5.271   9.453 -1.0171  1.1283  2.1593
   34POPC   C29 4565   4.107   5.220   9.373 -0.0708  0.3110 -0.1684
   34POPC   H91 4566   4.207   5.197   9.415 -0.2180  0.1482  0.0956
   34POPC  C210 4567   4.083   5.219   9.242 -0.1220  0.0220 -0.5561
   34POPC  H101 4568   4.172   5.198   9.181  0.5438  1.1711 -0.0086
   34POPC  C211 4569   3.961   5.253   9.168  0.0603  0.4927  0.0321
   34POPC  H11R 4570   3.873   5.269   9.234  1.2269 -0.4590  1.8844
   34POPC  H11S 4571   3.934   5.163   9.109 -1.1501  1.2711 -0.6481
   34POPC  C212 4572   3.981   5.365   9.062 -0.1737  0.0216  0.2593
   34POPC  H12R 4573   3.892   5.354   8.996 -1.7714 -1.6714  2.5299
   34POPC  H12S 4574   4.069   5.352   8.996 -0.2430 -0.7708  0.3139
   34POPC  C213 4575   3.979   5.505   9.129  0.7637 -0.5062  0.7127
   34POPC  H13R 4576   4.060   5.573   9.097 -1.1480  2.2005  1.2313
   34POPC  H13S 4577   3.981   5.491   9.239  1.4069  0.7319  0.8773
   34POPC  C214 4578   3.848   5.587   9.117 -0.1051 -0.2267  0.2388
   34POPC  H14R 4579   3.855   5.684   9.172  0.3355  1.4632 -2.5680
   34POPC  H14S 4580   3.758   5.529   9.143 -0.5085 -0.4595 -1.5197
   34POPC  C215 4581   3.821   5.633   8.967 -0.3801  0.4234  0.4082
   34POPC  H15R 4582   3.718   5.673   8.954 -0.8744 -0.4881  1.3843
   34POPC  H15S 4583   3.831   5.551   8.893  0.4726  2.6209 -2.0822
   34POPC  C216 4584   3.915   5.748   8.922 -0.7708 -0.2712 -0.2987
   34POPC  H16R 4585   4.018   5.706   8.922  0.1564  1.7951  1.3937
   34POPC  H16S 4586   3.913   5.836   8.990 -0.2645  0.8994 -1.7544
   34POPC  C217 4587   3.877   5.791   8.778  0.2700  0.1652  0.2423
   34POPC  H17R 4588   3.793   5.863   8.781 -0.0155  0.2307 -3.9295
   34POPC  H17S 4589   3.843   5.702   8.720 -0.1127  0.3456  0.1831
   34POPC  C218 4590   3.981   5.870   8.700 -0.1992 -0.3671 -0.2336
   34POPC  H18R 4591   4.065   5.804   8.669 -1.6624 -2.2921 -0.2768
   34POPC  H18S 4592   4.026   5.948   8.766 -0.8537 -0.7487  0.6835
   34POPC  H18T 4593   3.940   5.909   8.604 -0.2934  0.3165  0.0777
   34POPC   C33 4594   3.779   4.608  10.029  0.1214  0.2183 -0.2167
   34POPC   H3X 4595   3.876   4.645  10.069  0.3901  1.2190 -1.7158
   34POPC   H3Y 4596   3.701   4.687  10.032 -0.5588 -0.4574  0.9623
   34POPC   C34 4597   3.798   4.557   9.884 -0.3459 -0.2507 -0.0062
   34POPC   H4X 4598   3.709   4.504   9.846 -1.4046  0.7434  0.9931
   34POPC   H4Y 4599   3.891   4.497   9.877 -0.1685 -0.2670  1.9112
   34POPC   C35 4600   3.812   4.675   9.784  0.1567  0.0914 -0.2323
   34POPC   H5X 4601   3.911   4.723   9.797  0.3932  0.4920 -2.8183
   34POPC   H5Y 4602   3.729   4.746   9.801  0.3334 -0.1504  1.7846
   34POPC   C36 4603   3.818   4.619   9.643  0.2375 -0.2227  0.1975
   34POPC   H6X 4604   3.730   4.554   9.623  0.4354  0.2411 -2.5514
   34POPC   H6Y 4605   3.911   4.558   9.639  0.8769  0.4223  3.1581
   34POPC   C37 4606   3.830   4.733   9.541 -0.0102  1.0222 -0.4312
   34POPC   H7X 4607   3.927   4.783   9.565 -0.4020  1.0852  1.1374
   34POPC   H7Y 4608   3.744   4.801   9.558 -1.4644 -0.8330 -0.0591
   34POPC   C38 4609   3.825   4.689   9.397  0.6628 -0.1474 -0.2363
   34POPC   H8X 4610   3.739   4.621   9.376  1.1162  0.2705 -4.2488
   34POPC   H8Y 4611   3.912   4.628   9.366  0.2578 -1.5276  1.1796
   34POPC   C39 4612   3.822   4.798   9.292 -0.8744  0.2340  0.1779
   34POPC   H9X 4613   3.807   4.732   9.204 -1.4361 -0.6116  0.8870
   34POPC   H9Y 4614   3.917   4.855   9.298  0.1774 -1.4670  0.4491
   34POPC  C310 4615   3.693   4.873   9.291 -0.4196  1.2209 -1.0781
   34POPC  H10X 4616   3.704   4.963   9.355 -0.3994  0.1572  0.4478
   34POPC  H10Y 4617   3.612   4.815   9.338  2.7757 -0.4913  2.9117
   34POPC  C311 4618   3.660   4.925   9.151  0.6933 -0.2229  0.3507
   34POPC  H11X 4619   3.635   4.841   9.083 -0.3072 -0.9965  1.6376
   34POPC  H11Y 4620   3.757   4.966   9.116  2.6686 -3.0459  2.0371
   34POPC  C312 4621   3.553   5.035   9.151  0.1101 -0.5725 -0.6158
   34POPC  H12X 4622   3.543   5.057   9.043 -0.1146  0.9653 -0.3073
   34POPC  H12Y 4623   3.604   5.118   9.205  1.8444 -0.8034 -1.8351
   34POPC  C313 4624   3.419   5.013   9.218  0.9583 -0.3335  0.4839
   34POPC  H13X 4625   3.435   4.996   9.327  2.2088 -0.6448  0.2603
   34POPC  H13Y 4626   3.378   4.920   9.175 -1.3036  1.3342 -1.2300
   34POPC  C314 4627   3.317   5.132   9.197 -0.1672  0.2238 -0.4058
   34POPC  H14X 4628   3.349   5.213   9.266  1.4868 -0.2221 -0.5950
   34POPC  H14Y 4629   3.224   5.097   9.246 -1.1721  0.7964 -1.8523
   34POPC  C315 4630   3.298   5.177   9.055 -0.1100 -0.2474  0.5991
   34POPC  H15X 4631   3.396   5.214   9.020  0.2022 -1.1063  0.5431
   34POPC  H15Y 4632   3.230   5.265   9.055  1.9556  1.4155  1.0677
   34POPC  C316 4633   3.245   5.081   8.949  0.1908 -0.3727 -0.1461
   34POPC  H16X 4634   3.263   5.125   8.849  0.9190  0.8583  0.5031
   34POPC  H16Y 4635   3.134   5.073   8.953  0.0920  0.8605  0.2222
   34POPC  H16Z 4636   3.283   4.978   8.963  1.1434  0.1359  1.3713
   35POPC     N 4637   2.479   4.003  11.324 -0.5250  0.0535  0.2398
   35POPC   C12 4638   2.423   3.873  11.269 -0.4901 -0.2436  0.4873
   35POPC  H12A 4639   2.445   3.787  11.331 -1.5134 -0.5471  0.4550
   35POPC  H12B 4640   2.494   3.852  11.190  0.9974 -2.8543  2.3241
   35POPC   C13 4641   2.626   3.980  11.340  1.0152 -0.4171 -0.9845
   35POPC  H13A 4642   2.643   3.909  11.420 -0.7264  0.4526  0.2261
   35POPC  H13B 4643   2.672   3.926  11.259  1.5632 -2.2596  0.4709
   35POPC  H13C 4644   2.684   4.069  11.359  0.8015 -0.8192  2.0034
   35POPC   C14 4645   2.474   4.119  11.227 -0.3617 -0.0118  0.0409
   35POPC  H14A 4646   2.519   4.210  11.265 -0.1110  0.4154 -1.2137
   35POPC  H14B 4647   2.515   4.084  11.133 -1.5783  1.1524 -0.9630
   35POPC  H14C 4648   2.370   4.141  11.211 -1.4066 -2.1774  3.0806
   35POPC   C15 4649   2.419   4.036  11.459 -0.1904 -0.4413 -0.7197
   35POPC  H15A 4650   2.311   4.039  11.460 -0.2414 -1.6798 -0.7327
   35POPC  H15B 4651   2.440   4.139  11.484  0.3380 -1.1643  2.2310
   35POPC  H15C 4652   2.439   3.962  11.535  1.0524 -1.3572 -1.8968
   35POPC   C11 4653   2.274   3.869  11.232  0.3949 -0.6938 -0.5863
   35POPC  H11A 4654   2.214   3.909  11.317  1.8294  1.2184 -0.4281
   35POPC  H11B 4655   2.250   3.761  11.218  2.1168 -0.9856 -1.5215
   35POPC     P 4656   2.140   4.028  11.086 -0.3686 -0.2328  0.4058
   35POPC   O13 4657   2.204   4.156  11.073  0.1302  0.0961  0.8716
   35POPC   O14 4658   2.035   4.015  11.189  0.0888  0.0831 -0.5299
   35POPC   O12 4659   2.260   3.933  11.112  0.4873 -0.0909  0.5491
   35POPC   O11 4660   2.076   3.991  10.945  0.6962  0.1566  0.0570
   35POPC    C1 4661   2.129   3.908  10.843 -0.3599  0.2994  0.2611
   35POPC    HA 4662   2.051   3.854  10.784 -1.4173  1.3324  0.6767
   35POPC    HB 4663   2.205   3.833  10.874 -1.3870 -0.6642  0.5245
   35POPC    C2 4664   2.195   3.999  10.735  0.5101 -0.2274  0.0201
   35POPC    HS 4665   2.277   4.051  10.789 -1.3521  1.0956  1.7280
   35POPC   O21 4666   2.101   4.095  10.691 -0.4140  0.2698 -0.7642
   35POPC   C21 4667   2.143   4.200  10.626  0.1374 -0.0958  0.8752
   35POPC   O22 4668   2.259   4.230  10.608 -1.2238 -0.2057  0.3691
   35POPC   C22 4669   2.020   4.268  10.554  0.1868  0.3467 -0.1915
   35POPC   H2R 4670   2.007   4.373  10.588  0.6125  0.4168 -0.2325
   35POPC   H2S 4671   1.930   4.210  10.582  0.3429 -0.7649 -1.8307
   35POPC    C3 4672   2.273   3.928  10.620 -0.5939  0.3427  0.4177
   35POPC    HX 4673   2.348   3.860  10.665 -2.2610 -1.0760  1.1591
   35POPC    HY 4674   2.323   4.015  10.572 -1.4395  2.6305  3.3408
   35POPC   O31 4675   2.191   3.862  10.522  0.5269 -0.1668 -0.4636
   35POPC   C31 4676   2.165   3.737  10.547 -0.2572 -0.5692 -0.5224
   35POPC   O32 4677   2.214   3.666  10.637 -0.5416  0.2168 -0.3956
   35POPC   C32 4678   2.059   3.685  10.442 -0.7717 -1.1054 -0.4145
   35POPC   H2X 4679   1.989   3.770  10.434 -0.9896 -1.1423  0.8697
   35POPC   H2Y 4680   2.009   3.599  10.493 -3.7148 -0.4913 -1.9823
   35POPC   C23 4681   2.040   4.284  10.404  0.0023 -0.5084  0.7185
   35POPC   H3R 4682   2.144   4.312  10.378 -0.2708 -0.4280 -0.3395
   35POPC   H3S 4683   1.969   4.363  10.372 -0.0757 -1.5040 -1.8114
   35POPC   C24 4684   1.999   4.154  10.342  0.2500 -0.1928 -0.0860
   35POPC   H4R 4685   1.904   4.120  10.388  0.6663  1.3023  1.9981
   35POPC   H4S 4686   2.070   4.080  10.386  0.7301 -0.7940 -1.7527
   35POPC   C25 4687   1.990   4.139  10.188  0.2592 -0.2933 -0.1944
   35POPC   H5R 4688   2.082   4.178  10.141  0.2996 -0.2542 -0.0825
   35POPC   H5S 4689   1.907   4.196  10.141  0.9058  0.8917  0.0724
   35POPC   C26 4690   1.989   3.990  10.156 -0.3700 -0.2810  0.2146
   35POPC   H6R 4691   1.902   3.945  10.209 -0.9561 -0.3629 -0.7803
   35POPC   H6S 4692   2.082   3.947  10.198 -0.8462 -0.3980  1.1875
   35POPC   C27 4693   1.970   3.985  10.005 -0.2971  0.3043  0.1016
   35POPC   H7R 4694   2.069   4.015   9.966  1.0202 -1.8569  1.5611
   35POPC   H7S 4695   1.892   4.053   9.965 -1.5321 -0.0596  1.7718
   35POPC   C28 4696   1.916   3.848   9.945 -0.1528 -0.2994 -0.4504
   35POPC   H8R 4697   1.875   3.873   9.845 -1.8461  0.9624  0.5137
   35POPC   H8S 4698   1.834   3.817  10.013 -0.0434 -1.1778 -0.6948
   35POPC   C29 4699   2.031   3.749   9.939  0.0510  0.0757  0.1744
   35POPC   H91 4700   2.106   3.767  10.017  2.7677  0.9232 -2.4639
   35POPC  C210 4701   2.043   3.664   9.839 -0.5647 -0.0294  0.4009
   35POPC  H101 4702   2.136   3.605   9.836  0.5579  1.6366  0.9377
   35POPC  C211 4703   1.954   3.646   9.722  0.4981  0.7233 -0.0740
   35POPC  H11R 4704   1.854   3.681   9.755  1.5635  1.1917  2.9551
   35POPC  H11S 4705   1.948   3.536   9.704  2.0262  0.5115  0.5055
   35POPC  C212 4706   2.000   3.713   9.597 -1.0030  0.2406 -0.1573
   35POPC  H12R 4707   2.012   3.824   9.601  2.3926 -0.0443  0.9225
   35POPC  H12S 4708   1.928   3.697   9.514 -0.6845  1.1146 -0.6138
   35POPC  C213 4709   2.143   3.666   9.547 -0.1937 -0.3831  0.1124
   35POPC  H13R 4710   2.162   3.557   9.547 -0.9556 -0.5755  2.9784
   35POPC  H13S 4711   2.218   3.722   9.606  1.8163 -1.7167 -1.0652
   35POPC  C214 4712   2.180   3.723   9.406 -0.6172 -0.1293  0.7427
   35POPC  H14R 4713   2.182   3.832   9.428 -1.7599 -0.1002  0.7915
   35POPC  H14S 4714   2.093   3.711   9.338  0.7490 -1.0572 -0.9197
   35POPC  C215 4715   2.303   3.672   9.339  0.3499  0.1331  0.0853
   35POPC  H15R 4716   2.291   3.564   9.317  3.0081 -0.6423  1.8890
   35POPC  H15S 4717   2.401   3.691   9.389  0.4298  1.2147 -0.4494
   35POPC  C216 4718   2.318   3.750   9.202  0.1864  0.4276  0.0903
   35POPC  H16R 4719   2.350   3.856   9.215 -1.1622  0.7066  1.5893
   35POPC  H16S 4720   2.219   3.748   9.150  1.5856 -0.2887 -2.7297
   35POPC  C217 4721   2.414   3.667   9.113 -0.1170 -0.9405 -0.7938
   35POPC  H17R 4722   2.420   3.557   9.125  1.0633 -0.8114 -0.0908
   35POPC  H17S 4723   2.517   3.701   9.135 -0.5161  1.4595 -2.2418
   35POPC  C218 4724   2.381   3.698   8.967 -0.2011  0.7076  0.2844
   35POPC  H18R 4725   2.436   3.793   8.949  0.3628  0.7555  2.0255
   35POPC  H18S 4726   2.273   3.709   8.944  0.5547  0.4253 -4.2153
   35POPC  H18T 4727   2.417   3.618   8.899 -1.5277 -0.7597  1.2484
   35POPC   C33 4728   2.128   3.654  10.308 -0.2046 -0.8353  0.1511
   35POPC   H3X 4729   2.196   3.733  10.270 -1.5407 -0.5051 -1.6684
   35POPC   H3Y 4730   2.052   3.642  10.228 -0.3810  0.1997  0.1496
   35POPC   C34 4731   2.219   3.526  10.325 -0.4963  0.4033 -0.0384
   35POPC   H4X 4732   2.165   3.442  10.372 -0.8808  2.1403  2.9139
   35POPC   H4Y 4733   2.303   3.545  10.395  0.3309 -2.4851 -0.1340
   35POPC   C35 4734   2.279   3.480  10.195 -0.1659 -0.5919 -0.0269
   35POPC   H5X 4735   2.355   3.400  10.209  0.5672 -0.2558 -1.7221
   35POPC   H5Y 4736   2.332   3.568  10.152 -1.2777  1.7208  2.9962
   35POPC   C36 4737   2.179   3.420  10.091 -0.2863  0.1468 -0.0610
   35POPC   H6X 4738   2.093   3.489  10.082 -1.3093 -1.0703 -0.0240
   35POPC   H6Y 4739   2.137   3.327  10.137  2.8508 -1.1598  0.4523
   35POPC   C37 4740   2.246   3.377   9.962 -0.3086 -0.0080  0.6137
   35POPC   H7X 4741   2.327   3.302   9.978 -0.1883 -0.2846 -1.0233
   35POPC   H7Y 4742   2.286   3.474   9.927  0.7413  0.4474  2.9199
   35POPC   C38 4743   2.145   3.310   9.872 -0.1667  0.8425  0.3290
   35POPC   H8X 4744   2.056   3.372   9.849 -2.1070 -1.9051 -0.0732
   35POPC   H8Y 4745   2.113   3.219   9.928  1.4095  0.3453  0.4695
   35POPC   C39 4746   2.185   3.267   9.734 -0.5560 -0.2141 -0.3965
   35POPC   H9X 4747   2.282   3.213   9.739 -0.1794  0.5277  2.6585
   35POPC   H9Y 4748   2.203   3.357   9.672  1.1632  0.7183  1.3366
   35POPC  C310 4749   2.079   3.180   9.680  0.5695 -0.1949  0.1600
   35POPC  H10X 4750   1.975   3.217   9.687  0.6922 -0.2140  3.7373
   35POPC  H10Y 4751   2.071   3.087   9.740  2.5733 -1.1195 -0.8938
   35POPC  C311 4752   2.114   3.154   9.532 -0.3876 -0.0015  0.5031
   35POPC  H11X 4753   2.219   3.121   9.520  0.3881  2.3919  0.1884
   35POPC  H11Y 4754   2.117   3.254   9.483 -0.9454  1.5983  3.4652
   35POPC  C312 4755   2.011   3.066   9.448 -0.0428 -0.2952  0.0242
   35POPC  H12X 4756   1.914   3.119   9.443  0.5544  0.9926  1.3591
   35POPC  H12Y 4757   2.007   2.967   9.498  1.0598 -0.2942  0.1337
   35POPC  C313 4758   2.053   3.040   9.307 -1.1753 -0.5747  0.8324
   35POPC  H13X 4759   2.124   2.955   9.308  0.7797  0.9915  2.4022
   35POPC  H13Y 4760   2.109   3.131   9.278  0.8365 -1.6656  1.0781
   35POPC  C314 4761   1.946   3.009   9.199  0.2549  0.4200 -0.3903
   35POPC  H14X 4762   1.887   3.103   9.191 -0.6082  0.0759  1.2991
   35POPC  H14Y 4763   1.883   2.925   9.236 -1.0510  2.0433  1.2648
   35POPC  C315 4764   2.007   2.963   9.070  0.1991  0.7822 -1.0527
   35POPC  H15X 4765   1.920   2.929   9.011 -0.7853 -1.8200  1.6785
   35POPC  H15Y 4766   2.077   2.878   9.084 -0.4906  0.1264 -1.5191
   35POPC  C316 4767   2.086   3.067   8.994 -0.2387 -0.6404 -0.0099
   35POPC  H16X 4768   2.165   3.116   9.054 -1.7388  1.3207  0.4416
   35POPC  H16Y 4769   2.017   3.147   8.962 -0.6963 -1.0140  0.0338
   35POPC  H16Z 4770   2.133   3.021   8.904 -1.7854 -1.0991 -0.6068
   36POPC     N 4771   2.090   2.675  11.086 -0.4670 -0.4627  0.3518
   36POPC   C12 4772   2.221   2.611  11.143  0.0581 -0.5542  0.4165
   36POPC  H12A 4773   2.201   2.563  11.237 -0.0739  2.6313  2.1395
   36POPC  H12B 4774   2.291   2.692  11.156 -1.0604  0.5328 -0.1137
   36POPC   C13 4775   2.018   2.598  10.981  0.0182  0.0245  0.8584
   36POPC  H13A 4776   2.084   2.595  10.895 -0.3850  2.1976  0.3989
   36POPC  H13B 4777   1.993   2.503  11.024 -2.0526 -0.0942 -0.4737
   36POPC  H13C 4778   1.932   2.649  10.940  2.5963  1.7238 -3.1443
   36POPC   C14 4779   1.986   2.715  11.187  0.1443  0.3156  0.2493
   36POPC  H14A 4780   1.903   2.760  11.134  0.6068 -1.5222 -2.1935
   36POPC  H14B 4781   1.959   2.626  11.242  0.2317 -2.1456 -3.3898
   36POPC  H14C 4782   2.026   2.796  11.248  4.2415 -1.0285 -0.3271
   36POPC   C15 4783   2.133   2.803  11.011  1.2292  0.5163 -0.4477
   36POPC  H15A 4784   2.198   2.789  10.926  0.6090 -0.8150 -0.7437
   36POPC  H15B 4785   2.165   2.880  11.080 -2.7494  0.4502  1.7480
   36POPC  H15C 4786   2.044   2.843  10.965 -1.4009 -2.9585  1.1617
   36POPC   C11 4787   2.291   2.510  11.060  0.5620  0.8942  0.3551
   36POPC  H11A 4788   2.206   2.443  11.034 -0.7871  2.0814  1.5314
   36POPC  H11B 4789   2.368   2.450  11.114 -0.3623  1.0577  1.9179
   36POPC     P 4790   2.476   2.659  10.954  0.0416 -0.1443 -0.3549
   36POPC   O13 4791   2.577   2.597  10.866  0.1877  0.4066  0.7985
   36POPC   O14 4792   2.505   2.697  11.095 -0.2584 -0.1687  0.6723
   36POPC   O12 4793   2.346   2.570  10.942  0.1082  0.2043  0.1677
   36POPC   O11 4794   2.421   2.791  10.875 -0.3937  0.5929 -0.2774
   36POPC    C1 4795   2.396   2.798  10.736  0.4301  0.0486  0.6465
   36POPC    HA 4796   2.291   2.768  10.717  0.2558  0.5725  0.7581
   36POPC    HB 4797   2.465   2.730  10.682  0.4983 -1.4334  2.5130
   36POPC    C2 4798   2.419   2.949  10.697  0.3731  0.4140  0.1813
   36POPC    HS 4799   2.337   3.006  10.746  0.4489 -0.4193  1.3200
   36POPC   O21 4800   2.418   2.983  10.558  0.0611 -0.4867  0.1475
   36POPC   C21 4801   2.312   2.948  10.497 -0.7681 -0.3536  0.1416
   36POPC   O22 4802   2.205   2.911  10.544 -0.3641  0.0910 -0.5880
   36POPC   C22 4803   2.332   2.957  10.345  0.6432 -0.1252 -0.2189
   36POPC   H2R 4804   2.407   2.877  10.327  0.0570 -1.6534  3.3297
   36POPC   H2S 4805   2.374   3.054  10.311  2.9582 -1.5226 -1.6225
   36POPC    C3 4806   2.551   2.984  10.764 -0.5802  0.0485 -0.1950
   36POPC    HX 4807   2.620   2.901  10.736 -2.4961 -0.5732 -3.6818
   36POPC    HY 4808   2.530   2.996  10.872  0.4248 -3.7066  0.5507
   36POPC   O31 4809   2.595   3.114  10.714  0.3754  0.1489 -0.2015
   36POPC   C31 4810   2.696   3.114  10.629  0.0671  0.2748  0.6209
   36POPC   O32 4811   2.765   3.019  10.601  0.2528 -0.1163  0.3594
   36POPC   C32 4812   2.708   3.249  10.562 -0.0401  0.0606 -0.1647
   36POPC   H2X 4813   2.765   3.324  10.621 -2.6848  1.2372  1.0464
   36POPC   H2Y 4814   2.603   3.282  10.551 -0.3299 -0.6697  0.3078
   36POPC   C23 4815   2.198   2.925  10.264 -0.4967 -0.9428  0.3244
   36POPC   H3R 4816   2.206   2.976  10.165 -0.1952  1.9439  1.7638
   36POPC   H3S 4817   2.100   2.953  10.308  1.1625  1.5458  2.6973
   36POPC   C24 4818   2.182   2.775  10.221 -0.3445 -0.3431  0.5670
   36POPC   H4R 4819   2.170   2.724  10.320 -1.8041 -0.8459  0.1549
   36POPC   H4S 4820   2.275   2.730  10.178  0.2057 -0.8990  2.2377
   36POPC   C25 4821   2.059   2.755  10.133  0.0646 -0.3461 -0.7270
   36POPC   H5R 4822   1.977   2.824  10.164  0.8151 -0.2543  1.2029
   36POPC   H5S 4823   2.032   2.647  10.133 -3.2122  0.3564  0.0698
   36POPC   C26 4824   2.087   2.793   9.987 -0.1106 -0.0752 -0.7079
   36POPC   H6R 4825   2.128   2.896   9.978  0.0767 -0.0393  0.4001
   36POPC   H6S 4826   1.989   2.795   9.934 -0.9058 -2.6602  0.5148
   36POPC   C27 4827   2.177   2.697   9.907  0.4454  0.4714 -0.2771
   36POPC   H7R 4828   2.128   2.600   9.888 -1.4982  1.2721  0.4187
   36POPC   H7S 4829   2.267   2.682   9.971 -0.4605 -2.9521  0.3839
   36POPC   C28 4830   2.220   2.762   9.772  0.0293  0.3300  0.7033
   36POPC   H8R 4831   2.292   2.695   9.720 -0.5049  1.2521 -1.3341
   36POPC   H8S 4832   2.271   2.858   9.793  2.6811 -0.3879 -1.8746
   36POPC   C29 4833   2.103   2.772   9.667  0.1047  0.0565 -0.0623
   36POPC   H91 4834   2.014   2.828   9.699  0.0514 -0.4961  0.7731
   36POPC  C210 4835   2.101   2.698   9.557  0.2188  0.2174  0.8222
   36POPC  H101 4836   2.017   2.719   9.489  1.7722  0.6696 -1.0515
   36POPC  C211 4837   2.208   2.600   9.507 -0.1289 -0.5004  0.3277
   36POPC  H11R 4838   2.210   2.506   9.567 -0.2504  0.0508  1.2084
   36POPC  H11S 4839   2.311   2.641   9.511 -0.3858  0.1676  0.2059
   36POPC  C212 4840   2.173   2.571   9.358  0.2248  0.0254 -0.5542
   36POPC  H12R 4841   2.182   2.666   9.300  1.4347  1.2550  1.5156
   36POPC  H12S 4842   2.066   2.540   9.352  0.2110 -0.0824  0.1255
   36POPC  C213 4843   2.257   2.473   9.285 -0.3330  0.6642 -0.0862
   36POPC  H13R 4844   2.260   2.368   9.322 -1.1134  0.2494 -1.1529
   36POPC  H13S 4845   2.363   2.506   9.291  0.1166 -0.5822 -0.7541
   36POPC  C214 4846   2.205   2.465   9.136  0.0973 -0.0772 -0.2903
   36POPC  H14R 4847   2.207   2.563   9.082 -0.3329  1.0108  1.6045
   36POPC  H14S 4848   2.096   2.448   9.137 -0.5510  3.2504  1.3229
   36POPC  C215 4849   2.280   2.358   9.058 -0.3935 -0.5610  0.4973
   36POPC  H15R 4850   2.231   2.261   9.082 -1.9610  0.0191 -0.2344
   36POPC  H15S 4851   2.384   2.352   9.098 -0.2183  1.1846  0.3716
   36POPC  C216 4852   2.271   2.366   8.904 -0.1118 -0.3629  0.0397
   36POPC  H16R 4853   2.301   2.468   8.872 -1.0065  0.5544  1.9483
   36POPC  H16S 4854   2.163   2.350   8.884 -0.5534 -1.1501  2.6180
   36POPC  C217 4855   2.353   2.254   8.834 -0.0013 -0.0857 -0.5943
   36POPC  H17R 4856   2.306   2.154   8.832  0.8428 -0.5889  1.5994
   36POPC  H17S 4857   2.451   2.249   8.886 -0.5994  1.6820  0.8260
   36POPC  C218 4858   2.358   2.301   8.690 -0.1400  0.1793 -0.7004
   36POPC  H18R 4859   2.418   2.228   8.631 -0.0328  0.3614 -0.8180
   36POPC  H18S 4860   2.404   2.402   8.677 -1.8129  0.7908 -2.4100
   36POPC  H18T 4861   2.253   2.302   8.654  0.3538  1.5948 -2.2434
   36POPC   C33 4862   2.758   3.239  10.414 -0.3201  0.1939  0.2590
   36POPC   H3X 4863   2.845   3.170  10.420 -0.9288 -0.7022 -0.8531
   36POPC   H3Y 4864   2.793   3.336  10.375  1.0151 -1.7632 -3.9992
   36POPC   C34 4865   2.664   3.179  10.311  0.4416  0.6129  0.2076
   36POPC   H4X 4866   2.570   3.239  10.315 -1.1941 -1.8184 -0.0452
   36POPC   H4Y 4867   2.640   3.074  10.337  2.5128 -0.0078 -0.1780
   36POPC   C35 4868   2.717   3.174  10.168  0.3269  0.4000 -0.2206
   36POPC   H5X 4869   2.816   3.124  10.162 -0.1956 -0.6392 -0.4282
   36POPC   H5Y 4870   2.729   3.283  10.149 -0.7799  0.4130 -0.9603
   36POPC   C36 4871   2.623   3.091  10.076 -0.3800 -0.1725 -0.0177
   36POPC   H6X 4872   2.522   3.138  10.073  0.4875  1.9263  1.1114
   36POPC   H6Y 4873   2.605   2.988  10.113 -0.4674  0.1075  0.7409
   36POPC   C37 4874   2.669   3.079   9.934 -0.5769 -0.4853  0.1502
   36POPC   H7X 4875   2.759   3.014   9.940  0.2989  0.7176  0.1822
   36POPC   H7Y 4876   2.705   3.175   9.893 -0.9925 -1.0400 -1.6175
   36POPC   C38 4877   2.571   3.017   9.838 -0.4611 -0.0191  0.3861
   36POPC   H8X 4878   2.470   3.063   9.847 -0.8353 -0.9966  1.4900
   36POPC   H8Y 4879   2.572   2.906   9.851  1.1021 -0.3317 -1.8728
   36POPC   C39 4880   2.612   3.030   9.689 -0.4341  0.3208 -0.3785
   36POPC   H9X 4881   2.713   2.983   9.687 -1.6299 -2.4175 -0.9180
   36POPC   H9Y 4882   2.629   3.136   9.660 -0.6812  0.9951  1.7834
   36POPC  C310 4883   2.499   2.977   9.600 -0.0784 -0.4747 -0.8725
   36POPC  H10X 4884   2.413   3.046   9.613  0.8244  0.2321  2.5424
   36POPC  H10Y 4885   2.455   2.879   9.626  1.9842 -1.0523  0.7222
   36POPC  C311 4886   2.545   2.970   9.449 -0.0848  0.1515  0.0013
   36POPC  H11X 4887   2.638   2.911   9.456 -0.4396 -0.2837  1.2329
   36POPC  H11Y 4888   2.580   3.073   9.427 -0.7944  0.3808 -0.0879
   36POPC  C312 4889   2.436   2.917   9.354  0.4059  0.3271 -0.0702
   36POPC  H12X 4890   2.347   2.983   9.363  1.4550  1.7870  0.0282
   36POPC  H12Y 4891   2.404   2.819   9.394  2.0389 -0.5087 -0.7030
   36POPC  C313 4892   2.477   2.909   9.203 -0.2747 -0.7370 -0.6566
   36POPC  H13X 4893   2.577   2.860   9.201  1.4958  2.3363  1.8020
   36POPC  H13Y 4894   2.495   3.016   9.178 -0.9474 -0.1568  1.1695
   36POPC  C314 4895   2.382   2.840   9.111 -0.3961 -0.0304 -0.0400
   36POPC  H14X 4896   2.282   2.887   9.119 -0.7395 -0.6797 -0.3894
   36POPC  H14Y 4897   2.381   2.732   9.137 -1.4783 -0.2079 -0.7501
   36POPC  C315 4898   2.433   2.837   8.967 -0.4872 -1.1720 -0.0959
   36POPC  H15X 4899   2.538   2.805   8.981  0.2099  0.5377 -1.0841
   36POPC  H15Y 4900   2.431   2.944   8.935 -3.4873 -0.0125  3.2885
   36POPC  C316 4901   2.356   2.753   8.873 -0.3464  0.5116 -0.3469
   36POPC  H16X 4902   2.375   2.649   8.907  1.3958  0.5401 -1.1135
   36POPC  H16Y 4903   2.405   2.758   8.773 -0.2246 -0.2245 -0.3300
   36POPC  H16Z 4904   2.249   2.780   8.862 -0.0200  1.7492 -0.6371
   37POPC     N 4905   1.681   5.016   6.144 -0.6910  0.1534  0.2476
   37POPC   C12 4906   1.556   5.089   6.185 -0.2216 -0.7944  0.2583
   37POPC  H12A 4907   1.479   5.013   6.179 -0.7692 -0.2173 -0.1041
   37POPC  H12B 4908   1.526   5.163   6.112  2.0137 -0.1033 -0.0218
   37POPC   C13 4909   1.795   5.095   6.147  0.4468  0.1761  0.1983
   37POPC  H13A 4910   1.791   5.165   6.065 -1.0794 -1.5093 -1.2648
   37POPC  H13B 4911   1.806   5.153   6.237 -1.3970  2.2238 -0.8185
   37POPC  H13C 4912   1.888   5.040   6.139 -0.7392 -1.7760 -1.2968
   37POPC   C14 4913   1.708   4.888   6.228  0.4262  1.1619 -0.1922
   37POPC  H14A 4914   1.723   4.926   6.328  0.1762  1.5683 -0.3105
   37POPC  H14B 4915   1.615   4.834   6.221  0.9775  0.2238 -0.4474
   37POPC  H14C 4916   1.786   4.823   6.190 -0.0625  0.6643 -0.3529
   37POPC   C15 4917   1.681   4.978   5.999 -0.5501 -0.6032  0.0937
   37POPC  H15A 4918   1.658   5.055   5.927  1.3430 -0.8128 -0.7895
   37POPC  H15B 4919   1.599   4.910   5.979 -0.7879 -0.0034 -1.0840
   37POPC  H15C 4920   1.770   4.937   5.954  0.3053  2.9851 -1.8855
   37POPC   C11 4921   1.549   5.161   6.318  0.7090  0.6383  0.1959
   37POPC  H11A 4922   1.449   5.199   6.349  0.6824 -0.2519  1.2792
   37POPC  H11B 4923   1.618   5.247   6.306  1.4394  0.1446  0.8212
   37POPC     P 4924   1.665   5.103   6.554  0.3898 -0.6393 -0.1404
   37POPC   O13 4925   1.804   5.137   6.535  0.3609  0.3615 -0.1752
   37POPC   O14 4926   1.638   4.998   6.654 -0.3541  0.6533 -0.1209
   37POPC   O12 4927   1.594   5.066   6.418  0.2845 -0.4195  0.0318
   37POPC   O11 4928   1.582   5.233   6.604 -0.1375  0.3026  0.2692
   37POPC    C1 4929   1.460   5.217   6.668 -0.1378  0.1642  0.5428
   37POPC    HA 4930   1.479   5.174   6.769 -0.4800 -1.5550 -0.0869
   37POPC    HB 4931   1.400   5.138   6.618  1.8071 -0.3311 -1.1227
   37POPC    C2 4932   1.376   5.349   6.675  0.4650 -0.0696 -0.6645
   37POPC    HS 4933   1.370   5.386   6.570 -0.1587  2.3560  0.1661
   37POPC   O21 4934   1.437   5.448   6.761 -0.3665 -0.2506  0.2041
   37POPC   C21 4935   1.387   5.567   6.767  0.8146 -0.8444  0.6787
   37POPC   O22 4936   1.312   5.614   6.682 -0.1554  0.1303 -0.4723
   37POPC   C22 4937   1.437   5.635   6.892  0.2175  0.5900  0.3687
   37POPC   H2R 4938   1.524   5.695   6.859  1.1796 -1.3973 -0.9093
   37POPC   H2S 4939   1.488   5.564   6.960  1.9907  1.9103  0.4813
   37POPC    C3 4940   1.230   5.316   6.730 -0.3920 -0.7794 -0.1212
   37POPC    HX 4941   1.195   5.242   6.655  0.7923  0.6502 -2.1862
   37POPC    HY 4942   1.163   5.404   6.714  2.9793  1.8803 -0.8035
   37POPC   O31 4943   1.220   5.281   6.871 -0.3477  0.1313 -0.3455
   37POPC   C31 4944   1.196   5.149   6.882 -0.2191 -0.3726 -0.3961
   37POPC   O32 4945   1.204   5.068   6.794  0.3241 -0.4912  0.4140
   37POPC   C32 4946   1.167   5.111   7.027 -0.0898 -0.2210  0.2690
   37POPC   H2X 4947   1.065   5.139   7.061 -0.1808  0.1031 -0.2491
   37POPC   H2Y 4948   1.230   5.183   7.083 -0.6595 -0.1870  0.8784
   37POPC   C23 4949   1.330   5.722   6.947  0.8170  0.3838 -0.4261
   37POPC   H3R 4950   1.288   5.796   6.876  0.8379  1.5353  0.7338
   37POPC   H3S 4951   1.382   5.780   7.027 -0.7781  2.4533 -0.8053
   37POPC   C24 4952   1.224   5.636   7.008  0.2878 -0.1361  0.1300
   37POPC   H4R 4953   1.216   5.535   6.963 -0.8832  0.9314 -2.1766
   37POPC   H4S 4954   1.125   5.681   6.989  0.6151 -0.1061 -1.6561
   37POPC   C25 4955   1.246   5.621   7.162 -0.1745 -0.1429  0.6569
   37POPC   H5R 4956   1.273   5.710   7.223  0.6239 -1.2631  2.0194
   37POPC   H5S 4957   1.326   5.547   7.183  0.0577  0.0127  0.3372
   37POPC   C26 4958   1.126   5.571   7.238  0.1459  0.2221  0.7796
   37POPC   H6R 4959   1.042   5.642   7.223  0.0193 -0.1807 -0.5201
   37POPC   H6S 4960   1.145   5.560   7.347  0.7323 -1.0731  0.5605
   37POPC   C27 4961   1.077   5.427   7.180  0.0747 -0.8023  0.3047
   37POPC   H7R 4962   1.168   5.364   7.186 -0.3197 -1.2827  1.5076
   37POPC   H7S 4963   1.043   5.436   7.074 -3.2347  1.9918  1.3969
   37POPC   C28 4964   0.970   5.351   7.259 -0.0873 -0.3196 -0.3076
   37POPC   H8R 4965   0.996   5.314   7.360  2.1743  1.7516 -0.0474
   37POPC   H8S 4966   0.943   5.261   7.201  0.5286 -0.6447 -0.0953
   37POPC   C29 4967   0.840   5.433   7.267  0.0096  0.1435  0.4472
   37POPC   H91 4968   0.794   5.472   7.175 -1.4502 -0.8429  0.7189
   37POPC  C210 4969   0.778   5.465   7.384 -0.2490  0.4446 -0.4835
   37POPC  H101 4970   0.678   5.509   7.388 -0.4721 -0.1513  1.6913
   37POPC  C211 4971   0.829   5.435   7.528 -0.5431 -0.4258 -0.6951
   37POPC  H11R 4972   0.849   5.327   7.540 -0.3772 -0.1776  1.7454
   37POPC  H11S 4973   0.750   5.437   7.606 -0.0344 -0.7268 -0.1707
   37POPC  C212 4974   0.946   5.517   7.585  0.5287  0.7314 -0.3199
   37POPC  H12R 4975   0.904   5.617   7.610 -1.3509 -0.0107 -0.4149
   37POPC  H12S 4976   1.029   5.546   7.517  0.7841  1.8889  0.4542
   37POPC  C213 4977   0.995   5.462   7.723 -0.0390  0.2568  0.0548
   37POPC  H13R 4978   1.060   5.373   7.710 -1.3313 -0.6485 -0.3846
   37POPC  H13S 4979   0.913   5.409   7.776  0.0483 -1.9173 -1.8353
   37POPC  C214 4980   1.060   5.568   7.814 -0.2417  0.1305 -0.5952
   37POPC  H14R 4981   0.980   5.628   7.862 -1.0863 -0.5722 -1.1069
   37POPC  H14S 4982   1.134   5.634   7.763 -0.2650  0.3133 -0.3935
   37POPC  C215 4983   1.137   5.503   7.923  0.2075  0.7494 -0.1333
   37POPC  H15R 4984   1.200   5.573   7.981 -0.7472  1.8130 -0.3444
   37POPC  H15S 4985   1.206   5.431   7.875 -1.2149  0.1731 -1.3835
   37POPC  C216 4986   1.041   5.416   8.011 -0.0132 -0.6099  0.6037
   37POPC  H16R 4987   1.000   5.326   7.960 -1.2664  0.6065 -0.6411
   37POPC  H16S 4988   0.956   5.484   8.031  1.5128  1.7913 -0.5822
   37POPC  C217 4989   1.110   5.351   8.135  0.3556 -0.4437 -0.7426
   37POPC  H17R 4990   1.035   5.290   8.190 -0.1190 -1.7750 -2.7932
   37POPC  H17S 4991   1.132   5.437   8.202 -0.7753 -0.4396 -0.3406
   37POPC  C218 4992   1.234   5.276   8.117  0.4266 -0.3190  0.5697
   37POPC  H18R 4993   1.280   5.249   8.215  1.2338 -3.1061 -0.4908
   37POPC  H18S 4994   1.308   5.347   8.072 -0.4026  1.5831  2.0322
   37POPC  H18T 4995   1.228   5.192   8.044  0.1133  1.9514 -2.2140
   37POPC   C33 4996   1.209   4.965   7.072  0.2076  0.1422 -0.4425
   37POPC   H3X 4997   1.297   4.922   7.018  0.0108 -0.6564 -0.1465
   37POPC   H3Y 4998   1.125   4.894   7.054 -0.3725  0.1723  1.9099
   37POPC   C34 4999   1.237   4.958   7.219 -0.1757  0.0584  0.2165
   37POPC   H4X 5000   1.145   5.001   7.267 -0.8585 -1.8047  0.6530
   37POPC   H4Y 5001   1.308   5.040   7.245  2.1043 -1.3167 -1.3783
   37POPC   C35 5002   1.286   4.816   7.268 -0.2094 -0.4947  0.3200
   37POPC   H5X 5003   1.396   4.801   7.264 -0.1620 -1.5209  3.2945
   37POPC   H5Y 5004   1.245   4.739   7.200 -1.7199 -0.2452  0.9145
   37POPC   C36 5005   1.250   4.783   7.414 -0.6450  0.6192 -0.1460
   37POPC   H6X 5006   1.271   4.677   7.440  0.8723  1.1437  0.9335
   37POPC   H6Y 5007   1.141   4.797   7.430 -0.7368 -1.7422  1.7957
   37POPC   C37 5008   1.331   4.873   7.500 -0.6488  0.4691 -0.3735
   37POPC   H7X 5009   1.301   4.978   7.479 -1.1793  0.6757  1.3369
   37POPC   H7Y 5010   1.439   4.886   7.474  0.1914  0.9618  2.9951
   37POPC   C38 5011   1.307   4.864   7.654 -0.0193  0.1087 -0.1603
   37POPC   H8X 5012   1.291   4.758   7.684 -1.3080  1.1359  3.2264
   37POPC   H8Y 5013   1.213   4.920   7.673  0.6261  1.9649 -2.1723
   37POPC   C39 5014   1.429   4.914   7.739  0.7966  0.1882 -0.2240
   37POPC   H9X 5015   1.517   4.860   7.697  1.4342  0.0826  1.1600
   37POPC   H9Y 5016   1.418   4.887   7.847  1.0917  1.2656  0.0821
   37POPC  C310 5017   1.458   5.063   7.728 -0.3942 -0.4981  0.1685
   37POPC  H10X 5018   1.494   5.072   7.623 -0.4946  1.2039  0.2471
   37POPC  H10Y 5019   1.536   5.095   7.800 -1.3132  2.6821 -0.0597
   37POPC  C311 5020   1.344   5.162   7.748 -0.1674 -0.2953 -0.5118
   37POPC  H11X 5021   1.363   5.227   7.836  0.4103  0.0767 -0.9038
   37POPC  H11Y 5022   1.244   5.116   7.761  0.2068 -0.6212  1.5358
   37POPC  C312 5023   1.328   5.257   7.633  0.4133 -0.3192  0.2874
   37POPC  H12X 5024   1.231   5.310   7.631  0.1042 -0.8769  0.2189
   37POPC  H12Y 5025   1.345   5.204   7.536  4.3760  1.0138  0.0570
   37POPC  C313 5026   1.442   5.363   7.625 -0.3803 -0.7262  0.8686
   37POPC  H13X 5027   1.540   5.318   7.601 -1.4718 -1.9630 -1.6714
   37POPC  H13Y 5028   1.456   5.429   7.712  0.2323 -0.2580  0.4175
   37POPC  C314 5029   1.416   5.468   7.520 -0.1851  0.1383  0.8037
   37POPC  H14X 5030   1.316   5.503   7.553 -1.1050 -1.1446 -0.5309
   37POPC  H14Y 5031   1.391   5.422   7.422  0.8939  0.4237  0.3817
   37POPC  C315 5032   1.523   5.577   7.524 -0.2714 -0.1726 -0.4912
   37POPC  H15X 5033   1.503   5.644   7.438  0.1822 -1.9451 -2.0358
   37POPC  H15Y 5034   1.624   5.532   7.516  0.0266 -0.4489  3.0752
   37POPC  C316 5035   1.519   5.662   7.656 -0.0478 -0.2262  0.1797
   37POPC  H16X 5036   1.531   5.607   7.752  0.5312 -0.9470 -0.2899
   37POPC  H16Y 5037   1.418   5.705   7.667  0.9014  2.7722 -1.6472
   37POPC  H16Z 5038   1.602   5.736   7.656  1.1369 -1.4955  0.5550
   38POPC     N 5039   2.882   2.184   6.131 -0.3174  0.5247  0.1372
   38POPC   C12 5040   2.973   2.132   6.247  0.4015 -0.2435  0.1833
   38POPC  H12A 5041   3.076   2.153   6.226  0.5913  0.5468  1.7383
   38POPC  H12B 5042   2.966   2.025   6.256  0.6411 -0.2028  0.9761
   38POPC   C13 5043   2.913   2.100   6.005 -0.0316  0.0907  0.0970
   38POPC  H13A 5044   2.853   2.136   5.923  0.8520  2.1214  0.2774
   38POPC  H13B 5045   3.016   2.097   5.971 -0.6650 -1.1075 -1.8919
   38POPC  H13C 5046   2.886   1.996   6.013 -0.1162  0.0760 -0.3346
   38POPC   C14 5047   2.734   2.170   6.166  0.3295  0.2079  0.2039
   38POPC  H14A 5048   2.713   2.226   6.256 -1.3235  1.3666 -0.8590
   38POPC  H14B 5049   2.657   2.192   6.094 -0.3273 -2.3534  0.0294
   38POPC  H14C 5050   2.713   2.067   6.191 -1.9690  0.0829 -1.8767
   38POPC   C15 5051   2.917   2.320   6.104 -0.1805 -0.2923 -0.4146
   38POPC  H15A 5052   3.023   2.333   6.091 -0.0853  0.3589  0.8829
   38POPC  H15B 5053   2.881   2.369   6.193 -2.0998 -0.8702 -0.8273
   38POPC  H15C 5054   2.866   2.359   6.016 -0.9441  0.7055  0.4481
   38POPC   C11 5055   2.949   2.191   6.383  0.0811  0.7257 -0.5673
   38POPC  H11A 5056   2.981   2.118   6.460 -1.6634 -1.3662 -1.7084
   38POPC  H11B 5057   2.840   2.196   6.403 -0.1346  1.2302 -1.7477
   38POPC     P 5058   3.158   2.352   6.385 -0.3512 -0.2120 -0.1051
   38POPC   O13 5059   3.188   2.470   6.468 -0.0266  0.6360 -0.2129
   38POPC   O14 5060   3.197   2.375   6.245  0.0575 -0.0188  0.0012
   38POPC   O12 5061   3.000   2.324   6.391 -0.2253  0.0267  0.1162
   38POPC   O11 5062   3.218   2.216   6.445  0.2688 -0.2330 -0.7344
   38POPC    C1 5063   3.313   2.126   6.389  0.3204  0.1103  0.1206
   38POPC    HA 5064   3.314   2.144   6.280  0.2766  1.1202  0.2713
   38POPC    HB 5065   3.274   2.025   6.412  3.0273 -0.3261  3.5425
   38POPC    C2 5066   3.462   2.131   6.442  0.6831 -0.1120  0.3253
   38POPC    HS 5067   3.519   2.049   6.394  1.0950  1.1784 -1.4609
   38POPC   O21 5068   3.463   2.110   6.585  0.2600  0.4108  1.2694
   38POPC   C21 5069   3.441   1.988   6.626  0.2687  0.1181  0.5266
   38POPC   O22 5070   3.419   1.888   6.562 -0.5783  0.3421  0.3235
   38POPC   C22 5071   3.461   1.996   6.774 -0.0431  0.2073  0.1009
   38POPC   H2R 5072   3.412   2.080   6.827  1.2989  1.0776  0.0156
   38POPC   H2S 5073   3.571   2.007   6.785  0.2867 -2.5035  0.3631
   38POPC    C3 5074   3.522   2.268   6.408 -0.3383 -0.0468  0.0463
   38POPC    HX 5075   3.448   2.350   6.418 -0.8025 -0.2350 -1.5730
   38POPC    HY 5076   3.542   2.266   6.299 -2.8538 -1.8220 -0.4762
   38POPC   O31 5077   3.636   2.299   6.493  0.0833 -0.6473  0.1276
   38POPC   C31 5078   3.752   2.267   6.439 -0.6508  0.2417  0.3729
   38POPC   O32 5079   3.779   2.246   6.324  0.4545 -0.0014  0.2368
   38POPC   C32 5080   3.861   2.262   6.557 -0.1916 -0.2260 -0.4255
   38POPC   H2X 5081   3.857   2.361   6.607 -0.7584  0.8453 -2.4836
   38POPC   H2Y 5082   3.955   2.247   6.500 -0.9337 -4.8300 -0.8690
   38POPC   C23 5083   3.430   1.863   6.851 -0.5954 -0.5616 -0.7101
   38POPC   H3R 5084   3.496   1.782   6.811  2.2357  1.3695 -0.2652
   38POPC   H3S 5085   3.323   1.838   6.837 -1.0527  2.0845 -2.6649
   38POPC   C24 5086   3.466   1.873   7.001 -0.5558  0.3596 -0.2257
   38POPC   H4R 5087   3.572   1.907   7.008  0.5813 -3.0115  0.9371
   38POPC   H4S 5088   3.463   1.774   7.051 -0.6898 -0.3950 -1.6790
   38POPC   C25 5089   3.383   1.981   7.083 -0.4223  0.4980  1.0276
   38POPC   H5R 5090   3.282   1.934   7.090 -0.2074 -0.4265 -1.2462
   38POPC   H5S 5091   3.368   2.080   7.036  1.5407  0.6217  0.5853
   38POPC   C26 5092   3.459   2.008   7.215  0.0968  0.3058  0.2693
   38POPC   H6R 5093   3.404   2.088   7.269 -3.8224 -1.1185 -1.2254
   38POPC   H6S 5094   3.564   2.038   7.194  0.5202 -2.5390 -2.5805
   38POPC   C27 5095   3.458   1.882   7.301 -0.0490  0.6871  0.1994
   38POPC   H7R 5096   3.499   1.793   7.249  0.0922  0.1123  1.2511
   38POPC   H7S 5097   3.353   1.862   7.333 -0.1299  0.4905 -0.1851
   38POPC   C28 5098   3.536   1.899   7.435 -0.1798 -0.7948 -0.3133
   38POPC   H8R 5099   3.508   1.998   7.477 -1.5597 -0.6844 -1.4285
   38POPC   H8S 5100   3.643   1.896   7.405  1.0801 -0.4822  3.6057
   38POPC   C29 5101   3.520   1.789   7.533 -0.1322 -0.4384 -0.1507
   38POPC   H91 5102   3.484   1.699   7.481 -0.4929 -0.3788 -0.0041
   38POPC  C210 5103   3.550   1.794   7.663  0.4556 -0.1999 -0.3186
   38POPC  H101 5104   3.541   1.716   7.740  4.0371  2.3021  3.0462
   38POPC  C211 5105   3.588   1.927   7.728 -0.3597  0.5894  0.8896
   38POPC  H11R 5106   3.516   2.003   7.690 -0.4710 -0.7339 -1.7902
   38POPC  H11S 5107   3.685   1.960   7.686 -0.4203  2.0279  1.8192
   38POPC  C212 5108   3.577   1.913   7.878  0.1632  0.7633 -0.4999
   38POPC  H12R 5109   3.622   1.825   7.928 -1.5199  0.3964  0.4476
   38POPC  H12S 5110   3.466   1.907   7.889  0.2666 -0.4669 -0.0543
   38POPC  C213 5111   3.623   2.042   7.944 -0.0689  0.0783  0.3818
   38POPC  H13R 5112   3.582   2.134   7.899 -0.8367 -0.9188 -1.0224
   38POPC  H13S 5113   3.733   2.053   7.933 -0.1879 -0.2041 -1.3499
   38POPC  C214 5114   3.578   2.046   8.090 -0.2223  0.2372 -0.9064
   38POPC  H14R 5115   3.650   1.990   8.152 -0.9373 -0.3931 -0.6311
   38POPC  H14S 5116   3.478   1.997   8.094 -0.2822  0.2433 -2.0292
   38POPC  C215 5117   3.561   2.183   8.159 -0.1282 -0.3266 -0.1789
   38POPC  H15R 5118   3.490   2.254   8.110 -2.4196 -1.9374  0.6401
   38POPC  H15S 5119   3.660   2.234   8.150 -0.1043 -0.3227  0.1033
   38POPC  C216 5120   3.508   2.163   8.303 -0.4069 -0.0215 -0.1689
   38POPC  H16R 5121   3.594   2.114   8.353  0.4881  0.4377 -1.2366
   38POPC  H16S 5122   3.410   2.109   8.300  0.9370 -2.6187 -0.4244
   38POPC  C217 5123   3.481   2.299   8.387 -0.4434 -0.2087 -0.1644
   38POPC  H17R 5124   3.419   2.270   8.475  0.2104  3.3016  1.6329
   38POPC  H17S 5125   3.420   2.364   8.321  1.3897  1.5964 -0.1797
   38POPC  C218 5126   3.615   2.356   8.427 -0.5854 -0.4280 -0.0216
   38POPC  H18R 5127   3.679   2.287   8.486 -0.8223 -1.5691 -1.0622
   38POPC  H18S 5128   3.603   2.451   8.484  2.7603 -0.1148  0.3211
   38POPC  H18T 5129   3.678   2.384   8.340 -1.2683  0.9423 -0.1105
   38POPC   C33 5130   3.852   2.147   6.656 -0.1310 -0.5505  0.3906
   38POPC   H3X 5131   3.883   2.054   6.604  1.5165 -0.1859  0.6474
   38POPC   H3Y 5132   3.749   2.148   6.696 -0.1039  0.5653  0.4783
   38POPC   C34 5133   3.937   2.169   6.785 -0.0815  0.2908  0.5114
   38POPC   H4X 5134   3.898   2.255   6.843  0.8440  1.6879 -0.8923
   38POPC   H4Y 5135   4.034   2.208   6.749 -1.4690  2.2050 -1.3110
   38POPC   C35 5136   3.942   2.039   6.871 -0.3548 -0.6412  0.0964
   38POPC   H5X 5137   3.997   1.966   6.809  0.3865  0.7087 -0.8816
   38POPC   H5Y 5138   3.837   2.001   6.866 -0.3212 -0.7471  0.1783
   38POPC   C36 5139   3.995   2.060   7.015 -0.1362 -0.1282  0.1061
   38POPC   H6X 5140   3.926   2.138   7.054 -3.3169 -1.9982 -1.3805
   38POPC   H6Y 5141   4.094   2.110   7.014  0.3609 -1.0804 -0.5844
   38POPC   C37 5142   3.994   1.934   7.106 -0.6396 -0.2593 -0.0737
   38POPC   H7X 5143   4.068   1.857   7.075 -0.5638 -0.4418  0.5476
   38POPC   H7Y 5144   3.894   1.889   7.088 -0.8310  0.5788 -1.2146
   38POPC   C38 5145   3.998   1.976   7.256  0.4971  0.2024  0.2644
   38POPC   H8X 5146   3.933   2.066   7.267 -1.9107 -1.4661  0.3175
   38POPC   H8Y 5147   4.102   2.008   7.281  1.0126 -1.3923  0.2515
   38POPC   C39 5148   3.954   1.868   7.359 -0.3888 -0.7348  0.0889
   38POPC   H9X 5149   4.011   1.775   7.338 -1.5776 -2.1351  2.5503
   38POPC   H9Y 5150   3.849   1.833   7.347 -0.9872  0.9327  0.2053
   38POPC  C310 5151   3.998   1.909   7.500  0.5369 -0.0871 -0.0483
   38POPC  H10X 5152   3.953   2.005   7.532  1.3494 -0.1831  1.4670
   38POPC  H10Y 5153   4.106   1.930   7.514  0.3980  1.2034 -0.7107
   38POPC  C311 5154   3.963   1.794   7.608  0.6233 -1.1175 -0.3539
   38POPC  H11X 5155   4.030   1.710   7.581  0.1437 -1.0517 -1.8205
   38POPC  H11Y 5156   3.859   1.756   7.595  0.4661 -1.2215  1.0621
   38POPC  C312 5157   3.974   1.833   7.762  0.0333 -0.0476  0.2689
   38POPC  H12X 5158   3.898   1.911   7.782 -1.3606 -0.9125 -1.3187
   38POPC  H12Y 5159   4.077   1.873   7.778  0.4426 -0.7470 -0.5239
   38POPC  C313 5160   3.945   1.715   7.853  0.2281  0.1227 -0.6652
   38POPC  H13X 5161   4.017   1.632   7.836 -0.5466 -0.6381 -0.2733
   38POPC  H13Y 5162   3.845   1.673   7.828  0.0233  0.3710 -0.2640
   38POPC  C314 5163   3.954   1.750   8.004 -0.6029  0.1081 -0.1778
   38POPC  H14X 5164   3.889   1.838   8.024 -0.6998  0.0620 -0.2879
   38POPC  H14Y 5165   4.060   1.772   8.031 -0.1247 -1.9011 -0.2712
   38POPC  C315 5166   3.903   1.627   8.093 -0.5256 -0.1805 -0.3570
   38POPC  H15X 5167   3.971   1.540   8.082 -0.5833 -0.1044 -1.4625
   38POPC  H15Y 5168   3.807   1.589   8.053  0.6648 -1.9017 -1.7068
   38POPC  C316 5169   3.907   1.661   8.245  0.0167  0.4879 -0.7326
   38POPC  H16X 5170   4.008   1.699   8.273 -0.0923  0.2278  0.0420
   38POPC  H16Y 5171   3.880   1.566   8.296  0.6937 -0.7531 -2.5548
   38POPC  H16Z 5172   3.835   1.740   8.273 -0.3507 -0.6031  1.6633
   39POPC     N 5173   6.436   5.649   5.948  0.3109 -0.5813 -0.0827
   39POPC   C12 5174   6.507   5.738   6.051 -0.2009 -1.0883  0.4330
   39POPC  H12A 5175   6.548   5.828   6.010  0.4579 -1.2723  0.6716
   39POPC  H12B 5176   6.591   5.681   6.088 -0.4556 -1.2889  0.7166
   39POPC   C13 5177   6.353   5.538   6.017  0.5630 -0.4265  0.3668
   39POPC  H13A 5178   6.280   5.580   6.085  0.4288  0.7305 -0.4703
   39POPC  H13B 5179   6.306   5.475   5.943  0.4923  0.2347 -0.1592
   39POPC  H13C 5180   6.418   5.486   6.086  0.7575 -0.4033  0.2013
   39POPC   C14 5181   6.347   5.731   5.860  0.4803 -0.2373 -0.7834
   39POPC  H14A 5182   6.304   5.673   5.780 -0.8667  0.3429 -0.5017
   39POPC  H14B 5183   6.271   5.778   5.920  0.9682  0.9578 -1.0839
   39POPC  H14C 5184   6.393   5.814   5.808 -2.1258  1.5003 -0.4992
   39POPC   C15 5185   6.529   5.575   5.860 -0.1805 -1.1189  0.7530
   39POPC  H15A 5186   6.489   5.489   5.808  0.1868 -2.2511  2.2866
   39POPC  H15B 5187   6.620   5.552   5.914 -0.4610 -0.9356  1.3114
   39POPC  H15C 5188   6.563   5.645   5.784 -2.6757 -0.1230  0.4651
   39POPC   C11 5189   6.430   5.771   6.182  0.2524 -0.0741  0.0143
   39POPC  H11A 5190   6.500   5.809   6.259 -0.0036  2.0060 -0.7038
   39POPC  H11B 5191   6.405   5.668   6.215  2.4104 -0.0762  1.8798
   39POPC     P 5192   6.288   5.994   6.173  0.5631 -0.2509 -0.0517
   39POPC   O13 5193   6.157   6.028   6.114  0.0424  0.4276 -0.3728
   39POPC   O14 5194   6.401   6.065   6.118  0.4434  0.8374 -0.1589
   39POPC   O12 5195   6.303   5.840   6.172  0.2749  0.0466  0.4279
   39POPC   O11 5196   6.278   6.024   6.321 -0.1467  0.1707 -0.6655
   39POPC    C1 5197   6.203   5.943   6.419 -0.4708 -0.0589  0.1193
   39POPC    HA 5198   6.215   5.833   6.408  1.3254  0.1080  0.0886
   39POPC    HB 5199   6.095   5.965   6.406 -0.8165 -1.5578  0.2991
   39POPC    C2 5200   6.238   5.968   6.571  0.4855  0.5421  0.7775
   39POPC    HS 5201   6.163   5.903   6.621 -0.5454 -0.0460 -1.4259
   39POPC   O21 5202   6.239   6.111   6.598  0.4180  0.8841 -0.6889
   39POPC   C21 5203   6.114   6.153   6.616  0.0921  0.1400 -0.3160
   39POPC   O22 5204   6.013   6.090   6.597  0.6753 -0.6796 -0.0139
   39POPC   C22 5205   6.116   6.302   6.657 -0.5710 -0.1148 -0.0775
   39POPC   H2R 5206   6.013   6.337   6.633 -0.6148  1.3251  1.9652
   39POPC   H2S 5207   6.195   6.351   6.597  0.7760 -2.7950 -0.6615
   39POPC    C3 5208   6.377   5.899   6.592 -0.0166 -0.0373  0.1345
   39POPC    HX 5209   6.426   5.928   6.688 -2.3497  2.6542  0.6280
   39POPC    HY 5210   6.444   5.934   6.510 -0.3968 -0.7919 -0.5125
   39POPC   O31 5211   6.349   5.758   6.580  0.1910  0.4453  0.1913
   39POPC   C31 5212   6.459   5.683   6.557 -0.6591  0.4624  0.0366
   39POPC   O32 5213   6.572   5.724   6.547 -0.5228 -0.4619 -0.1905
   39POPC   C32 5214   6.423   5.536   6.523 -0.5662  0.2109 -0.0284
   39POPC   H2X 5215   6.349   5.548   6.441  1.5612  0.7400 -1.9827
   39POPC   H2Y 5216   6.513   5.478   6.495  0.5741  1.8463  0.0925
   39POPC   C23 5217   6.143   6.318   6.807  0.7251 -0.4322  0.0885
   39POPC   H3R 5218   6.246   6.286   6.834  0.8834 -1.4300 -1.5370
   39POPC   H3S 5219   6.071   6.256   6.865  1.0591 -0.5805  0.3471
   39POPC   C24 5220   6.125   6.463   6.849 -0.1542  0.1953  0.5678
   39POPC   H4R 5221   6.025   6.499   6.816 -0.7149  0.4301  2.4068
   39POPC   H4S 5222   6.208   6.519   6.801 -0.3166 -0.7789 -0.9125
   39POPC   C25 5223   6.122   6.469   7.000  0.2497 -0.3373 -0.2878
   39POPC   H5R 5224   6.212   6.417   7.038  0.0059 -1.1685 -0.8110
   39POPC   H5S 5225   6.035   6.405   7.026  0.9265 -1.3601 -0.4812
   39POPC   C26 5226   6.103   6.611   7.065 -0.8684  0.8406  0.2277
   39POPC   H6R 5227   6.021   6.669   7.018 -0.3888  1.8642  0.6207
   39POPC   H6S 5228   6.194   6.666   7.033 -0.8621  0.3998 -0.5617
   39POPC   C27 5229   6.072   6.611   7.220 -0.0410 -0.4240 -0.6897
   39POPC   H7R 5230   5.962   6.599   7.233 -0.7313  1.1552 -4.0308
   39POPC   H7S 5231   6.106   6.712   7.250  0.9805 -0.3654 -1.9247
   39POPC   C28 5232   6.148   6.502   7.300  0.1847  1.0314 -0.0700
   39POPC   H8R 5233   6.257   6.507   7.282  0.0630  0.7129 -0.9147
   39POPC   H8S 5234   6.116   6.403   7.262  1.6271 -0.0315  1.3517
   39POPC   C29 5235   6.117   6.501   7.455  0.4868 -0.9810  0.3109
   39POPC   H91 5236   6.015   6.486   7.492 -0.0037  2.1396  0.4426
   39POPC  C210 5237   6.214   6.536   7.549  0.3655 -1.2362  0.1388
   39POPC  H101 5238   6.190   6.537   7.656  0.3076  0.6574  0.1363
   39POPC  C211 5239   6.363   6.575   7.523  0.4031 -0.0880 -1.7040
   39POPC  H11R 5240   6.383   6.675   7.568 -1.7400  0.0466 -0.9498
   39POPC  H11S 5241   6.405   6.576   7.420  3.2193 -2.8639 -0.7399
   39POPC  C212 5242   6.466   6.488   7.597 -0.8840  0.4055 -0.0639
   39POPC  H12R 5243   6.569   6.523   7.572 -0.2708 -1.3257 -0.1184
   39POPC  H12S 5244   6.466   6.389   7.547  1.6392  0.8055 -0.9911
   39POPC  C213 5245   6.440   6.471   7.745 -0.4474 -0.3417 -0.4545
   39POPC  H13R 5246   6.337   6.435   7.765 -0.6221 -0.5889 -1.7335
   39POPC  H13S 5247   6.443   6.572   7.792  0.7819  0.0014 -1.2166
   39POPC  C214 5248   6.554   6.390   7.817  0.5541 -0.5755  0.1212
   39POPC  H14R 5249   6.655   6.435   7.822 -0.2942  1.3512  0.9267
   39POPC  H14S 5250   6.558   6.290   7.767  0.4126 -0.7777  0.5095
   39POPC  C215 5251   6.516   6.366   7.966  0.0559 -0.2164  0.6110
   39POPC  H15R 5252   6.572   6.276   8.000 -0.7417 -0.0300  2.5879
   39POPC  H15S 5253   6.406   6.355   7.960  0.0405  0.7450 -1.9577
   39POPC  C216 5254   6.535   6.484   8.066  0.0148 -0.4103  0.4752
   39POPC  H16R 5255   6.511   6.579   8.013 -1.4889 -1.5051 -0.9344
   39POPC  H16S 5256   6.638   6.481   8.106 -0.4991  0.6817  1.9586
   39POPC  C217 5257   6.454   6.458   8.193 -0.2332  0.4249 -0.4644
   39POPC  H17R 5258   6.353   6.493   8.164 -0.1133  0.6062 -0.6540
   39POPC  H17S 5259   6.484   6.534   8.269 -0.1551  2.2542 -2.2613
   39POPC  C218 5260   6.446   6.314   8.243 -0.5910 -0.4165  0.0931
   39POPC  H18R 5261   6.526   6.252   8.198 -0.0654  1.2832 -1.4281
   39POPC  H18S 5262   6.349   6.264   8.223 -0.1717 -0.8462 -0.9181
   39POPC  H18T 5263   6.461   6.309   8.353  0.2194 -1.9701 -0.0515
   39POPC   C33 5264   6.360   5.457   6.644 -0.9690  0.5534  0.4827
   39POPC   H3X 5265   6.445   5.432   6.712 -0.1125  0.8200 -0.4556
   39POPC   H3Y 5266   6.326   5.360   6.602  0.7182  0.4655 -0.8266
   39POPC   C34 5267   6.239   5.523   6.718 -0.6802 -0.6106 -0.1570
   39POPC   H4X 5268   6.162   5.536   6.639 -0.2051  0.7260 -0.4233
   39POPC   H4Y 5269   6.271   5.621   6.759 -1.1180 -1.7700  3.3260
   39POPC   C35 5270   6.189   5.442   6.829 -0.4594 -0.6136 -0.2963
   39POPC   H5X 5271   6.174   5.336   6.802 -2.4190 -0.9047  1.5879
   39POPC   H5Y 5272   6.087   5.481   6.850 -0.1242 -0.1745  0.5907
   39POPC   C36 5273   6.274   5.456   6.955 -0.0173 -0.2310  0.3095
   39POPC   H6X 5274   6.278   5.563   6.984 -1.9886  0.4211 -1.4948
   39POPC   H6Y 5275   6.374   5.413   6.934 -0.7330 -1.5944 -0.4792
   39POPC   C37 5276   6.226   5.371   7.082 -0.4466  0.0366  0.2121
   39POPC   H7X 5277   6.262   5.266   7.076  0.0448  0.2783 -2.2996
   39POPC   H7Y 5278   6.116   5.368   7.095 -0.4605 -0.5204 -0.0167
   39POPC   C38 5279   6.293   5.431   7.213  0.4861  0.2196 -0.4102
   39POPC   H8X 5280   6.390   5.466   7.171  0.4634 -0.4099 -0.9879
   39POPC   H8Y 5281   6.316   5.346   7.281 -0.0165  0.0420 -0.4584
   39POPC   C39 5282   6.216   5.548   7.291  0.0467  0.5132  0.5566
   39POPC   H9X 5283   6.138   5.498   7.352  0.7283 -0.4815  0.6471
   39POPC   H9Y 5284   6.164   5.607   7.213  0.4366  0.8792  0.5697
   39POPC  C310 5285   6.305   5.635   7.376 -0.2596 -0.5294 -1.1364
   39POPC  H10X 5286   6.376   5.694   7.314  0.6329 -0.0496  0.2748
   39POPC  H10Y 5287   6.360   5.567   7.445 -1.0889 -0.9357 -0.8613
   39POPC  C311 5288   6.225   5.733   7.465 -0.5126 -1.2246  0.9001
   39POPC  H11X 5289   6.161   5.682   7.539 -0.6701  2.3365  3.4516
   39POPC  H11Y 5290   6.148   5.784   7.404 -0.6429 -1.7355  0.6266
   39POPC  C312 5291   6.314   5.844   7.523 -0.3281 -0.3402 -0.2879
   39POPC  H12X 5292   6.252   5.932   7.552  0.8666  0.8626 -1.2562
   39POPC  H12Y 5293   6.365   5.875   7.430 -1.9448  0.6798 -0.8748
   39POPC  C313 5294   6.394   5.810   7.642  0.4451  0.1623 -0.3755
   39POPC  H13X 5295   6.453   5.720   7.617  0.6970 -0.0733  0.9718
   39POPC  H13Y 5296   6.320   5.784   7.721 -1.9491  0.6484 -2.3501
   39POPC  C314 5297   6.493   5.910   7.686 -0.0761 -0.4217  0.4967
   39POPC  H14X 5298   6.455   6.011   7.710 -2.7938 -1.2504  0.0703
   39POPC  H14Y 5299   6.576   5.924   7.614  0.7569  0.3878  1.5898
   39POPC  C315 5300   6.556   5.886   7.823  0.3611  0.1424 -0.3013
   39POPC  H15X 5301   6.622   5.797   7.821  1.8472  1.2000 -2.7604
   39POPC  H15Y 5302   6.479   5.878   7.903  1.8482 -2.3661  0.9835
   39POPC  C316 5303   6.650   6.003   7.853 -0.0364  0.3267  0.5672
   39POPC  H16X 5304   6.684   5.973   7.955  0.1381  0.7871  0.6438
   39POPC  H16Y 5305   6.607   6.105   7.854  1.7937  1.2699 -2.8347
   39POPC  H16Z 5306   6.733   6.007   7.779 -2.0265  1.2295 -1.7603
   40POPC     N 5307   6.737   3.378   6.072 -0.5016  0.5284 -0.1424
   40POPC   C12 5308   6.816   3.500   6.104 -0.2453 -0.1934  0.9524
   40POPC  H12A 5309   6.840   3.503   6.209  1.1800 -0.8875  0.6669
   40POPC  H12B 5310   6.759   3.586   6.072  0.4523 -0.8116 -2.3683
   40POPC   C13 5311   6.598   3.393   6.136 -0.4460 -0.2612  0.6351
   40POPC  H13A 5312   6.612   3.418   6.240 -0.2686 -1.3738  0.8862
   40POPC  H13B 5313   6.557   3.480   6.086  2.2343  0.4593 -0.5080
   40POPC  H13C 5314   6.527   3.313   6.121 -0.2410 -0.1791 -1.0066
   40POPC   C14 5315   6.718   3.367   5.928  0.6844  0.0252 -0.2610
   40POPC  H14A 5316   6.651   3.283   5.915  1.0655 -0.9739  3.1447
   40POPC  H14B 5317   6.670   3.457   5.894  1.2841  0.6973  0.6107
   40POPC  H14C 5318   6.807   3.358   5.867  0.5856  2.0094 -0.7739
   40POPC   C15 5319   6.803   3.257   6.122 -0.2155 -0.1855 -0.4177
   40POPC  H15A 5320   6.760   3.163   6.091 -0.9593  0.0794 -0.2015
   40POPC  H15B 5321   6.805   3.252   6.230 -0.5059 -1.0640 -0.4455
   40POPC  H15C 5322   6.905   3.256   6.085  0.4568  0.6404  1.3238
   40POPC   C11 5323   6.955   3.534   6.034  0.7207  0.0124  0.2566
   40POPC  H11A 5324   6.968   3.643   6.055 -0.8703  0.0725  1.1303
   40POPC  H11B 5325   6.951   3.522   5.924 -0.5650 -2.0309  0.4771
   40POPC     P 5326   7.174   3.479   6.171  0.0387  0.1978 -0.0533
   40POPC   O13 5327   7.249   3.598   6.124  0.2816 -0.4021 -0.1617
   40POPC   O14 5328   7.254   3.355   6.195 -0.3339 -0.2702 -0.0389
   40POPC   O12 5329   7.061   3.446   6.064  0.0031 -0.3553 -0.5719
   40POPC   O11 5330   7.111   3.524   6.317  1.0528  0.6821  0.2679
   40POPC    C1 5331   7.080   3.405   6.402  0.1169  0.2274 -0.0525
   40POPC    HA 5332   7.166   3.336   6.403  1.2522  1.5971 -0.4555
   40POPC    HB 5333   6.989   3.354   6.365  0.8192 -0.6105 -0.6398
   40POPC    C2 5334   7.053   3.454   6.547 -0.2384 -0.1389  0.3822
   40POPC    HS 5335   6.966   3.524   6.547 -1.1196 -1.1729  1.9989
   40POPC   O21 5336   7.179   3.502   6.603 -0.0656 -0.1565 -0.7301
   40POPC   C21 5337   7.159   3.595   6.698  0.4108  0.5891  1.0905
   40POPC   O22 5338   7.050   3.630   6.734  0.1319 -0.0460 -0.4862
   40POPC   C22 5339   7.288   3.642   6.763  0.0720 -0.4072  0.5171
   40POPC   H2R 5340   7.279   3.749   6.794 -0.9806 -0.5759  0.8606
   40POPC   H2S 5341   7.370   3.631   6.689 -0.1514 -3.1639  0.5929
   40POPC    C3 5342   7.017   3.332   6.631 -1.1253 -0.0385  0.1694
   40POPC    HX 5343   7.097   3.256   6.626 -0.2490  0.6236  2.5005
   40POPC    HY 5344   6.932   3.279   6.583  1.1852 -2.7019 -1.3055
   40POPC   O31 5345   6.999   3.353   6.777  0.1166 -0.0671  0.1365
   40POPC   C31 5346   6.877   3.388   6.812 -1.2089 -0.2941 -0.4503
   40POPC   O32 5347   6.784   3.408   6.739  0.2180  0.0144  0.7786
   40POPC   C32 5348   6.876   3.404   6.957  0.7262 -0.7602  0.2550
   40POPC   H2X 5349   6.971   3.453   6.988 -0.3771  0.9848  1.0248
   40POPC   H2Y 5350   6.856   3.305   7.002 -1.9810 -0.7151 -0.6817
   40POPC   C23 5351   7.312   3.543   6.887  0.0180 -0.2137 -0.7030
   40POPC   H3R 5352   7.422   3.529   6.887  0.4157  2.3916 -1.8834
   40POPC   H3S 5353   7.270   3.442   6.867  1.6740 -0.7550 -1.6840
   40POPC   C24 5354   7.257   3.608   7.013  0.4185 -0.5542  0.0253
   40POPC   H4R 5355   7.152   3.636   6.989  0.5582 -1.0260 -1.2606
   40POPC   H4S 5356   7.302   3.709   7.022 -0.9676  0.0282  0.6881
   40POPC   C25 5357   7.276   3.528   7.138 -0.3961  0.0949 -0.6770
   40POPC   H5R 5358   7.380   3.515   7.175 -1.2013  0.0714  1.7287
   40POPC   H5S 5359   7.233   3.429   7.111  1.3758 -0.3318 -2.1616
   40POPC   C26 5360   7.188   3.572   7.255 -0.5746  0.2461 -0.4953
   40POPC   H6R 5361   7.198   3.503   7.342  3.1670 -0.1293 -1.0367
   40POPC   H6S 5362   7.081   3.592   7.233 -0.4372  2.1274  0.3211
   40POPC   C27 5363   7.240   3.707   7.308  0.7535  0.2915  0.3811
   40POPC   H7R 5364   7.214   3.780   7.229 -0.1518 -1.8380 -1.3953
   40POPC   H7S 5365   7.350   3.692   7.307  1.0654  2.3220  0.1884
   40POPC   C28 5366   7.175   3.746   7.439 -0.2952  0.1317 -0.1237
   40POPC   H8R 5367   7.176   3.666   7.516 -1.1062  1.1586  0.9927
   40POPC   H8S 5368   7.069   3.773   7.422 -0.8482 -2.2073 -0.7950
   40POPC   C29 5369   7.241   3.873   7.480  0.4844  0.3019  0.1741
   40POPC   H91 5370   7.253   3.940   7.393 -0.3052  1.0491  0.6217
   40POPC  C210 5371   7.280   3.910   7.600  0.2914  0.6721  0.5368
   40POPC  H101 5372   7.331   4.005   7.621  1.7968  0.4005 -1.5838
   40POPC  C211 5373   7.268   3.846   7.738 -0.3586  0.1782 -0.3397
   40POPC  H11R 5374   7.359   3.875   7.795  1.6157 -0.4660 -2.9617
   40POPC  H11S 5375   7.257   3.736   7.726 -0.4242  0.1825 -0.3142
   40POPC  C212 5376   7.137   3.898   7.806  0.2594  0.3339  0.1173
   40POPC  H12R 5377   7.045   3.862   7.755 -2.2155  2.5739  2.6537
   40POPC  H12S 5378   7.132   4.008   7.792  0.4549  0.4236  0.7100
   40POPC  C213 5379   7.124   3.875   7.957  0.0469 -0.0626  0.0751
   40POPC  H13R 5380   7.020   3.901   7.987  0.0492 -0.5116  0.4969
   40POPC  H13S 5381   7.204   3.928   8.014 -0.4991 -0.7291  1.5257
   40POPC  C214 5382   7.135   3.727   7.999  0.1487 -0.5387 -1.1573
   40POPC  H14R 5383   7.227   3.688   7.949  1.5093  0.1973  0.6532
   40POPC  H14S 5384   7.036   3.683   7.975 -0.4276  0.8748 -1.4861
   40POPC  C215 5385   7.155   3.723   8.155  0.4622  0.4539 -0.4397
   40POPC  H15R 5386   7.072   3.775   8.208 -0.6974 -0.0808 -1.6686
   40POPC  H15S 5387   7.247   3.779   8.181  1.3139  0.2418 -2.7677
   40POPC  C216 5388   7.164   3.578   8.203 -0.2298 -0.7169 -0.0767
   40POPC  H16R 5389   7.257   3.528   8.168 -0.7167 -0.8724 -1.1951
   40POPC  H16S 5390   7.083   3.511   8.168 -0.1257 -0.5564 -0.6268
   40POPC  C217 5391   7.169   3.558   8.356 -0.7033 -0.2652 -0.4671
   40POPC  H17R 5392   7.158   3.451   8.384  1.4733 -0.2758  0.6013
   40POPC  H17S 5393   7.090   3.614   8.411  0.3763  1.4586 -0.6191
   40POPC  C218 5394   7.302   3.603   8.409  0.6707 -0.4453 -0.2565
   40POPC  H18R 5395   7.342   3.702   8.381  0.5553 -0.5768 -0.8893
   40POPC  H18S 5396   7.384   3.533   8.382  1.8974  0.7484  0.3099
   40POPC  H18T 5397   7.283   3.602   8.519 -1.2497 -0.0369 -0.5549
   40POPC   C33 5398   6.760   3.503   6.990  0.3042  0.1113  0.4530
   40POPC   H3X 5399   6.661   3.465   6.959  0.8785  0.7105 -2.4166
   40POPC   H3Y 5400   6.766   3.590   6.921 -0.8334  0.2436  0.5074
   40POPC   C34 5401   6.770   3.557   7.138 -0.8668  0.4044  0.6655
   40POPC   H4X 5402   6.715   3.653   7.139 -1.1438  0.2558 -0.0206
   40POPC   H4Y 5403   6.880   3.567   7.148 -0.4597  0.2801 -2.6796
   40POPC   C35 5404   6.717   3.462   7.244  0.6413 -0.5578  0.8386
   40POPC   H5X 5405   6.774   3.366   7.245 -0.8068 -1.4770 -0.5151
   40POPC   H5Y 5406   6.616   3.426   7.216  0.9675 -3.2989  2.8240
   40POPC   C36 5407   6.703   3.525   7.390 -0.6724  0.1378  0.2993
   40POPC   H6X 5408   6.674   3.448   7.464 -0.7414  0.5393  0.6988
   40POPC   H6Y 5409   6.628   3.606   7.403 -0.9591 -0.3291  1.6954
   40POPC   C37 5410   6.830   3.596   7.433 -0.0198  0.0691 -0.3089
   40POPC   H7X 5411   6.861   3.669   7.356 -2.9616  1.3989 -0.3436
   40POPC   H7Y 5412   6.905   3.515   7.447  0.2653  0.5151  0.9518
   40POPC   C38 5413   6.802   3.665   7.572  0.2556 -0.1812 -0.4177
   40POPC   H8X 5414   6.723   3.743   7.571  1.8608  1.6156  1.8705
   40POPC   H8Y 5415   6.903   3.704   7.596  0.1821  0.3427 -0.9611
   40POPC   C39 5416   6.777   3.562   7.688  0.0771 -0.4716 -0.2511
   40POPC   H9X 5417   6.825   3.467   7.657  0.4996 -0.0896 -0.7788
   40POPC   H9Y 5418   6.669   3.536   7.682 -0.1064  0.5976 -2.3842
   40POPC  C310 5419   6.829   3.610   7.823  0.2440 -0.1633  0.9571
   40POPC  H10X 5420   6.896   3.698   7.807 -0.8484  0.4980 -0.1538
   40POPC  H10Y 5421   6.902   3.539   7.866  0.9388  0.8266  1.4379
   40POPC  C311 5422   6.721   3.640   7.931  0.0916 -0.1892  0.6465
   40POPC  H11X 5423   6.664   3.546   7.947  1.0080 -0.6923  1.0370
   40POPC  H11Y 5424   6.649   3.719   7.901 -0.5924 -0.4118  1.6512
   40POPC  C312 5425   6.789   3.681   8.069  0.2354 -0.2539  0.0205
   40POPC  H12X 5426   6.834   3.782   8.056  1.2156 -0.4418  1.6141
   40POPC  H12Y 5427   6.858   3.597   8.094  1.2544 -0.0145 -1.8360
   40POPC  C313 5428   6.690   3.687   8.192 -0.0476  0.2639  0.3317
   40POPC  H13X 5429   6.760   3.692   8.279 -0.2282 -2.8365  0.7490
   40POPC  H13Y 5430   6.635   3.591   8.190  0.6697 -0.1483  0.2289
   40POPC  C314 5431   6.603   3.816   8.184  0.3933 -0.2419 -0.2022
   40POPC  H14X 5432   6.528   3.816   8.102  1.6139  0.7734 -1.3511
   40POPC  H14Y 5433   6.663   3.909   8.173 -1.3438  0.8102 -1.2020
   40POPC  C315 5434   6.528   3.821   8.317  0.4258  0.4962 -0.1114
   40POPC  H15X 5435   6.599   3.806   8.401  0.5285 -0.7689 -0.4031
   40POPC  H15Y 5436   6.453   3.740   8.331 -0.4078  1.0693 -1.1028
   40POPC  C316 5437   6.458   3.956   8.345  0.0842 -0.4000 -0.5830
   40POPC  H16X 5438   6.546   4.020   8.369 -0.1535 -0.3016  0.0442
   40POPC  H16Y 5439   6.390   3.937   8.431  1.8951  1.0674  1.2613
   40POPC  H16Z 5440   6.398   3.978   8.254 -0.0945 -0.2588 -0.4328
   41CHL1    C3 5441   4.771   6.249  10.125  0.5721  0.2782  0.0222
   41CHL1    H3 5442   4.667   6.284  10.145  0.5586  0.0765  0.3120
   41CHL1    O3 5443   4.819   6.208  10.255  0.0286 -0.8558  0.2222
   41CHL1   H3' 5444   4.896   6.160  10.222 -0.3419  0.4811 -2.8715
   41CHL1    C4 5445   4.765   6.130  10.031  0.2152  0.0493  0.3440
   41CHL1   H4A 5446   4.861   6.075  10.021  0.0091 -0.1291 -0.7100
   41CHL1   H4B 5447   4.705   6.053  10.085 -1.2042  0.6883 -0.2866
   41CHL1    C5 5448   4.715   6.159   9.889 -0.3670 -0.6733 -0.3688
   41CHL1    C6 5449   4.627   6.083   9.827 -0.6300  0.0544  0.1731
   41CHL1    H6 5450   4.566   6.002   9.871 -0.9756 -0.0418 -0.4689
   41CHL1    C7 5451   4.579   6.110   9.695 -0.3460 -0.4266 -0.4118
   41CHL1   H7A 5452   4.538   6.018   9.647  0.4050 -1.1555  0.2958
   41CHL1   H7B 5453   4.487   6.170   9.707 -0.0608 -0.0507 -0.0253
   41CHL1    C8 5454   4.684   6.185   9.610  0.0175  0.4070 -0.1324
   41CHL1    H8 5455   4.776   6.130   9.582 -0.3959  0.0591 -0.8054
   41CHL1   C14 5456   4.610   6.229   9.484  0.5884 -0.0961  0.4640
   41CHL1   H14 5457   4.530   6.297   9.521  0.1955 -0.6610  0.6686
   41CHL1   C15 5458   4.541   6.122   9.396 -0.2796 -0.8980  0.5641
   41CHL1  H15A 5459   4.610   6.039   9.372 -0.6535 -0.7165 -1.2575
   41CHL1  H15B 5460   4.443   6.080   9.428 -0.6255 -0.2339  0.3814
   41CHL1   C16 5461   4.513   6.202   9.268 -0.3689 -0.1993 -0.2622
   41CHL1  H16A 5462   4.525   6.131   9.183 -0.1889 -0.2390 -0.2054
   41CHL1  H16B 5463   4.415   6.253   9.270  0.1623  0.8277  0.2922
   41CHL1   C17 5464   4.607   6.331   9.270  0.4105  0.6958 -0.4299
   41CHL1   H17 5465   4.551   6.414   9.318 -0.4644 -1.6242  2.9012
   41CHL1   C13 5466   4.705   6.312   9.388  0.6228  0.3219 -0.1542
   41CHL1   C18 5467   4.817   6.231   9.330 -0.1997 -0.1261 -0.1607
   41CHL1  H18A 5468   4.877   6.289   9.257 -0.5371 -1.5107 -1.6102
   41CHL1  H18B 5469   4.889   6.191   9.404  0.9028 -0.3449 -1.3114
   41CHL1  H18C 5470   4.786   6.142   9.270  1.0366  0.0011 -1.0132
   41CHL1   C12 5471   4.761   6.435   9.456 -0.0255  0.0963  0.1281
   41CHL1  H12A 5472   4.836   6.480   9.387  0.6125 -2.8322 -1.2482
   41CHL1  H12B 5473   4.679   6.504   9.483 -1.0250  0.4769 -3.3387
   41CHL1   C11 5474   4.823   6.389   9.585 -0.6020 -0.8954  0.2432
   41CHL1  H11A 5475   4.918   6.339   9.558  0.9612  1.8274  0.4260
   41CHL1  H11B 5476   4.847   6.478   9.647 -1.5691 -0.6011  0.2184
   41CHL1    C9 5477   4.729   6.308   9.683  0.3260  0.0195 -0.1702
   41CHL1    H9 5478   4.643   6.376   9.699 -0.4579 -1.0624  0.2905
   41CHL1   C10 5479   4.788   6.279   9.822 -0.2980  0.2718  0.1272
   41CHL1   C19 5480   4.932   6.220   9.812  0.0116  0.1780  1.1155
   41CHL1  H19A 5481   4.981   6.216   9.912 -0.0606  0.1530  1.1507
   41CHL1  H19B 5482   4.931   6.121   9.762  1.3016  1.1986 -1.0850
   41CHL1  H19C 5483   4.999   6.284   9.751 -2.1042  0.5714 -0.9451
   41CHL1    C1 5484   4.776   6.397   9.920 -0.6081 -0.8385 -0.8424
   41CHL1   H1A 5485   4.827   6.486   9.876 -1.9120  0.3224 -0.0924
   41CHL1   H1B 5486   4.668   6.417   9.937  0.2730  1.3294  3.5084
   41CHL1    C2 5487   4.836   6.371  10.063  0.1462 -0.1712  0.2331
   41CHL1   H2A 5488   4.814   6.449  10.139  0.2616 -0.0361  0.1275
   41CHL1   H2B 5489   4.947   6.366  10.056  0.4372  2.8904  1.2070
   41CHL1   C20 5490   4.644   6.391   9.131  0.5059 -0.0450 -0.5822
   41CHL1   H20 5491   4.715   6.472   9.156  0.4768 -0.2795  0.3050
   41CHL1   C21 5492   4.521   6.461   9.066 -0.6374  0.2468  0.3158
   41CHL1  H21A 5493   4.497   6.557   9.116  0.8270  0.2174  1.1391
   41CHL1  H21B 5494   4.435   6.394   9.087 -1.2651  1.5015  1.9234
   41CHL1  H21C 5495   4.548   6.472   8.959  1.5839 -0.1179  0.7723
   41CHL1   C22 5496   4.687   6.279   9.032 -0.4545 -0.1184 -0.0208
   41CHL1  H22A 5497   4.721   6.187   9.084 -1.3442 -0.7669 -0.5567
   41CHL1  H22B 5498   4.601   6.244   8.970  0.2436 -1.9901  0.0147
   41CHL1   C23 5499   4.787   6.327   8.924 -0.3952  0.0253  0.3300
   41CHL1  H23A 5500   4.756   6.427   8.887  0.7495  0.2269 -0.1376
   41CHL1  H23B 5501   4.888   6.337   8.968  0.5376 -0.3438 -1.6177
   41CHL1   C24 5502   4.813   6.222   8.813 -0.5304 -0.0548 -0.2398
   41CHL1  H24A 5503   4.868   6.135   8.854 -2.4430 -1.5478 -0.6837
   41CHL1  H24B 5504   4.715   6.184   8.778 -0.7278  1.2479 -1.1796
   41CHL1   C25 5505   4.899   6.282   8.700 -0.3888  0.8731  0.0829
   41CHL1   H25 5506   4.847   6.371   8.660  1.4023  2.0396  0.2558
   41CHL1   C26 5507   5.039   6.317   8.748 -0.2565 -0.4907  0.0607
   41CHL1  H26A 5508   5.025   6.389   8.832  0.6040  0.7681 -0.8492
   41CHL1  H26B 5509   5.096   6.230   8.788 -1.1918 -1.7805 -1.3268
   41CHL1  H26C 5510   5.099   6.365   8.668  0.2602 -0.2981  0.5582
   41CHL1   C27 5511   4.903   6.189   8.580 -0.6908 -0.3955 -0.3834
   41CHL1  H27A 5512   4.937   6.088   8.612  2.0263  0.3980 -0.5194
   41CHL1  H27B 5513   4.803   6.191   8.532 -0.9739 -1.3614  0.1485
   41CHL1  H27C 5514   4.976   6.221   8.503  0.8465  0.5874  1.3927
   42CHL1    C3 5515   3.166   6.450   9.695  0.6438 -0.0414  0.2217
   42CHL1    H3 5516   3.274   6.457   9.671  0.6939  0.7825  0.6675
   42CHL1    O3 5517   3.165   6.527   9.818  0.4084 -0.7489  0.1669
   42CHL1   H3' 5518   3.071   6.528   9.836 -0.0200 -1.5500 -1.7945
   42CHL1    C4 5519   3.080   6.528   9.591  0.0113  0.3064 -0.3583
   42CHL1   H4A 5520   2.985   6.550   9.643  0.1040  1.3084 -0.5891
   42CHL1   H4B 5521   3.126   6.628   9.575  1.2355 -0.0596  0.6428
   42CHL1    C5 5522   3.057   6.450   9.470 -0.2800  0.2302  0.2293
   42CHL1    C6 5523   3.091   6.506   9.356 -0.1845  0.4074 -0.4204
   42CHL1    H6 5524   3.120   6.612   9.362 -1.9377  0.8647  0.5877
   42CHL1    C7 5525   3.076   6.448   9.217  0.2690  0.7635 -0.4598
   42CHL1   H7A 5526   3.031   6.519   9.144 -2.8046  0.7876  1.2515
   42CHL1   H7B 5527   3.175   6.429   9.171  0.9271 -1.7547  1.7692
   42CHL1    C8 5528   2.996   6.321   9.213  0.7114  0.4213  0.4596
   42CHL1    H8 5529   2.889   6.346   9.232  0.4457  0.7549 -1.2900
   42CHL1   C14 5530   3.005   6.239   9.086  0.2399 -0.1989  0.8237
   42CHL1   H14 5531   3.113   6.219   9.065  0.0913 -0.0562 -0.1411
   42CHL1   C15 5532   2.971   6.302   8.939  0.5547 -0.4354  0.0887
   42CHL1  H15A 5533   2.874   6.357   8.941  0.8929  0.1694  2.1183
   42CHL1  H15B 5534   3.044   6.376   8.899 -0.3604  0.2571 -0.3398
   42CHL1   C16 5535   2.942   6.182   8.848  0.2647 -1.3796 -0.2642
   42CHL1  H16A 5536   2.836   6.192   8.815  0.5166  0.5188 -0.5971
   42CHL1  H16B 5537   3.003   6.181   8.755  1.2114 -0.2691  0.3353
   42CHL1   C17 5538   2.957   6.051   8.942  0.3365  0.1514 -0.5818
   42CHL1   H17 5539   3.067   6.042   8.933  0.7579  0.6702  2.7378
   42CHL1   C13 5540   2.942   6.105   9.082  0.4829  0.5105 -0.8080
   42CHL1   C18 5541   2.787   6.126   9.115 -0.6147  0.1603 -0.2637
   42CHL1  H18A 5542   2.746   6.189   9.033 -1.0284 -0.1234 -0.2733
   42CHL1  H18B 5543   2.751   6.021   9.120 -0.5671  0.1712  0.5361
   42CHL1  H18C 5544   2.766   6.173   9.213 -1.0388 -1.8903  0.6788
   42CHL1   C12 5545   3.005   6.015   9.197 -0.1482 -0.6800  0.1800
   42CHL1  H12A 5546   2.951   5.919   9.192 -2.3578  0.4211  1.4996
   42CHL1  H12B 5547   3.113   5.996   9.176 -0.2557 -0.4068 -0.6506
   42CHL1   C11 5548   2.980   6.085   9.329 -0.0017  0.0889  0.0529
   42CHL1  H11A 5549   2.874   6.075   9.360 -0.1626 -2.0161 -1.0443
   42CHL1  H11B 5550   3.034   6.022   9.403  0.9870 -1.3821 -1.8654
   42CHL1    C9 5551   3.032   6.227   9.334 -0.5978 -0.3825 -0.2223
   42CHL1    H9 5552   3.143   6.231   9.320 -0.7027  0.0795 -0.9793
   42CHL1   C10 5553   3.013   6.308   9.475 -0.5057  0.7963  0.9679
   42CHL1   C19 5554   2.863   6.310   9.524 -0.9699 -0.1205 -0.0393
   42CHL1  H19A 5555   2.848   6.329   9.633  2.3999 -0.8683  0.6737
   42CHL1  H19B 5556   2.803   6.378   9.459  0.2971  1.1251  0.0461
   42CHL1  H19C 5557   2.821   6.209   9.506  0.5306 -0.5272 -1.4890
   42CHL1    C1 5558   3.099   6.232   9.573 -0.4794  0.1346 -0.1899
   42CHL1   H1A 5559   3.065   6.128   9.592 -3.7274  1.0330 -0.4770
   42CHL1   H1B 5560   3.201   6.241   9.530 -0.3491  2.3138  0.4668
   42CHL1    C2 5561   3.116   6.306   9.711 -0.4760  0.3681  0.4900
   42CHL1   H2A 5562   3.193   6.252   9.772  0.7160 -0.4982 -1.6666
   42CHL1   H2B 5563   3.023   6.316   9.770 -1.3622 -1.1669 -0.5621
   42CHL1   C20 5564   2.876   5.923   8.900 -0.1408 -0.0521  0.2265
   42CHL1   H20 5565   2.861   5.874   8.999  1.9625 -0.0006  0.6341
   42CHL1   C21 5566   2.969   5.824   8.827  0.5594  1.3598  0.3380
   42CHL1  H21A 5567   3.005   5.852   8.726 -0.2214 -0.2656 -0.4347
   42CHL1  H21B 5568   2.910   5.732   8.807 -0.8630  2.4080 -0.4273
   42CHL1  H21C 5569   3.057   5.800   8.890  1.0973 -2.1266 -1.4611
   42CHL1   C22 5570   2.749   5.954   8.820  0.4777  0.3634  0.0966
   42CHL1  H22A 5571   2.693   6.040   8.862 -1.4169 -0.1840 -1.2135
   42CHL1  H22B 5572   2.783   5.978   8.717 -1.5754 -0.3493 -0.7844
   42CHL1   C23 5573   2.642   5.850   8.827  0.0568  0.0345  0.4111
   42CHL1  H23A 5574   2.681   5.765   8.766 -0.8446 -0.5800  0.6724
   42CHL1  H23B 5575   2.628   5.826   8.935 -0.5060 -2.0878 -0.0896
   42CHL1   C24 5576   2.506   5.881   8.753  0.2051  0.3083 -0.0776
   42CHL1  H24A 5577   2.517   5.897   8.644 -2.3364 -0.1215 -0.4514
   42CHL1  H24B 5578   2.444   5.790   8.744 -2.5507  2.0992 -0.1751
   42CHL1   C25 5579   2.411   5.985   8.806  0.3289 -0.6690 -0.1075
   42CHL1   H25 5580   2.469   6.079   8.815 -1.9946  0.6631  2.0413
   42CHL1   C26 5581   2.297   6.018   8.721 -0.1322  0.2199 -0.4849
   42CHL1  H26A 5582   2.228   5.932   8.703  0.2791 -0.0571 -0.7696
   42CHL1  H26B 5583   2.231   6.093   8.769  0.6853 -1.0338  2.8700
   42CHL1  H26C 5584   2.335   6.053   8.622  0.5625  2.2658  0.4584
   42CHL1   C27 5585   2.364   5.948   8.946 -0.4228 -0.5723 -0.2492
   42CHL1  H27A 5586   2.300   5.857   8.949 -2.0388  0.5240  2.7855
   42CHL1  H27B 5587   2.444   5.929   9.020 -1.6495 -1.3191  0.9269
   42CHL1  H27C 5588   2.308   6.040   8.974 -0.1088 -0.2364 -0.7185
   43CHL1    C3 5589   4.374   6.625   9.733  0.3522 -0.1639  0.1474
   43CHL1    H3 5590   4.466   6.640   9.674  0.3369 -2.2524 -0.4798
   43CHL1    O3 5591   4.378   6.671   9.867 -0.5629 -0.2041 -0.2985
   43CHL1   H3' 5592   4.295   6.641   9.904 -0.8566 -0.8191 -1.3854
   43CHL1    C4 5593   4.264   6.714   9.673 -0.1434 -0.5141 -0.5936
   43CHL1   H4A 5594   4.172   6.703   9.735 -0.3497 -1.0433 -0.9867
   43CHL1   H4B 5595   4.281   6.821   9.699 -2.4606  0.3153 -2.1457
   43CHL1    C5 5596   4.234   6.683   9.528 -0.1845  0.4463 -0.4550
   43CHL1    C6 5597   4.243   6.769   9.430 -0.2522  0.3220  0.1389
   43CHL1    H6 5598   4.274   6.872   9.453 -2.3530  0.7807  1.1073
   43CHL1    C7 5599   4.217   6.741   9.282 -0.3039  0.1481 -0.2573
   43CHL1   H7A 5600   4.162   6.830   9.245 -1.5252 -1.3650 -2.3409
   43CHL1   H7B 5601   4.309   6.756   9.222 -0.8174  1.4874 -0.7402
   43CHL1    C8 5602   4.145   6.608   9.265  0.4284 -0.1245 -0.3700
   43CHL1    H8 5603   4.042   6.633   9.297  1.6899  2.9735  1.6837
   43CHL1   C14 5604   4.147   6.560   9.122  0.6932  0.0185  0.0471
   43CHL1   H14 5605   4.251   6.540   9.087  1.0959  1.0756  0.5658
   43CHL1   C15 5606   4.086   6.663   9.028  0.3005  0.0610  0.6589
   43CHL1  H15A 5607   4.001   6.720   9.072  1.0621  0.2879  1.8884
   43CHL1  H15B 5608   4.167   6.733   8.997  0.7965 -0.7338  0.1242
   43CHL1   C16 5609   4.038   6.578   8.908  0.8666  0.8742  0.1029
   43CHL1  H16A 5610   3.931   6.600   8.888  0.0360 -1.1385  1.8388
   43CHL1  H16B 5611   4.101   6.600   8.819 -0.0684 -0.4869 -0.9405
   43CHL1   C17 5612   4.042   6.427   8.942  0.1695 -0.2843 -0.1054
   43CHL1   H17 5613   4.140   6.387   8.908 -0.5467 -0.5922 -1.9620
   43CHL1   C13 5614   4.057   6.429   9.099 -0.6241 -0.1625 -0.9888
   43CHL1   C18 5615   3.908   6.440   9.145 -0.8899  0.5900 -0.6157
   43CHL1  H18A 5616   3.860   6.531   9.102 -0.3471  2.5618  2.6098
   43CHL1  H18B 5617   3.853   6.346   9.125 -2.3646  1.3823 -0.4964
   43CHL1  H18C 5618   3.886   6.451   9.254 -1.2070 -0.8867 -0.5113
   43CHL1   C12 5619   4.130   6.312   9.165  0.7725  0.2262  0.3458
   43CHL1  H12A 5620   4.082   6.215   9.143  1.5870  0.5180 -3.4030
   43CHL1  H12B 5621   4.233   6.305   9.123  0.2021 -0.9261 -0.9289
   43CHL1   C11 5622   4.141   6.345   9.314  0.1929 -0.2496 -0.0738
   43CHL1  H11A 5623   4.039   6.333   9.356 -0.9809  0.0807 -2.6750
   43CHL1  H11B 5624   4.200   6.263   9.361 -1.0469 -1.1989 -0.1136
   43CHL1    C9 5625   4.200   6.491   9.350 -0.2747 -0.6472 -0.8701
   43CHL1    H9 5626   4.306   6.495   9.317 -0.8675 -1.1029 -2.9644
   43CHL1   C10 5627   4.201   6.528   9.501 -0.3332 -0.0897 -0.6657
   43CHL1   C19 5628   4.060   6.505   9.559  0.5795 -0.2259  0.2071
   43CHL1  H19A 5629   3.982   6.563   9.507  0.4636 -0.1017  0.5158
   43CHL1  H19B 5630   4.022   6.401   9.558  0.3835 -0.2146  2.1273
   43CHL1  H19C 5631   4.055   6.534   9.666 -2.0127  1.9564 -0.4117
   43CHL1    C1 5632   4.312   6.447   9.576  0.7768  0.4802  0.4381
   43CHL1   H1A 5633   4.286   6.340   9.562  0.8590  0.7185 -1.9061
   43CHL1   H1B 5634   4.410   6.468   9.529  2.1841 -0.3635  2.8372
   43CHL1    C2 5635   4.336   6.476   9.726  0.2333 -0.3909  0.4456
   43CHL1   H2A 5636   4.426   6.425   9.766 -0.6457 -0.8159  1.9362
   43CHL1   H2B 5637   4.240   6.442   9.771 -1.3275 -0.8961 -2.8908
   43CHL1   C20 5638   3.931   6.346   8.861  0.5795 -0.3895  0.2977
   43CHL1   H20 5639   3.833   6.386   8.896  1.0017  1.3013 -0.3783
   43CHL1   C21 5640   3.930   6.202   8.902 -1.0090 -0.2794  0.8341
   43CHL1  H21A 5641   3.843   6.150   8.858 -1.4610  0.1838  1.1709
   43CHL1  H21B 5642   3.925   6.197   9.013 -1.2125 -0.0977  0.8336
   43CHL1  H21C 5643   4.024   6.150   8.872 -1.1805  0.2567 -0.6944
   43CHL1   C22 5644   3.927   6.370   8.713 -0.6294 -0.4848  0.9996
   43CHL1  H22A 5645   3.965   6.473   8.693  1.3279 -1.2526  0.5645
   43CHL1  H22B 5646   4.002   6.302   8.667 -0.4925  0.1143  0.3029
   43CHL1   C23 5647   3.787   6.366   8.654  0.2616 -0.3121  0.6272
   43CHL1  H23A 5648   3.734   6.272   8.680  0.3082 -0.9216 -1.2927
   43CHL1  H23B 5649   3.720   6.446   8.691  0.1106 -1.0201  1.9297
   43CHL1   C24 5650   3.785   6.382   8.500  0.5893  0.5179 -0.5032
   43CHL1  H24A 5651   3.679   6.363   8.473 -0.1462  1.8578  1.2812
   43CHL1  H24B 5652   3.818   6.484   8.469  0.0160  0.9192  0.2008
   43CHL1   C25 5653   3.878   6.283   8.435  0.1516 -0.0701 -0.1761
   43CHL1   H25 5654   3.985   6.304   8.459  0.5491 -2.4609  0.3979
   43CHL1   C26 5655   3.839   6.143   8.478 -0.6660  0.0596  0.7414
   43CHL1  H26A 5656   3.862   6.124   8.585  2.3546 -0.6238  0.0776
   43CHL1  H26B 5657   3.740   6.112   8.440 -1.4739  1.8164  1.2798
   43CHL1  H26C 5658   3.912   6.074   8.430  0.4504  1.6424  0.0413
   43CHL1   C27 5659   3.878   6.291   8.280  0.0894 -0.0266 -0.3851
   43CHL1  H27A 5660   3.786   6.246   8.236 -0.5644  0.9004  0.0047
   43CHL1  H27B 5661   3.903   6.396   8.254  1.8996 -0.7152 -1.6101
   43CHL1  H27C 5662   3.957   6.226   8.238  0.9418  1.1530 -0.6600
   44CHL1    C3 5663   5.427   6.333  10.098  0.5192  0.2621 -0.0544
   44CHL1    H3 5664   5.435   6.441  10.123 -2.6444  0.7734 -0.8452
   44CHL1    O3 5665   5.430   6.252  10.213  0.8868 -0.2700 -0.2630
   44CHL1   H3' 5666   5.337   6.231  10.218  0.0887  2.0291 -2.6755
   44CHL1    C4 5667   5.286   6.321  10.040 -0.1976  0.1220  0.3509
   44CHL1   H4A 5668   5.273   6.220   9.996  0.4130  0.5343 -0.8461
   44CHL1   H4B 5669   5.214   6.354  10.117 -0.1809  0.6009  0.1702
   44CHL1    C5 5670   5.271   6.414   9.925 -0.3909  0.4042 -0.0825
   44CHL1    C6 5671   5.191   6.524   9.932 -0.6280  0.4680 -0.4026
   44CHL1    H6 5672   5.120   6.540  10.014  0.0963 -0.9278  0.5426
   44CHL1    C7 5673   5.166   6.610   9.818  0.2587  0.0259  0.9104
   44CHL1   H7A 5674   5.058   6.633   9.810  0.0892 -1.2844 -2.1884
   44CHL1   H7B 5675   5.224   6.705   9.822  2.1112 -0.9612 -0.5962
   44CHL1    C8 5676   5.214   6.556   9.682 -0.2941  0.0962 -0.3930
   44CHL1    H8 5677   5.150   6.472   9.648  0.3779 -0.7817  0.4678
   44CHL1   C14 5678   5.202   6.669   9.582  0.0404  0.0709  0.1082
   44CHL1   H14 5679   5.269   6.748   9.622  1.6945  0.1910 -2.5859
   44CHL1   C15 5680   5.070   6.727   9.572  0.1643 -0.3338 -0.1747
   44CHL1  H15A 5681   4.988   6.656   9.549 -0.6974  1.0955 -1.7340
   44CHL1  H15B 5682   5.050   6.786   9.664  1.4047 -0.1517  0.0026
   44CHL1   C16 5683   5.080   6.815   9.449 -0.0490  1.0294  0.3315
   44CHL1  H16A 5684   4.988   6.790   9.392  1.2275 -2.7020 -0.3973
   44CHL1  H16B 5685   5.087   6.924   9.472 -3.5690  1.8185 -1.5683
   44CHL1   C17 5686   5.213   6.767   9.380  0.3360 -0.0228 -0.5001
   44CHL1   H17 5687   5.293   6.829   9.424 -2.2302  0.8832  3.3828
   44CHL1   C13 5688   5.254   6.632   9.446  0.3786  0.0766 -0.4809
   44CHL1   C18 5689   5.166   6.517   9.383  0.8999  0.4786 -0.0006
   44CHL1  H18A 5690   5.211   6.505   9.282 -0.8292 -1.1752 -0.6344
   44CHL1  H18B 5691   5.189   6.419   9.430 -0.1921  0.0618 -0.3068
   44CHL1  H18C 5692   5.059   6.544   9.370  0.6971 -0.2528  0.1153
   44CHL1   C12 5693   5.402   6.601   9.463  0.1811 -0.3333  0.7997
   44CHL1  H12A 5694   5.441   6.582   9.360 -1.4295 -1.2447  0.3177
   44CHL1  H12B 5695   5.456   6.684   9.512 -0.8270 -0.8836  2.9774
   44CHL1   C11 5696   5.427   6.482   9.553 -0.5635 -0.0507  0.2975
   44CHL1  H11A 5697   5.388   6.393   9.499  0.1235 -0.9456  1.2254
   44CHL1  H11B 5698   5.538   6.482   9.558 -0.5834 -0.3152  0.8187
   44CHL1    C9 5699   5.363   6.499   9.695  0.4844 -0.6922  0.4094
   44CHL1    H9 5700   5.420   6.585   9.737  0.4617 -0.5060  0.0608
   44CHL1   C10 5701   5.367   6.386   9.805  0.3378 -0.2875  0.9426
   44CHL1   C19 5702   5.320   6.256   9.731  0.1680  0.0606  0.7081
   44CHL1  H19A 5703   5.371   6.250   9.632 -0.2374 -0.9037  0.5525
   44CHL1  H19B 5704   5.334   6.161   9.787 -1.0240 -1.3599 -1.2811
   44CHL1  H19C 5705   5.213   6.270   9.705  0.7039  1.0017 -1.1402
   44CHL1    C1 5706   5.514   6.369   9.857 -0.5288 -1.0618  0.4129
   44CHL1   H1A 5707   5.582   6.325   9.781  0.0276 -0.3840  0.5093
   44CHL1   H1B 5708   5.553   6.468   9.886 -1.1012 -0.8639  0.5178
   44CHL1    C2 5709   5.539   6.291   9.989  0.8283  0.0212 -0.2031
   44CHL1   H2A 5710   5.638   6.308  10.036  0.8782  0.0419 -0.3143
   44CHL1   H2B 5711   5.525   6.182   9.969 -1.2666  0.3113 -0.5185
   44CHL1   C20 5712   5.207   6.772   9.222 -0.1907 -0.0753 -0.3291
   44CHL1   H20 5713   5.289   6.708   9.185 -0.8746 -1.3807  0.3550
   44CHL1   C21 5714   5.254   6.916   9.198 -0.4739 -0.3358  0.1135
   44CHL1  H21A 5715   5.191   6.992   9.249  0.9907  2.7571 -2.3538
   44CHL1  H21B 5716   5.257   6.941   9.090 -0.8278 -0.1994  0.1355
   44CHL1  H21C 5717   5.353   6.928   9.247  0.4939  1.2795 -2.0774
   44CHL1   C22 5718   5.072   6.748   9.155 -0.6121  0.8482  0.3113
   44CHL1  H22A 5719   5.018   6.670   9.214 -0.4711  2.2594  2.4180
   44CHL1  H22B 5720   5.011   6.840   9.167 -0.7811  0.9087 -0.9011
   44CHL1   C23 5721   5.076   6.716   9.004  0.0036 -0.1413  0.5878
   44CHL1  H23A 5722   5.133   6.796   8.953 -1.2170 -0.2139 -0.9726
   44CHL1  H23B 5723   5.134   6.624   8.983  3.0737  1.8026 -0.0481
   44CHL1   C24 5724   4.932   6.724   8.950  0.3590 -0.5447  0.5432
   44CHL1  H24A 5725   4.865   6.648   8.996  0.1922 -0.6706  0.0900
   44CHL1  H24B 5726   4.889   6.819   8.988  0.3035  0.4235 -1.7763
   44CHL1   C25 5727   4.916   6.709   8.800 -0.3845 -1.0551  0.3275
   44CHL1   H25 5728   4.935   6.607   8.759  1.1707 -1.1312  1.1738
   44CHL1   C26 5729   4.769   6.737   8.760 -0.1181  0.1612  0.1821
   44CHL1  H26A 5730   4.720   6.834   8.785 -0.2206  0.2000 -0.1709
   44CHL1  H26B 5731   4.760   6.714   8.652  0.8682  1.9940 -0.3167
   44CHL1  H26C 5732   4.695   6.666   8.804  0.7816 -1.6189 -1.0339
   44CHL1   C27 5733   5.015   6.810   8.724 -0.4102 -0.1811  0.8723
   44CHL1  H27A 5734   5.001   6.913   8.763  0.4858  1.9897 -3.7806
   44CHL1  H27B 5735   5.124   6.798   8.736  0.3974  0.3821 -3.7800
   44CHL1  H27C 5736   5.003   6.810   8.613 -0.3356  0.6888  0.8543
   45CHL1    C3 5737   1.718   5.482  10.240  0.8074 -0.3282 -1.3097
   45CHL1    H3 5738   1.824   5.461  10.264  0.6618  0.5381  0.2579
   45CHL1    O3 5739   1.654   5.457  10.364  0.1709  0.1795  0.5285
   45CHL1   H3' 5740   1.562   5.447  10.336 -0.3717  1.3780  1.7413
   45CHL1    C4 5741   1.697   5.628  10.207  0.3825 -0.1514  0.1205
   45CHL1   H4A 5742   1.591   5.655  10.223  0.6101  1.3419 -0.6466
   45CHL1   H4B 5743   1.752   5.684  10.286 -2.2426  1.2824  1.0481
   45CHL1    C5 5744   1.741   5.658  10.067  0.1389 -0.3898 -0.0104
   45CHL1    C6 5745   1.836   5.745  10.047  1.3189 -0.4714  0.3768
   45CHL1    H6 5746   1.878   5.794  10.137 -1.4320  0.1141  1.4403
   45CHL1    C7 5747   1.880   5.791   9.915  0.3195  0.1129 -0.1728
   45CHL1   H7A 5748   1.880   5.902   9.924 -0.8921  0.1221 -0.1866
   45CHL1   H7B 5749   1.984   5.751   9.910 -0.2941 -1.5784 -0.0373
   45CHL1    C8 5750   1.798   5.739   9.795  0.5017  0.3724  0.5819
   45CHL1    H8 5751   1.875   5.724   9.716  1.3239  0.0560  1.4133
   45CHL1   C14 5752   1.698   5.838   9.734 -0.0139  0.4132 -0.0980
   45CHL1   H14 5753   1.618   5.855   9.810  0.0929  0.4368  0.0090
   45CHL1   C15 5754   1.770   5.970   9.700  0.3553  0.2804 -0.0591
   45CHL1  H15A 5755   1.750   6.035   9.787  0.6796 -1.8482  1.6807
   45CHL1  H15B 5756   1.876   5.958   9.670  0.2075 -0.9335 -0.1558
   45CHL1   C16 5757   1.706   6.016   9.572 -0.2217 -0.9751 -0.4159
   45CHL1  H16A 5758   1.615   6.079   9.585  0.1727 -0.3272 -0.7832
   45CHL1  H16B 5759   1.786   6.066   9.514 -0.7790  0.5709  0.0958
   45CHL1   C17 5760   1.689   5.890   9.490  0.1755  0.7030  0.5350
   45CHL1   H17 5761   1.781   5.843   9.451 -0.2627 -1.5045  1.9426
   45CHL1   C13 5762   1.642   5.792   9.601  0.3764  0.3572 -0.4750
   45CHL1   C18 5763   1.484   5.805   9.612  0.0420 -0.1579  0.1136
   45CHL1  H18A 5764   1.458   5.740   9.698 -0.5243  1.9029  1.6070
   45CHL1  H18B 5765   1.451   5.909   9.635  0.0101 -0.1626  0.0879
   45CHL1  H18C 5766   1.444   5.773   9.514  0.8213 -0.3045 -0.1625
   45CHL1   C12 5767   1.672   5.638   9.577  0.2784 -0.2685 -0.1146
   45CHL1  H12A 5768   1.611   5.612   9.487  1.6843 -0.0253 -1.1787
   45CHL1  H12B 5769   1.772   5.621   9.532 -1.0403 -1.8103 -2.7677
   45CHL1   C11 5770   1.657   5.547   9.696 -0.3244 -0.5860  0.3926
   45CHL1  H11A 5771   1.547   5.537   9.712 -0.1752 -2.2860  0.4775
   45CHL1  H11B 5772   1.692   5.446   9.668 -0.6383 -0.5386 -0.2015
   45CHL1    C9 5773   1.738   5.601   9.818 -0.2285  0.1618 -1.0020
   45CHL1    H9 5774   1.825   5.533   9.818  0.1139  0.5575  0.9318
   45CHL1   C10 5775   1.670   5.570   9.962 -0.2454  0.9700 -0.1505
   45CHL1   C19 5776   1.514   5.596   9.947 -0.4246 -0.2432 -0.1826
   45CHL1  H19A 5777   1.466   5.518   9.884 -1.3106  0.7525 -0.7624
   45CHL1  H19B 5778   1.456   5.596  10.042 -0.0330 -2.2675  0.1104
   45CHL1  H19C 5779   1.489   5.688   9.892 -0.1635  0.0876  0.2434
   45CHL1    C1 5780   1.700   5.422   9.995  0.1733 -0.1080  0.0669
   45CHL1   H1A 5781   1.649   5.354   9.925 -0.1593  0.8244 -0.6079
   45CHL1   H1B 5782   1.809   5.399  10.001  0.3724  0.9501  0.8191
   45CHL1    C2 5783   1.652   5.386  10.140 -0.7570 -0.0500  0.9215
   45CHL1   H2A 5784   1.675   5.279  10.163  0.4411 -0.2665 -1.0117
   45CHL1   H2B 5785   1.543   5.405  10.133 -0.6708 -0.1804 -1.7039
   45CHL1   C20 5786   1.592   5.916   9.373 -0.3947 -0.2825 -0.1978
   45CHL1   H20 5787   1.493   5.954   9.407 -0.5035  0.3475 -1.1688
   45CHL1   C21 5788   1.577   5.795   9.280 -0.6098 -0.0714  0.5050
   45CHL1  H21A 5789   1.676   5.743   9.276 -0.8338 -0.5504  1.0294
   45CHL1  H21B 5790   1.546   5.831   9.179 -0.2548  0.9234  0.7402
   45CHL1  H21C 5791   1.500   5.726   9.320 -0.1982 -0.1667  1.1499
   45CHL1   C22 5792   1.633   6.042   9.292  0.3346  0.7009 -0.3222
   45CHL1  H22A 5793   1.559   6.060   9.211 -2.2456 -1.4567  1.3584
   45CHL1  H22B 5794   1.626   6.129   9.361  1.7217  1.0809 -0.6350
   45CHL1   C23 5795   1.774   6.034   9.224  0.5570  0.3245  0.2651
   45CHL1  H23A 5796   1.853   5.994   9.290  1.2554  0.7702 -0.2944
   45CHL1  H23B 5797   1.758   5.966   9.138  0.3287  1.1070 -0.3187
   45CHL1   C24 5798   1.822   6.172   9.171  0.8026 -0.2148  0.3874
   45CHL1  H24A 5799   1.734   6.208   9.114  0.9748  0.3814  0.4948
   45CHL1  H24B 5800   1.859   6.235   9.255  0.5000 -0.1330  0.4611
   45CHL1   C25 5801   1.940   6.156   9.070  0.0027  0.1965  0.2024
   45CHL1   H25 5802   1.996   6.065   9.099  0.6544 -0.0576 -1.7621
   45CHL1   C26 5803   1.884   6.124   8.927  0.2036 -0.1935  0.3747
   45CHL1  H26A 5804   1.969   6.096   8.860 -0.6777  2.8740 -2.2670
   45CHL1  H26B 5805   1.810   6.042   8.942  1.0688 -0.7230  1.9317
   45CHL1  H26C 5806   1.833   6.214   8.887 -0.4262 -0.8103 -0.2513
   45CHL1   C27 5807   2.030   6.282   9.053 -0.3986 -0.3625 -0.3160
   45CHL1  H27A 5808   2.092   6.251   8.966  0.5592  1.3741 -0.2800
   45CHL1  H27B 5809   1.964   6.368   9.030  1.2566  1.0519  0.0119
   45CHL1  H27C 5810   2.099   6.297   9.138  0.8978 -0.7020 -1.2725
   46CHL1    C3 5811   5.195   1.547  10.114  0.3189 -0.6956  0.0205
   46CHL1    H3 5812   5.215   1.438  10.107 -0.1431 -0.8911  1.3562
   46CHL1    O3 5813   5.206   1.580  10.250 -0.1691  0.2574  0.1754
   46CHL1   H3' 5814   5.116   1.565  10.281 -0.3466 -0.9117 -0.8450
   46CHL1    C4 5815   5.284   1.630  10.025 -0.4637  0.6825  0.3345
   46CHL1   H4A 5816   5.251   1.734  10.045 -0.0530  0.4451  2.5103
   46CHL1   H4B 5817   5.391   1.621  10.051 -0.0163  0.4595 -1.4600
   46CHL1    C5 5818   5.267   1.600   9.877  0.2836  0.8548  0.4117
   46CHL1    C6 5819   5.375   1.560   9.806 -0.6932  0.3769  0.1971
   46CHL1    H6 5820   5.475   1.562   9.852  0.5124 -0.2532 -2.2340
   46CHL1    C7 5821   5.375   1.531   9.657  0.0763  0.2539  0.4105
   46CHL1   H7A 5822   5.449   1.588   9.597 -0.6798 -0.3038 -1.1368
   46CHL1   H7B 5823   5.381   1.421   9.640 -2.1969 -0.3019  2.6034
   46CHL1    C8 5824   5.236   1.574   9.598  0.9307  0.3227  1.0690
   46CHL1    H8 5825   5.237   1.685   9.583  3.7891  0.0648 -1.8604
   46CHL1   C14 5826   5.231   1.523   9.452  0.1174  0.1387  0.0155
   46CHL1   H14 5827   5.247   1.413   9.455 -2.3822 -0.2818  0.8899
   46CHL1   C15 5828   5.338   1.564   9.347 -0.1338  0.0867  0.2263
   46CHL1  H15A 5829   5.347   1.673   9.325 -2.2614  1.0109  3.3180
   46CHL1  H15B 5830   5.443   1.535   9.371 -0.1805  0.3507  0.7599
   46CHL1   C16 5831   5.284   1.492   9.218  0.7797  0.4345  0.6777
   46CHL1  H16A 5832   5.325   1.548   9.131 -0.8679  4.2155  2.1348
   46CHL1  H16B 5833   5.336   1.394   9.207 -1.0057 -0.4971  0.1953
   46CHL1   C17 5834   5.131   1.468   9.236 -0.0561 -0.3215  0.6531
   46CHL1   H17 5835   5.113   1.359   9.249 -1.3435 -0.2521 -0.3024
   46CHL1   C13 5836   5.098   1.534   9.370  0.0082  0.2650 -0.0016
   46CHL1   C18 5837   5.086   1.688   9.332 -0.0738  0.0738 -0.2996
   46CHL1  H18A 5838   4.983   1.695   9.290 -1.3965 -0.0158  2.7208
   46CHL1  H18B 5839   5.086   1.755   9.420 -1.6266 -0.1937 -0.0686
   46CHL1  H18C 5840   5.162   1.722   9.258 -3.2250  1.3028 -3.2728
   46CHL1   C12 5841   4.979   1.488   9.460  0.0811 -0.6599  0.2108
   46CHL1  H12A 5842   4.890   1.519   9.400  0.4508 -0.1881 -0.1028
   46CHL1  H12B 5843   4.977   1.377   9.474 -1.7613 -0.8568 -1.2100
   46CHL1   C11 5844   4.987   1.556   9.599  0.2159  0.2314 -0.1145
   46CHL1  H11A 5845   4.959   1.661   9.576  0.9154  0.2334 -0.9997
   46CHL1  H11B 5846   4.909   1.499   9.653 -0.4249  0.5062 -0.7424
   46CHL1    C9 5847   5.118   1.532   9.679  0.0972 -0.1150 -0.4902
   46CHL1    H9 5848   5.118   1.422   9.696 -2.2558 -0.0571  0.1581
   46CHL1   C10 5849   5.125   1.590   9.824  0.9121 -0.1521 -0.7710
   46CHL1   C19 5850   5.078   1.732   9.810 -0.6828 -0.2050  0.5630
   46CHL1  H19A 5851   5.119   1.786   9.722 -2.1505  1.6496  0.9435
   46CHL1  H19B 5852   4.971   1.751   9.783 -0.7028 -0.0053  0.7790
   46CHL1  H19C 5853   5.089   1.801   9.896  1.2399 -0.0385  0.2127
   46CHL1    C1 5854   5.039   1.526   9.924  0.0531  0.1818  0.4908
   46CHL1   H1A 5855   4.931   1.535   9.900 -0.1112  0.3914  1.2772
   46CHL1   H1B 5856   5.071   1.420   9.929  0.2361  0.1906 -0.3568
   46CHL1    C2 5857   5.055   1.582  10.059 -0.0008  1.1441  0.2994
   46CHL1   H2A 5858   4.979   1.530  10.121  0.2681 -2.8777 -2.4172
   46CHL1   H2B 5859   5.033   1.691  10.069 -1.1415  1.1087 -1.3772
   46CHL1   C20 5860   5.055   1.507   9.105 -0.4016 -0.6202  0.3210
   46CHL1   H20 5861   5.059   1.618   9.102 -3.4092 -0.4409 -1.2745
   46CHL1   C21 5862   4.914   1.459   9.118  0.7229  0.3023 -0.2586
   46CHL1  H21A 5863   4.870   1.463   9.016  0.9442  0.3038 -0.3550
   46CHL1  H21B 5864   4.859   1.526   9.187 -0.2813  0.2181 -0.9635
   46CHL1  H21C 5865   4.918   1.357   9.161  1.9378  1.1189  1.7342
   46CHL1   C22 5866   5.117   1.452   8.970  0.6798  0.1672 -0.0368
   46CHL1  H22A 5867   5.057   1.490   8.884 -2.3422 -1.3388  1.2811
   46CHL1  H22B 5868   5.223   1.483   8.955  2.1221 -4.0194  0.0164
   46CHL1   C23 5869   5.120   1.303   8.970 -0.1243 -0.1596  0.0517
   46CHL1  H23A 5870   5.191   1.269   9.047 -2.8379 -1.4545  2.1250
   46CHL1  H23B 5871   5.022   1.256   8.991 -0.0934 -0.1465  0.2278
   46CHL1   C24 5872   5.151   1.246   8.827  0.2622 -0.3050 -0.2296
   46CHL1  H24A 5873   5.133   1.136   8.821 -4.5646  0.1910  0.5396
   46CHL1  H24B 5874   5.077   1.284   8.754  0.0107 -0.5896 -0.1278
   46CHL1   C25 5875   5.292   1.287   8.785 -0.0887  0.2507  1.4150
   46CHL1   H25 5876   5.307   1.397   8.788  3.1058  0.0568 -1.4551
   46CHL1   C26 5877   5.402   1.224   8.870  0.8494 -0.3361 -0.3256
   46CHL1  H26A 5878   5.492   1.250   8.810 -0.4972  3.5197 -0.9444
   46CHL1  H26B 5879   5.395   1.272   8.970  0.2311 -0.4081 -0.3296
   46CHL1  H26C 5880   5.400   1.114   8.891  0.7391 -0.3362 -0.3372
   46CHL1   C27 5881   5.310   1.258   8.631 -0.1105 -0.4240  0.1902
   46CHL1  H27A 5882   5.416   1.271   8.600  0.5921 -3.7030  0.9011
   46CHL1  H27B 5883   5.294   1.152   8.604 -2.2329 -0.0622 -0.1350
   46CHL1  H27C 5884   5.240   1.322   8.572 -0.8414  0.7215  2.2024
   47CHL1    C3 5885   4.691   4.163  10.067 -0.0045  0.3183  0.0848
   47CHL1    H3 5886   4.779   4.220  10.031 -0.8960  2.7911  1.6027
   47CHL1    O3 5887   4.672   4.194  10.203  0.2530  0.1614 -0.3174
   47CHL1   H3' 5888   4.638   4.112  10.240 -1.0714 -0.2947 -2.3553
   47CHL1    C4 5889   4.563   4.196   9.988  0.2893 -0.1068 -0.0465
   47CHL1   H4A 5890   4.488   4.139  10.046  2.0095  0.5116  2.9981
   47CHL1   H4B 5891   4.532   4.300  10.010 -1.5100 -0.6733  0.2317
   47CHL1    C5 5892   4.562   4.163   9.843  0.5925 -0.0223 -0.4152
   47CHL1    C6 5893   4.528   4.255   9.749 -0.0376 -0.0118  0.6646
   47CHL1    H6 5894   4.516   4.362   9.772 -1.5027 -0.3651  1.6852
   47CHL1    C7 5895   4.537   4.228   9.602  0.5680 -0.0830 -0.1629
   47CHL1   H7A 5896   4.450   4.270   9.548  2.4574 -0.1991 -3.6041
   47CHL1   H7B 5897   4.627   4.288   9.575  0.9582 -1.5030 -2.1917
   47CHL1    C8 5898   4.556   4.078   9.562  0.5134 -0.3661 -0.8401
   47CHL1    H8 5899   4.457   4.030   9.577  0.3851  0.2532  0.4406
   47CHL1   C14 5900   4.609   4.055   9.419 -0.1429 -0.0668  0.6281
   47CHL1   H14 5901   4.716   4.084   9.421  0.3317 -1.6486 -0.3307
   47CHL1   C15 5902   4.538   4.146   9.314 -0.4094 -0.3007  0.0419
   47CHL1  H15A 5903   4.429   4.140   9.335 -0.7377 -1.5164 -1.8359
   47CHL1  H15B 5904   4.573   4.252   9.307  0.3408 -0.5763 -0.4188
   47CHL1   C16 5905   4.561   4.069   9.184  0.5153 -0.0843 -0.6342
   47CHL1  H16A 5906   4.457   4.046   9.154  0.0571  1.8304 -0.6437
   47CHL1  H16B 5907   4.611   4.129   9.104  2.1914  0.6603  0.9043
   47CHL1   C17 5908   4.637   3.935   9.219 -0.7738 -0.0562 -1.0444
   47CHL1   H17 5909   4.745   3.962   9.223 -1.1766  1.5008 -0.0201
   47CHL1   C13 5910   4.606   3.911   9.365  0.1067 -0.6872 -0.1785
   47CHL1   C18 5911   4.464   3.849   9.375  0.0659 -0.0172  0.5667
   47CHL1  H18A 5912   4.416   3.875   9.472 -2.0408  1.3729 -0.7779
   47CHL1  H18B 5913   4.384   3.884   9.307  1.6662  0.3871 -1.1960
   47CHL1  H18C 5914   4.483   3.740   9.368 -0.1151  0.0027 -0.2303
   47CHL1   C12 5915   4.694   3.838   9.457  0.2259  0.0672  0.2734
   47CHL1  H12A 5916   4.682   3.731   9.429 -1.2063 -0.3764  2.3855
   47CHL1  H12B 5917   4.799   3.876   9.451 -0.1074  1.1655  0.9725
   47CHL1   C11 5918   4.647   3.849   9.610  0.7072 -0.2981  0.7008
   47CHL1  H11A 5919   4.544   3.806   9.607 -0.2194  1.8066 -1.5657
   47CHL1  H11B 5920   4.717   3.790   9.672  1.5541  1.1660  1.1906
   47CHL1    C9 5921   4.636   3.995   9.658 -0.3559 -0.3638  0.0188
   47CHL1    H9 5922   4.733   4.044   9.636 -0.0363 -1.0648 -0.1819
   47CHL1   C10 5923   4.605   4.022   9.809  0.6232  0.0570  0.5633
   47CHL1   C19 5924   4.477   3.939   9.853  0.3974 -0.4152 -0.1907
   47CHL1  H19A 5925   4.387   3.965   9.794 -0.4608 -0.1621  1.1921
   47CHL1  H19B 5926   4.499   3.831   9.838 -1.5770 -0.6375 -2.1077
   47CHL1  H19C 5927   4.448   3.959   9.958 -3.6152 -1.2891 -0.9748
   47CHL1    C1 5928   4.736   3.999   9.890 -0.1891  0.1909  0.7417
   47CHL1   H1A 5929   4.767   3.893   9.878  2.1235  0.9547 -0.6213
   47CHL1   H1B 5930   4.819   4.056   9.844  3.3199 -5.7007 -1.3024
   47CHL1    C2 5931   4.726   4.014  10.045  0.4491  0.1641  1.2858
   47CHL1   H2A 5932   4.822   3.989  10.095  0.9201 -1.5506 -0.3245
   47CHL1   H2B 5933   4.650   3.944  10.086 -0.5692 -1.1595 -2.4046
   47CHL1   C20 5934   4.627   3.821   9.123  0.3089  0.1565  0.3241
   47CHL1   H20 5935   4.545   3.750   9.148 -1.0114  0.8227 -1.8123
   47CHL1   C21 5936   4.763   3.747   9.113 -0.6470  0.2324 -0.5071
   47CHL1  H21A 5937   4.794   3.727   9.218 -2.1548  4.0749  0.8476
   47CHL1  H21B 5938   4.839   3.818   9.072 -0.0904 -0.0767 -0.0441
   47CHL1  H21C 5939   4.758   3.656   9.050 -0.1748  0.4371 -0.8490
   47CHL1   C22 5940   4.591   3.863   8.973  0.2399 -1.2518  0.8558
   47CHL1  H22A 5941   4.519   3.947   8.972  1.1506 -0.4566  0.8199
   47CHL1  H22B 5942   4.687   3.901   8.931 -0.4791 -0.4994 -0.1479
   47CHL1   C23 5943   4.557   3.747   8.878  0.3330 -0.1533 -0.4905
   47CHL1  H23A 5944   4.620   3.657   8.889  0.1870 -0.5572 -2.6029
   47CHL1  H23B 5945   4.454   3.726   8.914  0.8831 -2.2752 -0.0314
   47CHL1   C24 5946   4.555   3.798   8.735 -0.4384  0.1050  0.1280
   47CHL1  H24A 5947   4.636   3.873   8.729 -0.0168 -0.3083  0.5592
   47CHL1  H24B 5948   4.579   3.711   8.669 -1.8200  0.4535 -0.8972
   47CHL1   C25 5949   4.425   3.868   8.695  0.0421 -0.2051 -0.5666
   47CHL1   H25 5950   4.390   3.923   8.785 -1.8026  0.6357 -1.7452
   47CHL1   C26 5951   4.437   3.976   8.585  0.3477  0.9884 -0.0949
   47CHL1  H26A 5952   4.453   3.929   8.486  1.5204 -1.7470  1.2671
   47CHL1  H26B 5953   4.512   4.056   8.603 -1.2743  2.6804 -0.4838
   47CHL1  H26C 5954   4.336   4.023   8.581 -0.2741 -0.3997 -1.5846
   47CHL1   C27 5955   4.313   3.769   8.668 -0.5317 -0.2461 -0.4385
   47CHL1  H27A 5956   4.323   3.729   8.565  0.6274  2.0159 -1.2848
   47CHL1  H27B 5957   4.312   3.681   8.736 -1.4069 -0.3365 -0.5522
   47CHL1  H27C 5958   4.211   3.814   8.670 -0.5111 -0.1676  2.0452
   48CHL1    C3 5959   5.807   0.367  10.035 -1.2002  0.4591 -0.1682
   48CHL1    H3 5960   5.741   0.278  10.036  0.8689 -1.1436  1.1503
   48CHL1    O3 5961   5.792   0.435  10.159 -0.6096  0.6431 -0.0324
   48CHL1   H3' 5962   5.699   0.460  10.160 -0.5509  1.1519  3.2202
   48CHL1    C4 5963   5.956   0.330  10.012 -0.1601 -0.0551  0.5199
   48CHL1   H4A 5964   6.018   0.416  10.043  1.4118 -0.8731 -0.2447
   48CHL1   H4B 5965   5.984   0.248  10.081  0.4022 -0.8933 -0.6698
   48CHL1    C5 5966   5.986   0.286   9.867  0.2729  0.1316  0.4150
   48CHL1    C6 5967   6.044   0.167   9.843  0.2295 -0.4882  0.1364
   48CHL1    H6 5968   6.070   0.107   9.931 -0.8174  0.9478  1.4594
   48CHL1    C7 5969   6.079   0.120   9.707  0.3233 -0.6303  0.8480
   48CHL1   H7A 5970   6.179   0.073   9.698  0.5893  0.1907 -1.2014
   48CHL1   H7B 5971   6.000   0.046   9.682 -2.3108  1.6593  1.8516
   48CHL1    C8 5972   6.079   0.235   9.604 -0.2083  0.5192  1.1584
   48CHL1    H8 5973   6.177   0.285   9.615 -0.2359  0.5983  1.0483
   48CHL1   C14 5974   6.075   0.174   9.461 -0.0404 -0.4842 -1.0806
   48CHL1   H14 5975   5.974   0.132   9.441 -0.9284  2.1548 -2.6794
   48CHL1   C15 5976   6.169   0.058   9.433 -0.0331 -0.0229  0.2806
   48CHL1  H15A 5977   6.271   0.095   9.458  0.6758 -2.4744  1.3878
   48CHL1  H15B 5978   6.156  -0.039   9.486  1.0034  0.5071  1.5646
   48CHL1   C16 5979   6.164   0.044   9.275 -0.2905  0.2418  0.5511
   48CHL1  H16A 5980   6.272   0.049   9.253 -0.3803  2.5115  0.3478
   48CHL1  H16B 5981   6.114  -0.050   9.245  0.0965  0.9138 -2.4946
   48CHL1   C17 5982   6.082   0.164   9.226 -0.8537 -0.0250  0.2067
   48CHL1   H17 5983   5.974   0.144   9.215 -1.4924  1.7368  2.5189
   48CHL1   C13 5984   6.081   0.271   9.346 -0.0058 -0.4431  0.3297
   48CHL1   C18 5985   6.218   0.343   9.347 -1.2306 -0.7502 -0.8664
   48CHL1  H18A 5986   6.249   0.402   9.435 -0.7952  0.1804 -1.6304
   48CHL1  H18B 5987   6.303   0.277   9.320  0.4950  0.6503  0.8739
   48CHL1  H18C 5988   6.221   0.424   9.271  2.5630  0.0514 -0.0567
   48CHL1   C12 5989   5.959   0.369   9.352  0.3131 -0.6474 -0.1829
   48CHL1  H12A 5990   5.959   0.450   9.275 -1.0667  0.1707  0.6220
   48CHL1  H12B 5991   5.867   0.312   9.326  0.2976 -0.0528 -1.5063
   48CHL1   C11 5992   5.948   0.433   9.497 -0.5790 -0.8570  0.6040
   48CHL1  H11A 5993   6.031   0.503   9.523 -0.4106 -0.9848  0.4106
   48CHL1  H11B 5994   5.855   0.494   9.501 -0.1387  0.4039 -3.6749
   48CHL1    C9 5995   5.956   0.329   9.615  0.8091  0.1034  0.7353
   48CHL1    H9 5996   5.874   0.257   9.592  0.5766  0.3776  0.7018
   48CHL1   C10 5997   5.938   0.386   9.755 -0.3174 -0.3923  0.7104
   48CHL1   C19 5998   6.023   0.511   9.767 -0.7253 -0.1284  0.5225
   48CHL1  H19A 5999   6.057   0.532   9.871  0.5745  0.1028  0.0636
   48CHL1  H19B 6000   6.119   0.498   9.712 -1.5683  0.1326 -1.0593
   48CHL1  H19C 6001   5.967   0.596   9.723  0.3927  0.3058 -0.0904
   48CHL1    C1 6002   5.788   0.407   9.783 -0.2548 -0.1672  0.6042
   48CHL1   H1A 6003   5.733   0.466   9.707 -0.6752  0.7081  1.5581
   48CHL1   H1B 6004   5.734   0.310   9.783 -1.6972  0.6068 -0.1782
   48CHL1    C2 6005   5.754   0.462   9.926  0.0538  0.2650  0.1126
   48CHL1   H2A 6006   5.643   0.471   9.929 -0.0349 -0.6501 -0.3641
   48CHL1   H2B 6007   5.782   0.570   9.933 -0.0324  0.3641 -0.9664
   48CHL1   C20 6008   6.130   0.214   9.093  0.1950 -0.3035  0.2968
   48CHL1   H20 6009   6.233   0.255   9.108 -0.2507  2.0213 -2.1270
   48CHL1   C21 6010   6.030   0.309   9.027 -0.1211  0.4317 -0.1115
   48CHL1  H21A 6011   5.933   0.254   9.023  0.1897 -0.0784 -2.9787
   48CHL1  H21B 6012   6.054   0.326   8.920 -2.1414 -3.9863 -1.5260
   48CHL1  H21C 6013   6.014   0.406   9.078 -1.3863  0.9830 -1.4661
   48CHL1   C22 6014   6.147   0.085   8.993 -0.5072  0.2517  1.3935
   48CHL1  H22A 6015   6.101  -0.011   9.024  1.9978 -1.9186 -1.0576
   48CHL1  H22B 6016   6.094   0.102   8.896  1.9372  1.4408  0.1793
   48CHL1   C23 6017   6.292   0.073   8.950  1.1411  0.0079 -0.0021
   48CHL1  H23A 6018   6.333   0.175   8.935 -0.2408  0.6189  0.2378
   48CHL1  H23B 6019   6.345   0.021   9.034  2.1230 -0.3410 -0.8055
   48CHL1   C24 6020   6.296  -0.015   8.827 -0.3391  0.1811  0.1739
   48CHL1  H24A 6021   6.254  -0.113   8.855  0.7482  0.3895  2.8490
   48CHL1  H24B 6022   6.235   0.034   8.748 -0.3324  0.6516  0.4571
   48CHL1   C25 6023   6.434  -0.033   8.773 -0.0990  0.4098 -0.1405
   48CHL1   H25 6024   6.483   0.062   8.741  2.8436 -0.8209  0.3211
   48CHL1   C26 6025   6.536  -0.097   8.873  0.0078 -0.0354  0.3447
   48CHL1  H26A 6026   6.549  -0.042   8.969  0.6693  0.2907  0.0716
   48CHL1  H26B 6027   6.502  -0.192   8.919 -0.2429  0.6011  1.5272
   48CHL1  H26C 6028   6.634  -0.124   8.831 -0.3136  0.8654 -1.0473
   48CHL1   C27 6029   6.423  -0.117   8.644  0.4923 -0.0283  0.0178
   48CHL1  H27A 6030   6.526  -0.124   8.603  0.8802  0.2431  0.9282
   48CHL1  H27B 6031   6.381  -0.219   8.661 -2.7182  1.2781  0.7727
   48CHL1  H27C 6032   6.352  -0.062   8.578  1.6104  2.1146  0.5265
   49CHL1    C3 6033   5.531   1.893  10.040  0.0390  0.3209 -0.1182
   49CHL1    H3 6034   5.464   1.805  10.034  2.0190 -1.3835  1.4025
   49CHL1    O3 6035   5.523   1.946  10.172  0.7089  0.7368  0.1829
   49CHL1   H3' 6036   5.558   1.875  10.226  0.7790  0.4537 -0.2275
   49CHL1    C4 6037   5.678   1.865  10.016  0.2753  0.7137 -0.0333
   49CHL1   H4A 6038   5.736   1.957  10.038  0.3314  0.6526  0.0764
   49CHL1   H4B 6039   5.714   1.784  10.083  3.3340  1.7416 -0.2763
   49CHL1    C5 6040   5.701   1.820   9.874  0.0781 -1.1025 -0.1473
   49CHL1    C6 6041   5.751   1.701   9.837 -0.0598 -0.9549 -0.3922
   49CHL1    H6 6042   5.790   1.644   9.922  0.0427 -0.8129 -0.3426
   49CHL1    C7 6043   5.766   1.647   9.697  0.1597 -0.2306  0.4353
   49CHL1   H7A 6044   5.848   1.572   9.687  2.2872  1.8704  1.1832
   49CHL1   H7B 6045   5.676   1.586   9.673 -0.5842  0.0026  2.4358
   49CHL1    C8 6046   5.758   1.767   9.594 -0.2872  0.6451 -0.9314
   49CHL1    H8 6047   5.854   1.819   9.611 -1.6212  2.1883  2.9473
   49CHL1   C14 6048   5.748   1.713   9.449  0.3994  0.2542  0.0869
   49CHL1   H14 6049   5.651   1.660   9.446  0.5405  0.0367 -0.7032
   49CHL1   C15 6050   5.844   1.594   9.402  1.1247  0.0082  0.8377
   49CHL1  H15A 6051   5.952   1.614   9.414  1.7380 -0.5323 -2.6075
   49CHL1  H15B 6052   5.824   1.494   9.446 -0.0155 -0.3206 -0.3582
   49CHL1   C16 6053   5.812   1.590   9.247  0.1569  0.1034  0.1876
   49CHL1  H16A 6054   5.906   1.596   9.188 -0.8898  1.3371 -1.4218
   49CHL1  H16B 6055   5.757   1.497   9.223  1.3626 -0.1211 -1.9568
   49CHL1   C17 6056   5.729   1.718   9.214 -0.0539 -0.2696  0.4457
   49CHL1   H17 6057   5.623   1.689   9.194  0.0464 -1.2430  1.2345
   49CHL1   C13 6058   5.735   1.809   9.334  0.1343  0.1542  0.8073
   49CHL1   C18 6059   5.879   1.868   9.330 -0.0949 -0.0023  0.4554
   49CHL1  H18A 6060   5.960   1.803   9.292 -0.9900 -1.6490  1.2499
   49CHL1  H18B 6061   5.884   1.964   9.274  1.7968  0.2234  0.9593
   49CHL1  H18C 6062   5.915   1.912   9.425 -0.6086 -1.8230  1.5502
   49CHL1   C12 6063   5.614   1.910   9.365  0.5439 -0.8182 -0.4763
   49CHL1  H12A 6064   5.622   1.998   9.297  2.6421 -0.2388  0.4417
   49CHL1  H12B 6065   5.518   1.855   9.366  0.4078 -0.5767  0.2541
   49CHL1   C11 6066   5.641   1.968   9.508 -0.0864 -0.2731 -0.2786
   49CHL1  H11A 6067   5.739   2.017   9.490 -0.0235  0.0030  0.7372
   49CHL1  H11B 6068   5.564   2.046   9.523 -0.6757 -0.8434 -0.2824
   49CHL1    C9 6069   5.642   1.866   9.621 -0.2137 -0.4535  0.1345
   49CHL1    H9 6070   5.550   1.806   9.605 -0.1994 -0.6366  0.7393
   49CHL1   C10 6071   5.658   1.920   9.766  0.8969  0.0842 -0.3018
   49CHL1   C19 6072   5.748   2.049   9.770 -0.1621  0.3073 -0.2936
   49CHL1  H19A 6073   5.731   2.107   9.863 -0.8606 -0.5058  0.1028
   49CHL1  H19B 6074   5.859   2.044   9.778 -0.2579 -1.8554  0.1936
   49CHL1  H19C 6075   5.717   2.127   9.697  0.1240  3.2850  2.5108
   49CHL1    C1 6076   5.514   1.970   9.803 -0.2493 -0.6419  0.2369
   49CHL1   H1A 6077   5.493   2.069   9.758 -0.6376 -0.5620  0.5926
   49CHL1   H1B 6078   5.433   1.903   9.768 -0.4896 -0.3783  0.2818
   49CHL1    C2 6079   5.491   2.006   9.951  0.0335  0.4902 -0.6345
   49CHL1   H2A 6080   5.381   2.021   9.965 -0.6056 -2.1497 -2.1271
   49CHL1   H2B 6081   5.545   2.101   9.969  1.5357 -0.4827  0.1232
   49CHL1   C20 6082   5.761   1.782   9.074 -0.6215 -0.4334 -0.7619
   49CHL1   H20 6083   5.868   1.811   9.065 -0.5377 -1.2961 -3.2808
   49CHL1   C21 6084   5.678   1.908   9.046  0.0803  0.1845  0.3707
   49CHL1  H21A 6085   5.710   1.947   8.947  1.5743 -1.6237  0.0941
   49CHL1  H21B 6086   5.704   1.982   9.124  0.0451  1.3495 -0.6910
   49CHL1  H21C 6087   5.568   1.891   9.045  0.4896 -3.5349 -2.3000
   49CHL1   C22 6088   5.733   1.678   8.967 -0.2933  0.1612 -0.1857
   49CHL1  H22A 6089   5.811   1.599   8.968 -0.3952  0.0113  2.2934
   49CHL1  H22B 6090   5.641   1.621   8.988  0.2522 -1.7950 -2.6726
   49CHL1   C23 6091   5.712   1.727   8.822 -0.0846  0.6602 -0.5460
   49CHL1  H23A 6092   5.630   1.800   8.808  0.7949  2.1573  1.5404
   49CHL1  H23B 6093   5.808   1.776   8.796  1.2761 -0.8055  1.4089
   49CHL1   C24 6094   5.694   1.602   8.727 -0.3987  0.6128 -1.0898
   49CHL1  H24A 6095   5.781   1.536   8.707 -0.7929 -0.5440  0.7892
   49CHL1  H24B 6096   5.630   1.529   8.781 -0.4619  1.0325 -0.5866
   49CHL1   C25 6097   5.609   1.629   8.602  0.0984  0.6121 -0.3543
   49CHL1   H25 6098   5.507   1.648   8.643 -1.1724 -2.9082 -1.5073
   49CHL1   C26 6099   5.649   1.756   8.523  0.5951  0.2370  0.0938
   49CHL1  H26A 6100   5.750   1.742   8.479  1.0795  0.3148  1.1628
   49CHL1  H26B 6101   5.575   1.773   8.441  2.3084 -0.7533 -1.7556
   49CHL1  H26C 6102   5.656   1.849   8.584  1.6835  0.3294 -0.1448
   49CHL1   C27 6103   5.597   1.515   8.503 -0.4979 -0.1822  0.5206
   49CHL1  H27A 6104   5.542   1.543   8.411  1.2014 -3.2095 -1.6052
   49CHL1  H27B 6105   5.700   1.493   8.467 -1.4779 -0.5004 -2.2777
   49CHL1  H27C 6106   5.546   1.424   8.541  0.3486  0.2704  2.9711
   50CHL1    C3 6107   1.140   5.093  10.029 -0.8554  0.4671  0.6553
   50CHL1    H3 6108   1.245   5.069  10.002 -1.3653  0.1337 -1.1432
   50CHL1    O3 6109   1.114   5.056  10.163  0.4104  0.2765 -0.3890
   50CHL1   H3' 6110   1.018   5.051  10.168  0.4978 -0.5991  0.8171
   50CHL1    C4 6111   1.108   5.243  10.007  0.4957 -0.0158 -0.0077
   50CHL1   H4A 6112   1.000   5.255  10.031  0.1599 -0.9351 -0.9780
   50CHL1   H4B 6113   1.174   5.294  10.080  1.3406 -0.8366 -0.1862
   50CHL1    C5 6114   1.133   5.303   9.867  0.3498  0.4617 -0.3466
   50CHL1    C6 6115   1.212   5.405   9.847  0.2588  0.0361 -0.5098
   50CHL1    H6 6116   1.269   5.450   9.930  1.0551  0.4786 -1.2756
   50CHL1    C7 6117   1.225   5.464   9.708  0.0971  0.4080  0.3328
   50CHL1   H7A 6118   1.198   5.570   9.725 -1.0247 -0.1501  2.2571
   50CHL1   H7B 6119   1.329   5.460   9.669 -0.2153 -0.4366 -0.4434
   50CHL1    C8 6120   1.130   5.413   9.605 -0.1721  0.3928  0.1243
   50CHL1    H8 6121   1.033   5.467   9.611  0.7234  2.4603 -2.1597
   50CHL1   C14 6122   1.173   5.437   9.460 -0.0141 -0.8390  0.9382
   50CHL1   H14 6123   1.269   5.385   9.440 -1.2040 -2.5368 -0.7098
   50CHL1   C15 6124   1.197   5.585   9.422  0.1999 -0.4857  1.2477
   50CHL1  H15A 6125   1.125   5.640   9.487 -0.8325 -0.0414 -0.2051
   50CHL1  H15B 6126   1.299   5.613   9.454 -0.0123  3.5953 -1.0291
   50CHL1   C16 6127   1.199   5.597   9.269 -0.2743 -0.0019  0.3695
   50CHL1  H16A 6128   1.131   5.677   9.233 -1.5241 -1.7933 -1.4895
   50CHL1  H16B 6129   1.299   5.602   9.221 -0.6495 -0.1857 -0.4529
   50CHL1   C17 6130   1.133   5.457   9.225 -0.1296  0.5537  0.5815
   50CHL1   H17 6131   1.212   5.387   9.191 -1.9730 -0.1279 -2.7461
   50CHL1   C13 6132   1.075   5.389   9.351  0.1348  0.5462 -0.0321
   50CHL1   C18 6133   0.931   5.441   9.376 -0.5189  0.3276  0.7099
   50CHL1  H18A 6134   0.940   5.550   9.398  1.5648  0.5927 -1.1607
   50CHL1  H18B 6135   0.860   5.420   9.293 -1.7308  2.4436  1.1304
   50CHL1  H18C 6136   0.884   5.389   9.462 -0.8790 -1.7379 -0.6745
   50CHL1   C12 6137   1.096   5.233   9.364  0.6065 -0.2504  0.0140
   50CHL1  H12A 6138   1.050   5.184   9.276  0.1394 -0.8089  0.5589
   50CHL1  H12B 6139   1.205   5.212   9.361  1.3945  3.1971  0.0704
   50CHL1   C11 6140   1.037   5.179   9.501  0.0971 -0.2955 -0.4548
   50CHL1  H11A 6141   0.926   5.190   9.501  0.0216 -0.7158 -2.4776
   50CHL1  H11B 6142   1.064   5.071   9.506  0.9872 -0.1168 -1.2072
   50CHL1    C9 6143   1.102   5.259   9.620 -0.2060 -0.8522 -0.3754
   50CHL1    H9 6144   1.203   5.212   9.619  0.4789  0.5934 -0.9560
   50CHL1   C10 6145   1.056   5.220   9.762 -0.6030 -0.1631  0.2614
   50CHL1   C19 6146   0.911   5.261   9.775  0.8643 -0.0115  0.6410
   50CHL1  H19A 6147   0.895   5.371   9.767  1.3143 -0.0753 -2.5501
   50CHL1  H19B 6148   0.863   5.217   9.685  0.8702  1.9143 -0.3661
   50CHL1  H19C 6149   0.873   5.219   9.870  0.1641 -1.0157 -0.0581
   50CHL1    C1 6150   1.069   5.064   9.791 -0.2315 -0.8917  0.5001
   50CHL1   H1A 6151   0.983   5.026   9.732  0.1564 -0.0200 -0.6630
   50CHL1   H1B 6152   1.158   5.021   9.739 -0.1372 -1.2342  0.9334
   50CHL1    C2 6153   1.047   5.014   9.935 -0.4025 -0.3742  0.1951
   50CHL1   H2A 6154   1.077   4.908   9.949 -0.9466 -0.4025  1.3203
   50CHL1   H2B 6155   0.940   5.029   9.965 -0.1957 -0.0279  0.7842
   50CHL1   C20 6156   1.048   5.456   9.092 -0.1445  0.7541 -0.1828
   50CHL1   H20 6157   0.956   5.514   9.112 -1.3673 -1.4071  0.7475
   50CHL1   C21 6158   1.004   5.308   9.047 -0.0185  0.0668  0.3796
   50CHL1  H21A 6159   0.908   5.286   9.098  0.4567  1.1416  1.8323
   50CHL1  H21B 6160   1.082   5.235   9.077 -0.4141 -0.2618  0.6200
   50CHL1  H21C 6161   0.977   5.300   8.940  1.6821 -0.1277 -0.0547
   50CHL1   C22 6162   1.122   5.525   8.980  0.1721 -0.9003 -0.0950
   50CHL1  H22A 6163   1.163   5.623   9.012 -0.3233 -0.0462 -1.8974
   50CHL1  H22B 6164   1.204   5.457   8.951 -0.6074 -1.0486 -2.1353
   50CHL1   C23 6165   1.048   5.560   8.840 -0.0517  0.0061 -0.4556
   50CHL1  H23A 6166   1.004   5.467   8.799  1.1806 -1.7884  2.0643
   50CHL1  H23B 6167   0.968   5.634   8.860  1.7607  2.6589 -2.2306
   50CHL1   C24 6168   1.149   5.630   8.744  0.1185 -0.6671  0.0108
   50CHL1  H24A 6169   1.169   5.733   8.781 -1.0589 -0.6329  0.6040
   50CHL1  H24B 6170   1.246   5.577   8.750  0.4765 -0.0955 -0.5664
   50CHL1   C25 6171   1.118   5.631   8.590 -0.2496 -0.1476 -0.5130
   50CHL1   H25 6172   1.019   5.680   8.576 -1.0086 -1.3008  0.5807
   50CHL1   C26 6173   1.226   5.713   8.523  0.1209 -0.2625  0.2250
   50CHL1  H26A 6174   1.319   5.659   8.550  0.6204  1.7288  2.9114
   50CHL1  H26B 6175   1.203   5.717   8.414  1.3103  0.6109 -0.0171
   50CHL1  H26C 6176   1.228   5.815   8.567  2.2259 -0.4253  0.6247
   50CHL1   C27 6177   1.093   5.489   8.528  0.2759  0.5721  0.3098
   50CHL1  H27A 6178   1.190   5.436   8.534  1.1657  2.1512  0.3005
   50CHL1  H27B 6179   1.011   5.429   8.574  1.7373 -1.8094 -0.0018
   50CHL1  H27C 6180   1.069   5.510   8.422  2.1714  3.4228  0.3499
   51CHL1    C3 6181   2.161   0.914  10.301  1.4478  0.4149 -0.1917
   51CHL1    H3 6182   2.270   0.906  10.286  1.6848  2.9959 -0.4115
   51CHL1    O3 6183   2.127   0.879  10.437 -0.2895 -0.1925 -0.3831
   51CHL1   H3' 6184   2.175   0.800  10.464  1.3531  1.2488  1.1492
   51CHL1    C4 6185   2.118   1.056  10.274 -0.2685 -0.3222 -0.3004
   51CHL1   H4A 6186   2.018   1.073  10.319 -0.9527 -2.1102 -1.0582
   51CHL1   H4B 6187   2.186   1.121  10.333 -2.4301 -1.1425  3.4540
   51CHL1    C5 6188   2.110   1.099  10.130  0.0333 -0.6030  0.2640
   51CHL1    C6 6189   2.167   1.212  10.086 -0.2018  0.9730 -0.1162
   51CHL1    H6 6190   2.222   1.273  10.159 -0.7947  0.6435  0.6304
   51CHL1    C7 6191   2.184   1.255   9.942  0.4581  0.3493 -0.1251
   51CHL1   H7A 6192   2.145   1.359   9.934  1.3557  0.6481 -0.7950
   51CHL1   H7B 6193   2.292   1.264   9.914  0.8828  3.1712  1.9079
   51CHL1    C8 6194   2.086   1.177   9.850 -0.7404  0.2010  0.7297
   51CHL1    H8 6195   1.983   1.217   9.866 -0.5666  1.5110 -1.1527
   51CHL1   C14 6196   2.133   1.192   9.709  0.3856 -1.0489  0.2824
   51CHL1   H14 6197   2.236   1.155   9.693  0.6231 -0.0860 -0.5010
   51CHL1   C15 6198   2.130   1.342   9.657  0.0486  0.4557 -0.6200
   51CHL1  H15A 6199   2.033   1.385   9.689  0.0248 -0.8992  1.2653
   51CHL1  H15B 6200   2.198   1.410   9.714 -0.9883  1.7687 -0.9023
   51CHL1   C16 6201   2.150   1.334   9.508  0.2619  0.6633 -0.2433
   51CHL1  H16A 6202   2.056   1.378   9.467  0.1360  1.9893  1.3763
   51CHL1  H16B 6203   2.238   1.372   9.452  0.4371 -1.3824 -1.4563
   51CHL1   C17 6204   2.129   1.185   9.469 -0.0098 -0.0549  0.0811
   51CHL1   H17 6205   2.230   1.138   9.459 -0.6446 -1.1126 -1.8913
   51CHL1   C13 6206   2.057   1.113   9.602 -0.0548 -0.1942  0.1701
   51CHL1   C18 6207   1.912   1.152   9.600  0.3474  0.7675 -0.4025
   51CHL1  H18A 6208   1.889   1.252   9.557  0.7616  0.8706 -0.3905
   51CHL1  H18B 6209   1.865   1.080   9.529 -1.6478  0.6403  0.9605
   51CHL1  H18C 6210   1.852   1.113   9.685  0.1171 -0.6686 -1.1905
   51CHL1   C12 6211   2.084   0.964   9.626  0.2277 -0.2038 -0.8358
   51CHL1  H12A 6212   2.017   0.908   9.557 -0.3309 -0.0410 -0.4366
   51CHL1  H12B 6213   2.191   0.937   9.611  0.3786  0.2427 -0.5610
   51CHL1   C11 6214   2.037   0.929   9.774 -0.2747 -0.8284 -1.2683
   51CHL1  H11A 6215   1.927   0.941   9.761 -0.3776  3.3405  1.6432
   51CHL1  H11B 6216   2.066   0.823   9.792 -0.0639 -0.8297 -1.6162
   51CHL1    C9 6217   2.091   1.026   9.887  0.9520 -0.6628  0.0833
   51CHL1    H9 6218   2.200   1.004   9.893  1.4290  0.9544 -1.9620
   51CHL1   C10 6219   2.041   1.002  10.033 -1.0438  1.2360  0.2305
   51CHL1   C19 6220   1.884   1.003  10.032 -0.3708 -0.3870 -0.3449
   51CHL1  H19A 6221   1.845   1.099   9.991  1.0938 -0.2538 -1.5264
   51CHL1  H19B 6222   1.844   0.926   9.962 -2.2829  0.0166  0.2395
   51CHL1  H19C 6223   1.843   0.986  10.134 -1.7596 -0.4566 -0.8881
   51CHL1    C1 6224   2.094   0.854  10.068 -0.3109 -0.2430 -0.3228
   51CHL1   H1A 6225   2.039   0.779  10.005 -0.2227  1.4159 -2.5003
   51CHL1   H1B 6226   2.202   0.845  10.043 -0.6726 -1.4781 -1.6192
   51CHL1    C2 6227   2.075   0.817  10.220  0.6283 -0.4851  0.7003
   51CHL1   H2A 6228   2.114   0.714  10.237  2.1857  0.1619  1.2079
   51CHL1   H2B 6229   1.968   0.820  10.251 -0.0513 -0.4964 -1.5202
   51CHL1   C20 6230   2.068   1.166   9.327  0.1815  0.3646  0.6690
   51CHL1   H20 6231   1.965   1.206   9.315  0.0777 -0.2103 -0.6296
   51CHL1   C21 6232   2.075   1.020   9.280 -0.7695  0.4011  0.5822
   51CHL1  H21A 6233   2.017   0.942   9.333  2.2127 -0.1360  3.3966
   51CHL1  H21B 6234   2.175   0.973   9.292 -0.2767  0.3976 -2.6509
   51CHL1  H21C 6235   2.056   1.003   9.172 -1.0102 -1.5427  0.8985
   51CHL1   C22 6236   2.142   1.260   9.225  0.0633 -0.3510  0.6763
   51CHL1  H22A 6237   2.127   1.360   9.270  1.1200 -0.3953  1.1655
   51CHL1  H22B 6238   2.251   1.246   9.210 -0.3117 -0.9194 -2.1363
   51CHL1   C23 6239   2.081   1.262   9.084  0.0641  1.4147  0.0635
   51CHL1  H23A 6240   2.107   1.164   9.040  0.8466  0.3650  2.7220
   51CHL1  H23B 6241   1.970   1.275   9.083  0.1083  1.8066 -1.1008
   51CHL1   C24 6242   2.148   1.375   9.002 -0.2558 -0.1878  1.1133
   51CHL1  H24A 6243   2.115   1.472   9.045 -2.7606  0.2040 -1.3798
   51CHL1  H24B 6244   2.257   1.359   9.011 -0.0784 -1.4089 -1.9768
   51CHL1   C25 6245   2.114   1.362   8.849  0.1494 -1.0003 -0.0944
   51CHL1   H25 6246   2.004   1.370   8.842  0.1521  1.4057  1.5016
   51CHL1   C26 6247   2.190   1.476   8.774  0.4605  0.7303 -0.0935
   51CHL1  H26A 6248   2.143   1.506   8.678 -0.7358  0.3511  0.3574
   51CHL1  H26B 6249   2.190   1.565   8.841 -0.1395  0.4543  0.2780
   51CHL1  H26C 6250   2.298   1.451   8.767  0.5322  1.3480 -1.7169
   51CHL1   C27 6251   2.153   1.236   8.782 -0.2956 -0.0983  0.4053
   51CHL1  H27A 6252   2.097   1.150   8.822 -1.0088  1.4309  2.9129
   51CHL1  H27B 6253   2.121   1.241   8.676  2.0803  0.3407 -0.3531
   51CHL1  H27C 6254   2.262   1.212   8.773 -0.0284  0.1134  2.5161
   52CHL1    C3 6255   5.065   4.419   9.942  0.0891  0.8211 -0.0570
   52CHL1    H3 6256   4.973   4.474   9.914  0.2206  1.1640  0.1822
   52CHL1    O3 6257   5.062   4.406  10.085 -0.4996 -0.5194  0.1802
   52CHL1   H3' 6258   5.136   4.351  10.110 -0.0776 -0.5135 -0.9900
   52CHL1    C4 6259   5.058   4.279   9.886  0.0998  1.1506  0.7032
   52CHL1   H4A 6260   5.133   4.204   9.920 -1.5587  0.2267  2.5622
   52CHL1   H4B 6261   4.963   4.234   9.921 -0.0991  1.3679  0.4476
   52CHL1    C5 6262   5.049   4.298   9.737 -0.0220 -0.5809 -0.3144
   52CHL1    C6 6263   4.944   4.253   9.666  0.8111  0.0087  0.5498
   52CHL1    H6 6264   4.865   4.190   9.709 -0.0389  0.6440 -0.0286
   52CHL1    C7 6265   4.938   4.263   9.515 -0.9543 -0.8634  0.0717
   52CHL1   H7A 6266   4.916   4.163   9.473 -0.5175  0.3043 -3.1977
   52CHL1   H7B 6267   4.852   4.324   9.479 -0.2226 -0.9112 -1.8988
   52CHL1    C8 6268   5.071   4.310   9.450  0.5875 -0.4727  0.2930
   52CHL1    H8 6269   5.140   4.224   9.435  1.5102  0.4478 -0.9273
   52CHL1   C14 6270   5.045   4.360   9.310  0.5034  0.0273 -0.4528
   52CHL1   H14 6271   4.980   4.450   9.317  1.0482  0.4092 -0.2098
   52CHL1   C15 6272   4.970   4.270   9.212  1.2395 -0.7744 -0.3487
   52CHL1  H15A 6273   5.006   4.168   9.237  0.3221 -1.2108 -0.7619
   52CHL1  H15B 6274   4.859   4.269   9.219  1.2774 -1.2883  0.3402
   52CHL1   C16 6275   5.020   4.321   9.069  0.0571 -0.4400 -0.0765
   52CHL1  H16A 6276   5.067   4.226   9.034 -0.3442  0.2096 -2.5542
   52CHL1  H16B 6277   4.942   4.365   9.003  0.6609  0.8284  0.0265
   52CHL1   C17 6278   5.118   4.435   9.099 -0.4129  0.0347  1.6055
   52CHL1   H17 6279   5.056   4.527   9.114 -1.1637 -0.3039  0.6800
   52CHL1   C13 6280   5.173   4.405   9.237 -0.0162 -0.5763  0.1852
   52CHL1   C18 6281   5.272   4.299   9.219 -0.4657  0.3565 -0.2602
   52CHL1  H18A 6282   5.239   4.210   9.161 -1.1051  1.2768 -1.3591
   52CHL1  H18B 6283   5.358   4.334   9.157  0.5874  2.1421  2.0722
   52CHL1  H18C 6284   5.305   4.265   9.319 -1.0665 -1.0273 -0.5102
   52CHL1   C12 6285   5.229   4.530   9.315 -0.1088 -0.1184 -0.0892
   52CHL1  H12A 6286   5.322   4.568   9.268 -1.2894  0.3435 -2.1759
   52CHL1  H12B 6287   5.158   4.615   9.325  0.9675  0.9775 -1.4239
   52CHL1   C11 6288   5.256   4.489   9.468 -0.2889  0.0949  0.0789
   52CHL1  H11A 6289   5.339   4.415   9.475 -0.9749 -0.8934 -1.5807
   52CHL1  H11B 6290   5.280   4.584   9.520 -0.4787  2.0657 -3.1761
   52CHL1    C9 6291   5.139   4.416   9.532 -0.6289 -0.9092 -0.2127
   52CHL1    H9 6292   5.062   4.497   9.534 -0.3076 -0.6146  1.2222
   52CHL1   C10 6293   5.165   4.378   9.679  0.1641  0.5126  0.5722
   52CHL1   C19 6294   5.296   4.294   9.686  0.3915  0.0707 -0.2774
   52CHL1  H19A 6295   5.311   4.238   9.781 -1.2727  0.3489  0.1765
   52CHL1  H19B 6296   5.314   4.219   9.606  1.4194  0.6790 -0.6320
   52CHL1  H19C 6297   5.384   4.361   9.685 -0.3401  1.0637 -0.0249
   52CHL1    C1 6298   5.190   4.511   9.753  0.6864 -0.2196 -0.2516
   52CHL1   H1A 6299   5.286   4.560   9.725  0.0058  1.3880  0.1283
   52CHL1   H1B 6300   5.106   4.580   9.729  0.9586  0.9721  1.9184
   52CHL1    C2 6301   5.187   4.492   9.904 -0.1245  0.5031  0.7486
   52CHL1   H2A 6302   5.192   4.589   9.958  2.0132  3.1583 -3.6251
   52CHL1   H2B 6303   5.279   4.438   9.934  0.7452  1.8278  0.5586
   52CHL1   C20 6304   5.217   4.463   8.982  0.3945  0.5702 -0.0448
   52CHL1   H20 6305   5.277   4.370   8.975 -1.0447 -0.3245 -1.1856
   52CHL1   C21 6306   5.306   4.585   9.001  0.2220  0.2807  0.3143
   52CHL1  H21A 6307   5.377   4.570   9.086  0.7925  1.5695  0.0977
   52CHL1  H21B 6308   5.239   4.672   9.016  1.7212  1.6138 -0.3171
   52CHL1  H21C 6309   5.380   4.605   8.920  2.5996  0.7736  2.4828
   52CHL1   C22 6310   5.140   4.462   8.844  0.5185 -0.2294 -0.1945
   52CHL1  H22A 6311   5.079   4.370   8.835  0.5930 -0.1198 -2.3931
   52CHL1  H22B 6312   5.073   4.550   8.837 -1.5660 -1.6153  1.1507
   52CHL1   C23 6313   5.224   4.471   8.714 -0.0575  0.2942  0.4311
   52CHL1  H23A 6314   5.158   4.495   8.628  0.8141 -0.6064 -0.5069
   52CHL1  H23B 6315   5.303   4.550   8.717 -1.1171  1.3600  0.9078
   52CHL1   C24 6316   5.287   4.332   8.669  0.1179  0.4422 -0.3009
   52CHL1  H24A 6317   5.349   4.285   8.749 -0.2576 -0.0549 -0.3044
   52CHL1  H24B 6318   5.207   4.259   8.648 -0.6174  0.7765  1.2063
   52CHL1   C25 6319   5.370   4.338   8.540 -0.2407  0.0599 -0.5369
   52CHL1   H25 6320   5.430   4.432   8.540 -2.8812  2.0062  2.7204
   52CHL1   C26 6321   5.466   4.222   8.515  0.5832 -0.0527  0.5214
   52CHL1  H26A 6322   5.560   4.222   8.574  0.5873 -1.0398  0.5368
   52CHL1  H26B 6323   5.422   4.125   8.547  0.7415  0.6765  3.1442
   52CHL1  H26C 6324   5.512   4.216   8.414  0.9234 -1.3914  0.7331
   52CHL1   C27 6325   5.277   4.349   8.414 -0.6510  0.2287  0.3363
   52CHL1  H27A 6326   5.339   4.365   8.323 -0.7275 -1.0028  0.0447
   52CHL1  H27B 6327   5.219   4.257   8.393  0.0010  0.0449 -0.7629
   52CHL1  H27C 6328   5.208   4.435   8.423 -1.9745 -0.7575 -0.0995
   53CHL1    C3 6329   5.922   4.903  10.150 -0.8266 -0.8847 -0.2272
   53CHL1    H3 6330   5.817   4.882  10.179 -1.3499  0.4373 -1.0729
   53CHL1    O3 6331   6.000   4.917  10.266 -0.0299 -0.0925 -0.0367
   53CHL1   H3' 6332   6.034   4.829  10.283  1.0441  0.4551  0.7567
   53CHL1    C4 6333   5.979   4.800  10.045 -0.1904 -0.4507  0.1057
   53CHL1   H4A 6334   6.081   4.836  10.021 -0.1750  0.2714  1.1682
   53CHL1   H4B 6335   5.980   4.701  10.095  1.1472  0.3572  1.7998
   53CHL1    C5 6336   5.896   4.801   9.913  0.0777 -0.0092  0.7298
   53CHL1    C6 6337   5.846   4.688   9.855  0.0207 -0.4086  0.2457
   53CHL1    H6 6338   5.851   4.593   9.910 -1.0916 -0.6663 -0.0790
   53CHL1    C7 6339   5.766   4.682   9.724  0.1515 -0.2431  0.9919
   53CHL1   H7A 6340   5.810   4.608   9.654 -1.6953 -1.9899  1.6077
   53CHL1   H7B 6341   5.659   4.656   9.735  0.5257 -1.7648  1.2198
   53CHL1    C8 6342   5.770   4.821   9.644 -0.6560 -0.0686 -0.4817
   53CHL1    H8 6343   5.873   4.819   9.602  0.4402  0.8809  1.9477
   53CHL1   C14 6344   5.662   4.833   9.537 -0.8316 -0.6328  0.6708
   53CHL1   H14 6345   5.564   4.833   9.590 -1.0792 -2.5683  0.2989
   53CHL1   C15 6346   5.665   4.725   9.430  0.3780  0.4041  0.1654
   53CHL1  H15A 6347   5.765   4.705   9.386 -0.0316 -3.1018  0.4975
   53CHL1  H15B 6348   5.642   4.627   9.477  1.9994  0.3981  1.0346
   53CHL1   C16 6349   5.573   4.792   9.323 -0.1315  0.3579  0.0442
   53CHL1  H16A 6350   5.629   4.797   9.227 -0.5720 -1.3463 -0.3340
   53CHL1  H16B 6351   5.486   4.723   9.317 -0.2340  0.4244  0.7462
   53CHL1   C17 6352   5.539   4.937   9.359  0.2033 -0.3146 -0.3128
   53CHL1   H17 6353   5.446   4.940   9.419  1.1409  1.4412  1.1586
   53CHL1   C13 6354   5.649   4.967   9.465 -0.6025  0.1678  1.0065
   53CHL1   C18 6355   5.781   4.996   9.386 -0.1344  0.8488 -0.3788
   53CHL1  H18A 6356   5.869   4.982   9.453 -1.8157  1.6790  2.1440
   53CHL1  H18B 6357   5.785   4.933   9.295  0.2861 -0.3424  0.4330
   53CHL1  H18C 6358   5.783   5.100   9.349  1.2784  0.6739 -0.8707
   53CHL1   C12 6359   5.621   5.070   9.573  1.1084  0.6709  0.2270
   53CHL1  H12A 6360   5.616   5.171   9.527 -0.2947 -0.3492 -2.0199
   53CHL1  H12B 6361   5.524   5.048   9.622 -1.0056  1.8959 -3.0553
   53CHL1   C11 6362   5.742   5.071   9.674 -0.6081  0.2530 -0.0853
   53CHL1  H11A 6363   5.826   5.112   9.614  1.5045 -1.4319  1.5514
   53CHL1  H11B 6364   5.722   5.152   9.748  0.3937  0.7155 -0.2951
   53CHL1    C9 6365   5.769   4.936   9.744  1.0946 -0.2970  0.6801
   53CHL1    H9 6366   5.677   4.931   9.805  1.1751 -1.4747  0.7245
   53CHL1   C10 6367   5.880   4.938   9.844 -0.1057 -0.0929 -0.9673
   53CHL1   C19 6368   6.015   4.978   9.773  0.1138 -0.6053  0.4923
   53CHL1  H19A 6369   6.103   4.984   9.840  1.4237 -2.6957 -0.9306
   53CHL1  H19B 6370   6.052   4.907   9.695 -0.6248 -0.6460  0.1667
   53CHL1  H19C 6371   6.004   5.079   9.729  1.6030 -0.4365  0.4649
   53CHL1    C1 6372   5.832   5.038   9.956  0.0747  0.1035  0.2576
   53CHL1   H1A 6373   5.824   5.139   9.910 -1.5410 -1.2789 -2.7770
   53CHL1   H1B 6374   5.727   5.019   9.986 -0.0704  0.6036  0.0811
   53CHL1    C2 6375   5.918   5.045  10.080  0.1155  0.5126  0.1287
   53CHL1   H2A 6376   5.864   5.109  10.153 -0.5346 -3.0532  3.0764
   53CHL1   H2B 6377   6.022   5.074  10.052  1.1931 -0.7902  2.4616
   53CHL1   C20 6378   5.508   5.021   9.240 -0.4425 -0.8826 -0.0359
   53CHL1   H20 6379   5.604   5.032   9.186  1.1173  0.7320  2.8538
   53CHL1   C21 6380   5.457   5.160   9.285  0.4588 -0.3859 -0.8798
   53CHL1  H21A 6381   5.539   5.213   9.338  0.6379 -1.1779 -0.3526
   53CHL1  H21B 6382   5.363   5.160   9.343  1.0508  2.3499  0.2048
   53CHL1  H21C 6383   5.442   5.224   9.195  0.6351  1.4883  0.3782
   53CHL1   C22 6384   5.402   4.957   9.143 -0.1656  0.6851  0.0179
   53CHL1  H22A 6385   5.417   4.851   9.114 -0.9932  0.8974 -1.2663
   53CHL1  H22B 6386   5.297   4.970   9.174 -0.9358 -1.0822 -1.6709
   53CHL1   C23 6387   5.398   5.020   9.000  0.5207 -0.3550 -0.4686
   53CHL1  H23A 6388   5.337   4.957   8.931 -1.0916  2.1796 -1.5092
   53CHL1  H23B 6389   5.339   5.114   9.002 -0.3171 -0.8780 -0.2559
   53CHL1   C24 6390   5.532   5.057   8.942 -0.0973  0.4513  0.2380
   53CHL1  H24A 6391   5.578   5.137   9.003 -0.2066  0.5034  0.2531
   53CHL1  H24B 6392   5.601   4.970   8.942 -1.5262 -0.8089 -2.2440
   53CHL1   C25 6393   5.522   5.124   8.800  0.1953  0.6529 -0.3615
   53CHL1   H25 6394   5.436   5.191   8.821 -1.2230 -1.1842 -0.0860
   53CHL1   C26 6395   5.647   5.200   8.775 -0.2080 -0.0602  0.8919
   53CHL1  H26A 6396   5.723   5.119   8.772  0.0334  0.1759  0.5461
   53CHL1  H26B 6397   5.654   5.246   8.674 -2.0419 -0.9152  0.3281
   53CHL1  H26C 6398   5.668   5.278   8.851  0.1755 -1.2989  2.0859
   53CHL1   C27 6399   5.477   5.027   8.683 -0.1571 -0.4711  0.5848
   53CHL1  H27A 6400   5.367   5.012   8.687 -0.1798 -0.1755  1.2721
   53CHL1  H27B 6401   5.496   5.085   8.591  0.2134 -0.1746  0.8425
   53CHL1  H27C 6402   5.551   4.944   8.677  0.1521 -0.1007 -1.1501
   54CHL1    C3 6403   6.161   5.447  10.138 -0.6809 -0.1128 -0.0745
   54CHL1    H3 6404   6.213   5.350  10.124  0.5368  0.2925  1.3031
   54CHL1    O3 6405   6.168   5.497  10.273  0.3198  0.0829  0.0220
   54CHL1   H3' 6406   6.140   5.420  10.323  2.4573 -0.7248  0.0592
   54CHL1    C4 6407   6.245   5.538  10.048  1.2309 -0.4752  0.2741
   54CHL1   H4A 6408   6.221   5.646  10.057 -0.5442 -0.7975 -0.2709
   54CHL1   H4B 6409   6.350   5.529  10.082  1.6097  0.6636 -0.5408
   54CHL1    C5 6410   6.230   5.494   9.904 -0.5144  0.3955 -0.5531
   54CHL1    C6 6411   6.337   5.464   9.832 -0.0527  0.0902  0.2621
   54CHL1    H6 6412   6.432   5.476   9.886  1.6006  0.8392 -2.6094
   54CHL1    C7 6413   6.340   5.417   9.691  0.9336 -0.2324  0.3117
   54CHL1   H7A 6414   6.420   5.469   9.634  0.2826  0.8617  0.3607
   54CHL1   H7B 6415   6.356   5.308   9.700 -0.7378 -0.3776  2.2043
   54CHL1    C8 6416   6.205   5.444   9.618 -0.1905 -0.1734 -0.5048
   54CHL1    H8 6417   6.203   5.553   9.598 -0.6783  0.3163  1.8832
   54CHL1   C14 6418   6.192   5.381   9.484  0.6274  1.1333  0.0476
   54CHL1   H14 6419   6.184   5.274   9.511 -0.1456  0.4561 -2.6454
   54CHL1   C15 6420   6.310   5.384   9.390  0.4289 -0.0991 -0.1628
   54CHL1  H15A 6421   6.372   5.476   9.399  0.2419 -0.1339  1.8381
   54CHL1  H15B 6422   6.383   5.304   9.416 -0.8437 -1.3649 -0.3979
   54CHL1   C16 6423   6.250   5.362   9.248 -0.7952 -0.1689 -1.2637
   54CHL1  H16A 6424   6.262   5.454   9.187  2.1814 -0.9357 -2.0234
   54CHL1  H16B 6425   6.307   5.283   9.194  0.7625  0.9809 -1.3801
   54CHL1   C17 6426   6.096   5.338   9.276  0.4551 -0.3961  0.0620
   54CHL1   H17 6427   6.083   5.229   9.297  0.0111 -0.4557 -0.5003
   54CHL1   C13 6428   6.059   5.414   9.406 -1.0542  0.3866 -0.3230
   54CHL1   C18 6429   6.056   5.566   9.380 -0.3782 -0.4753 -0.5577
   54CHL1  H18A 6430   6.046   5.631   9.470 -2.0278  1.3559 -1.9827
   54CHL1  H18B 6431   6.145   5.601   9.324  1.2824 -3.5606 -0.0979
   54CHL1  H18C 6432   5.964   5.589   9.323 -0.8832 -1.1149 -0.0322
   54CHL1   C12 6433   5.944   5.371   9.491 -0.2640  0.2138 -0.0759
   54CHL1  H12A 6434   5.842   5.389   9.451 -0.3013  0.4341  0.1146
   54CHL1  H12B 6435   5.960   5.261   9.485 -1.2317  0.0323  0.4461
   54CHL1   C11 6436   5.945   5.429   9.631  0.4596  0.2394 -0.4946
   54CHL1  H11A 6437   5.941   5.539   9.614  2.6554  0.1957 -1.5912
   54CHL1  H11B 6438   5.859   5.389   9.689 -0.0327 -0.5474 -1.7286
   54CHL1    C9 6439   6.081   5.405   9.704 -0.7134 -0.1345  1.1434
   54CHL1    H9 6440   6.098   5.298   9.729  0.7884  0.1311  1.3990
   54CHL1   C10 6441   6.091   5.478   9.846  0.5986 -1.2366 -0.0736
   54CHL1   C19 6442   6.044   5.625   9.830  0.5242 -0.0479 -0.2777
   54CHL1  H19A 6443   6.110   5.678   9.759  0.4919 -1.4334 -1.3878
   54CHL1  H19B 6444   5.941   5.631   9.789 -1.0302  1.7639  3.3824
   54CHL1  H19C 6445   6.046   5.686   9.923  0.1062 -0.4634  0.0095
   54CHL1    C1 6446   5.999   5.401   9.950 -0.6769 -0.3701 -0.0423
   54CHL1   H1A 6447   5.891   5.396   9.923 -0.3520  0.7383 -1.6925
   54CHL1   H1B 6448   6.028   5.294   9.954  1.7296  0.1892 -0.9221
   54CHL1    C2 6449   6.015   5.448  10.094  0.2099 -0.0720  0.1042
   54CHL1   H2A 6450   5.956   5.387  10.165 -0.7705  1.7857  0.9565
   54CHL1   H2B 6451   5.964   5.545  10.111  0.9240 -0.0507  2.6507
   54CHL1   C20 6452   6.019   5.366   9.146 -0.0071 -0.0800 -0.2298
   54CHL1   H20 6453   6.039   5.471   9.116  0.0353  0.4087  1.3956
   54CHL1   C21 6454   5.864   5.355   9.159 -0.3096 -0.5224 -0.5952
   54CHL1  H21A 6455   5.837   5.251   9.186  0.0937 -0.5237 -0.1869
   54CHL1  H21B 6456   5.814   5.377   9.062 -1.6883  0.5653  0.3321
   54CHL1  H21C 6457   5.819   5.426   9.232  1.3829  1.2762 -1.2099
   54CHL1   C22 6458   6.060   5.287   9.021 -0.4774 -0.7686  0.1797
   54CHL1  H22A 6459   6.160   5.240   9.029 -0.7074 -1.2963 -0.0542
   54CHL1  H22B 6460   5.995   5.197   9.026  0.3099 -1.3208  0.5802
   54CHL1   C23 6461   6.041   5.360   8.883  0.1072 -0.7541  0.6352
   54CHL1  H23A 6462   5.936   5.396   8.876  0.7998  1.0994 -1.4578
   54CHL1  H23B 6463   6.100   5.453   8.893  1.8886 -2.0642  3.9071
   54CHL1   C24 6464   6.099   5.279   8.765 -0.1049  0.1869 -0.2189
   54CHL1  H24A 6465   6.209   5.267   8.774  0.3918  4.2192  1.0992
   54CHL1  H24B 6466   6.064   5.173   8.766  4.7169 -1.6450  0.2274
   54CHL1   C25 6467   6.069   5.339   8.625  0.4270 -0.2791 -0.5309
   54CHL1   H25 6468   5.964   5.374   8.617  1.0619  1.2065 -3.7278
   54CHL1   C26 6469   6.159   5.464   8.600  0.4776  1.0867 -0.7585
   54CHL1  H26A 6470   6.268   5.449   8.609  0.4474  0.3962 -1.4517
   54CHL1  H26B 6471   6.131   5.523   8.510  0.5591  1.6926 -0.3949
   54CHL1  H26C 6472   6.128   5.541   8.674  0.1813 -1.2780  1.7591
   54CHL1   C27 6473   6.090   5.229   8.523  0.0623  0.7656  0.0447
   54CHL1  H27A 6474   6.027   5.143   8.555 -0.8059  1.4417  0.2064
   54CHL1  H27B 6475   6.051   5.264   8.425  1.1430  0.4195 -0.5264
   54CHL1  H27C 6476   6.188   5.177   8.516 -1.9761 -3.9079  2.1141
   55CHL1    C3 6477   0.664   4.646   9.967 -0.0445 -0.0746  0.4925
   55CHL1    H3 6478   0.575   4.709   9.948 -1.0156 -1.7503 -0.8355
   55CHL1    O3 6479   0.657   4.594  10.095 -0.8305 -0.0708 -0.2824
   55CHL1   H3' 6480   0.579   4.538  10.093 -0.5545 -0.6034  1.4501
   55CHL1    C4 6481   0.663   4.522   9.874 -0.1208  0.2447 -0.0514
   55CHL1   H4A 6482   0.749   4.461   9.908 -2.5191 -1.8220  2.8853
   55CHL1   H4B 6483   0.563   4.477   9.892 -0.3711  0.0989 -1.6643
   55CHL1    C5 6484   0.674   4.564   9.732 -0.1333 -0.5350  0.0421
   55CHL1    C6 6485   0.590   4.525   9.639  0.0581  0.7587  0.1455
   55CHL1    H6 6486   0.505   4.461   9.663  0.0333  0.1952 -1.3283
   55CHL1    C7 6487   0.599   4.565   9.492  0.2372 -0.0116 -0.2890
   55CHL1   H7A 6488   0.576   4.477   9.428  2.0566  0.2107 -1.3117
   55CHL1   H7B 6489   0.518   4.636   9.464 -1.0401 -0.1927  2.5800
   55CHL1    C8 6490   0.739   4.617   9.455  0.0128  0.5318 -0.0766
   55CHL1    H8 6491   0.804   4.527   9.447 -1.8689 -0.7547 -2.1794
   55CHL1   C14 6492   0.728   4.682   9.318  0.0390  0.2296  0.2847
   55CHL1   H14 6493   0.652   4.760   9.335 -0.1370  0.2978 -0.7241
   55CHL1   C15 6494   0.672   4.603   9.197  0.2469 -0.0483 -0.1244
   55CHL1  H15A 6495   0.729   4.511   9.172  1.8124  0.9470 -0.3097
   55CHL1  H15B 6496   0.565   4.574   9.205 -0.0190  1.2392  1.9362
   55CHL1   C16 6497   0.692   4.703   9.080 -0.8722  0.1127 -0.6355
   55CHL1  H16A 6498   0.725   4.647   8.990 -0.1003 -1.7471  0.7433
   55CHL1  H16B 6499   0.594   4.755   9.073 -0.9743 -0.0815 -0.6236
   55CHL1   C17 6500   0.798   4.809   9.130  0.7768 -0.1397  0.8718
   55CHL1   H17 6501   0.734   4.896   9.156 -0.3348 -1.7336  3.8840
   55CHL1   C13 6502   0.848   4.750   9.264 -1.2592 -0.0212  0.0707
   55CHL1   C18 6503   0.958   4.644   9.239 -0.3562  0.6114  0.4190
   55CHL1  H18A 6504   1.055   4.686   9.203  0.3757 -1.8223 -0.7178
   55CHL1  H18B 6505   0.980   4.596   9.336 -0.2763  2.5424  1.3954
   55CHL1  H18C 6506   0.925   4.572   9.160  0.0860 -1.3072  1.9163
   55CHL1   C12 6507   0.904   4.849   9.374  0.1708  0.0334  1.0094
   55CHL1  H12A 6508   1.000   4.893   9.337 -1.2588  0.1180 -3.1530
   55CHL1  H12B 6509   0.825   4.924   9.392  0.2272 -0.0333  1.5493
   55CHL1   C11 6510   0.921   4.790   9.511 -0.2412  0.1796  0.3305
   55CHL1  H11A 6511   0.998   4.710   9.511  1.2284  1.5283 -0.8360
   55CHL1  H11B 6512   0.951   4.862   9.590 -0.2284  0.6259 -0.0773
   55CHL1    C9 6513   0.789   4.717   9.562  0.7721 -0.0606 -0.1133
   55CHL1    H9 6514   0.717   4.802   9.564 -0.9110 -1.4484  0.0340
   55CHL1   C10 6515   0.796   4.660   9.702 -0.5398 -0.1956 -0.1561
   55CHL1   C19 6516   0.923   4.573   9.718  0.4314  0.3918 -0.2120
   55CHL1  H19A 6517   0.920   4.493   9.641  0.9970  2.8033 -2.9204
   55CHL1  H19B 6518   1.015   4.630   9.695  0.7561  0.4393  1.1293
   55CHL1  H19C 6519   0.936   4.539   9.823 -1.1281 -0.6996 -0.3392
   55CHL1    C1 6520   0.801   4.778   9.803 -0.3503  0.5021 -0.4649
   55CHL1   H1A 6521   0.896   4.836   9.800  0.2659  0.0202  3.9440
   55CHL1   H1B 6522   0.711   4.842   9.791 -1.7171 -0.7484  2.2714
   55CHL1    C2 6523   0.784   4.728   9.949  0.3391  0.5303  1.2440
   55CHL1   H2A 6524   0.775   4.817  10.015  2.4486  1.3497  0.4992
   55CHL1   H2B 6525   0.880   4.686   9.987  2.3406  4.1596  0.6208
   55CHL1   C20 6526   0.900   4.851   9.017  0.2207  0.6702  0.5718
   55CHL1   H20 6527   0.942   4.753   8.988  0.7842  0.7305  1.1556
   55CHL1   C21 6528   1.008   4.937   9.069  0.4275 -0.0575  0.1108
   55CHL1  H21A 6529   0.973   5.024   9.128  3.0430  0.6163  0.7805
   55CHL1  H21B 6530   1.079   4.974   8.991  0.2108 -1.0987 -0.6069
   55CHL1  H21C 6531   1.073   4.883   9.141  1.5505  2.2669  0.9150
   55CHL1   C22 6532   0.827   4.905   8.894  0.1207  0.4206 -0.3420
   55CHL1  H22A 6533   0.730   4.859   8.865  0.3167  0.9063 -1.9091
   55CHL1  H22B 6534   0.803   5.011   8.915 -4.5993 -0.4813  0.0337
   55CHL1   C23 6535   0.915   4.920   8.771  0.7078  0.2109 -0.2766
   55CHL1  H23A 6536   0.996   4.994   8.790  1.5653 -0.7477 -0.1195
   55CHL1  H23B 6537   0.966   4.824   8.751 -1.1040 -1.4284  2.2784
   55CHL1   C24 6538   0.831   4.963   8.648  0.3348 -0.5457 -0.2492
   55CHL1  H24A 6539   0.769   4.877   8.614 -0.3014  0.6096 -2.1472
   55CHL1  H24B 6540   0.759   5.040   8.683 -0.1027 -1.9536  2.2261
   55CHL1   C25 6541   0.923   5.018   8.533  0.0550  0.7197 -0.6099
   55CHL1   H25 6542   1.008   5.073   8.577  0.6034  0.0172 -0.7787
   55CHL1   C26 6543   0.974   4.903   8.446 -0.4734  0.9051  0.4512
   55CHL1  H26A 6544   1.043   4.931   8.364  0.2317  0.5130  0.9007
   55CHL1  H26B 6545   1.011   4.822   8.514 -0.5877  0.0097 -0.5293
   55CHL1  H26C 6546   0.882   4.858   8.402  0.5689  0.6224 -1.5658
   55CHL1   C27 6547   0.841   5.102   8.440 -0.0776  0.3506 -0.1027
   55CHL1  H27A 6548   0.753   5.051   8.396 -1.2913  1.5838  0.8154
   55CHL1  H27B 6549   0.798   5.197   8.479 -0.2680  0.4714 -0.5937
   55CHL1  H27C 6550   0.904   5.129   8.352  1.3505  1.2386  1.1392
   56CHL1    C3 6551   4.616   1.907   9.942  0.1949  0.1665  0.1328
   56CHL1    H3 6552   4.720   1.869   9.949  0.4679  1.0451  0.9547
   56CHL1    O3 6553   4.581   1.932  10.075 -0.0160  0.6385 -0.0265
   56CHL1   H3' 6554   4.503   1.877  10.077  1.2976 -1.3962 -1.2580
   56CHL1    C4 6555   4.611   2.030   9.851  0.0361 -0.1757  0.0540
   56CHL1   H4A 6556   4.511   2.076   9.838 -0.6196 -1.5919 -0.1888
   56CHL1   H4B 6557   4.668   2.107   9.907 -0.5013  1.5263 -1.6569
   56CHL1    C5 6558   4.652   1.990   9.711  0.4181 -0.2153 -0.1433
   56CHL1    C6 6559   4.759   2.049   9.652  0.0958 -0.2091  0.2151
   56CHL1    H6 6560   4.824   2.120   9.705 -1.0432  0.8114  0.2893
   56CHL1    C7 6561   4.800   2.024   9.508 -0.0937 -0.6441  0.1484
   56CHL1   H7A 6562   4.834   2.110   9.447 -2.0847 -0.8870 -1.4295
   56CHL1   H7B 6563   4.886   1.955   9.494  0.1864 -0.0654 -1.1291
   56CHL1    C8 6564   4.684   1.951   9.432  0.1752 -0.0671  0.6442
   56CHL1    H8 6565   4.605   2.027   9.418  0.0652  0.0401  1.8140
   56CHL1   C14 6566   4.742   1.901   9.299  0.1325 -0.3378  0.0167
   56CHL1   H14 6567   4.800   1.810   9.326 -1.1386 -1.1820 -0.0630
   56CHL1   C15 6568   4.830   1.991   9.215  0.2637  0.1258 -0.2402
   56CHL1  H15A 6569   4.786   2.091   9.196 -1.5365 -0.9090 -1.9049
   56CHL1  H15B 6570   4.931   1.990   9.261 -0.6072  0.6320  1.8149
   56CHL1   C16 6571   4.834   1.916   9.082  0.5580  0.1175  0.2994
   56CHL1  H16A 6572   4.802   1.983   8.999  0.8098  1.0296  0.9299
   56CHL1  H16B 6573   4.940   1.891   9.062  0.9086  2.2172 -0.7272
   56CHL1   C17 6574   4.731   1.797   9.080  0.5804  0.3924 -0.3418
   56CHL1   H17 6575   4.790   1.705   9.101 -0.8827 -0.3398  0.8080
   56CHL1   C13 6576   4.640   1.830   9.198  0.4507 -0.8788 -1.2588
   56CHL1   C18 6577   4.527   1.928   9.151 -0.1805  0.1782  0.1861
   56CHL1  H18A 6578   4.584   2.006   9.096 -0.1474 -0.0658 -0.1260
   56CHL1  H18B 6579   4.452   1.879   9.086  1.2098 -2.2997  0.3247
   56CHL1  H18C 6580   4.475   1.974   9.238  0.2934 -1.6952  1.5152
   56CHL1   C12 6581   4.585   1.708   9.274  0.3474 -0.0558  1.1000
   56CHL1  H12A 6582   4.510   1.650   9.216  1.9573 -1.7537  0.6109
   56CHL1  H12B 6583   4.668   1.636   9.285 -0.9147 -1.8640 -0.5482
   56CHL1   C11 6584   4.524   1.761   9.407 -0.4064 -0.8177 -0.8363
   56CHL1  H11A 6585   4.438   1.825   9.377  0.7131  0.3514 -1.6768
   56CHL1  H11B 6586   4.482   1.678   9.467 -0.3310  1.1551  2.1542
   56CHL1    C9 6587   4.624   1.838   9.508  0.7829  0.4156 -0.8819
   56CHL1    H9 6588   4.705   1.766   9.533  0.0828 -0.1751 -0.2647
   56CHL1   C10 6589   4.564   1.888   9.638 -0.7769  0.1767 -0.3219
   56CHL1   C19 6590   4.428   1.962   9.615  0.7548  0.0891  0.2083
   56CHL1  H19A 6591   4.356   1.883   9.587  1.3136  0.3227 -2.0538
   56CHL1  H19B 6592   4.393   2.023   9.701  2.8505  0.1737  1.0679
   56CHL1  H19C 6593   4.434   2.035   9.531  0.0748  1.2695  1.1415
   56CHL1    C1 6594   4.543   1.772   9.740 -0.3909  0.0241  0.5901
   56CHL1   H1A 6595   4.458   1.707   9.711 -1.8758  2.1394 -0.0636
   56CHL1   H1B 6596   4.637   1.713   9.735  0.2945  0.9905  1.4552
   56CHL1    C2 6597   4.520   1.803   9.892 -0.3594 -0.3109  0.2782
   56CHL1   H2A 6598   4.523   1.712   9.956  3.1906 -0.4331  0.0997
   56CHL1   H2B 6599   4.418   1.847   9.890  0.0570  0.6589 -0.9084
   56CHL1   C20 6600   4.665   1.769   8.936 -0.9207  0.4196  0.1712
   56CHL1   H20 6601   4.605   1.858   8.907 -2.8664 -0.7153  0.5346
   56CHL1   C21 6602   4.564   1.652   8.935  0.0701  0.0764 -0.9054
   56CHL1  H21A 6603   4.592   1.568   9.003 -0.7446  1.7181  1.5958
   56CHL1  H21B 6604   4.536   1.620   8.832  0.8133 -0.9203 -0.8153
   56CHL1  H21C 6605   4.466   1.686   8.972  0.2107  0.2890 -0.7306
   56CHL1   C22 6606   4.773   1.750   8.818  0.3377 -0.9936 -0.2322
   56CHL1  H22A 6607   4.840   1.838   8.823 -0.1711 -0.4709 -1.7844
   56CHL1  H22B 6608   4.841   1.665   8.836 -1.1013 -2.5306 -1.6397
   56CHL1   C23 6609   4.716   1.753   8.675 -0.0609  0.2835  0.6834
   56CHL1  H23A 6610   4.625   1.692   8.655 -1.5012  1.1580  3.9846
   56CHL1  H23B 6611   4.678   1.854   8.650  1.8382  0.7473 -0.5819
   56CHL1   C24 6612   4.823   1.726   8.570 -0.3232 -0.8606  0.1708
   56CHL1  H24A 6613   4.905   1.799   8.589  0.4782 -1.1273 -1.9106
   56CHL1  H24B 6614   4.852   1.620   8.582 -0.3713 -0.5882  3.5488
   56CHL1   C25 6615   4.791   1.752   8.417 -0.9626  0.6690 -0.6089
   56CHL1   H25 6616   4.723   1.840   8.414 -0.3017  1.1833 -0.7154
   56CHL1   C26 6617   4.921   1.807   8.345 -0.0853  0.5951  0.7595
   56CHL1  H26A 6618   4.948   1.900   8.398  0.8398 -0.0231  1.4101
   56CHL1  H26B 6619   5.012   1.744   8.334 -1.7649 -2.3816  2.2894
   56CHL1  H26C 6620   4.892   1.847   8.245 -1.5266  0.3671  1.0504
   56CHL1   C27 6621   4.759   1.629   8.340 -0.1399  0.8123 -0.7176
   56CHL1  H27A 6622   4.753   1.657   8.233 -1.3158  3.1517 -0.1064
   56CHL1  H27B 6623   4.838   1.552   8.330 -0.9693 -0.0164 -0.9728
   56CHL1  H27C 6624   4.666   1.582   8.379  1.0471  0.7212  2.2586
   57CHL1    C3 6625   0.478   5.132  10.075 -0.3957  0.5974 -0.8090
   57CHL1    H3 6626   0.502   5.240  10.089 -0.4755  0.5165 -0.0333
   57CHL1    O3 6627   0.464   5.061  10.202 -0.0504  0.6047 -0.0249
   57CHL1   H3' 6628   0.552   5.061  10.239  0.2070  0.9790 -0.6374
   57CHL1    C4 6629   0.345   5.122   9.996 -0.4232 -0.5283  0.8033
   57CHL1   H4A 6630   0.311   5.017   9.990 -1.4612 -0.1132 -1.9459
   57CHL1   H4B 6631   0.265   5.187  10.038 -1.1778 -0.3112 -0.9021
   57CHL1    C5 6632   0.364   5.180   9.856 -0.4459 -0.3538 -0.0831
   57CHL1    C6 6633   0.293   5.277   9.810  0.2976 -0.0646 -0.7004
   57CHL1    H6 6634   0.220   5.332   9.872  0.9023  2.0134 -1.7061
   57CHL1    C7 6635   0.302   5.334   9.676 -0.2926  0.3881  0.2064
   57CHL1   H7A 6636   0.203   5.358   9.631  0.3095  0.3975 -1.1421
   57CHL1   H7B 6637   0.362   5.426   9.688 -1.0237  1.2562 -2.1895
   57CHL1    C8 6638   0.379   5.243   9.574 -0.4662  0.4366 -0.6553
   57CHL1    H8 6639   0.312   5.157   9.550 -0.4506 -0.2949  1.6626
   57CHL1   C14 6640   0.421   5.317   9.451  0.1005  0.7655  0.8933
   57CHL1   H14 6641   0.508   5.379   9.483  1.0396  0.4452 -0.8868
   57CHL1   C15 6642   0.323   5.407   9.369 -0.3380  0.7074 -0.7306
   57CHL1  H15A 6643   0.240   5.342   9.332  0.0016  0.0772 -0.3983
   57CHL1  H15B 6644   0.286   5.492   9.430 -0.5365 -0.0028  0.1666
   57CHL1   C16 6645   0.402   5.447   9.241 -0.1272 -0.0593  0.4272
   57CHL1  H16A 6646   0.349   5.430   9.145  0.0953 -1.1475  0.4823
   57CHL1  H16B 6647   0.435   5.554   9.243  0.8229 -0.3202 -0.3007
   57CHL1   C17 6648   0.525   5.354   9.230 -0.0178 -0.7045 -0.1061
   57CHL1   H17 6649   0.613   5.401   9.279 -0.4270  1.5191 -1.3438
   57CHL1   C13 6650   0.504   5.238   9.340  0.1616 -0.4795 -0.3760
   57CHL1   C18 6651   0.411   5.125   9.283  0.0166  0.3120 -0.1632
   57CHL1  H18A 6652   0.456   5.057   9.208  0.3033 -1.7437  1.7763
   57CHL1  H18B 6653   0.369   5.064   9.367  0.1706  0.0797 -0.2524
   57CHL1  H18C 6654   0.324   5.174   9.234 -1.8001  0.2395  2.7063
   57CHL1   C12 6655   0.630   5.179   9.410  0.0094  0.2837 -0.1640
   57CHL1  H12A 6656   0.685   5.116   9.336  0.6832 -0.8447  1.2403
   57CHL1  H12B 6657   0.698   5.261   9.442 -0.3060 -0.0104  1.3286
   57CHL1   C11 6658   0.601   5.099   9.534  0.1758  0.3541 -0.0326
   57CHL1  H11A 6659   0.534   5.014   9.507  1.0550 -0.7819  1.2414
   57CHL1  H11B 6660   0.692   5.060   9.584  0.2740  0.8307  0.1695
   57CHL1    C9 6661   0.509   5.180   9.637 -0.7048  0.5218  0.8792
   57CHL1    H9 6662   0.571   5.267   9.667 -1.8088  1.8272 -0.4273
   57CHL1   C10 6663   0.476   5.113   9.773 -1.1148  0.0288  0.6192
   57CHL1   C19 6664   0.424   4.970   9.735 -0.2406 -0.3029  0.1477
   57CHL1  H19A 6665   0.385   4.912   9.822  0.1046 -0.6291  0.0876
   57CHL1  H19B 6666   0.348   4.968   9.655 -1.1243  0.4277  0.9425
   57CHL1  H19C 6667   0.507   4.912   9.689  1.1787  1.1715  0.7534
   57CHL1    C1 6668   0.608   5.104   9.854  0.8926  0.1465 -0.0586
   57CHL1   H1A 6669   0.679   5.032   9.809  0.8994 -0.8744  1.5162
   57CHL1   H1B 6670   0.641   5.209   9.870 -1.0031  0.6676  0.7678
   57CHL1    C2 6671   0.581   5.047   9.999 -0.4050 -0.1728 -0.3041
   57CHL1   H2A 6672   0.675   5.055  10.058 -0.5483 -0.9748  0.0390
   57CHL1   H2B 6673   0.552   4.940   9.996 -3.2099  0.4233  1.7113
   57CHL1   C20 6674   0.573   5.311   9.091 -0.7332 -0.4164  0.1227
   57CHL1   H20 6675   0.657   5.239   9.105 -0.0473  0.7330  2.5255
   57CHL1   C21 6676   0.653   5.440   9.043  0.0806  0.4123  0.6846
   57CHL1  H21A 6677   0.574   5.508   9.004 -0.7066 -0.3445  0.9142
   57CHL1  H21B 6678   0.730   5.420   8.966 -0.7688  1.4597 -0.4885
   57CHL1  H21C 6679   0.705   5.493   9.125 -0.8851  0.8391  1.0461
   57CHL1   C22 6680   0.477   5.257   8.979  0.1731  0.1439 -1.2086
   57CHL1  H22A 6681   0.425   5.169   9.022 -0.7909  0.3727 -1.8817
   57CHL1  H22B 6682   0.392   5.328   8.963 -0.9490 -0.9033 -0.0515
   57CHL1   C23 6683   0.535   5.197   8.851 -0.5267 -0.4905  0.3121
   57CHL1  H23A 6684   0.616   5.260   8.808 -0.5288 -0.3748  0.4731
   57CHL1  H23B 6685   0.587   5.101   8.869  0.5698 -0.1557 -0.9426
   57CHL1   C24 6686   0.418   5.186   8.752  0.7126 -0.6243  0.4909
   57CHL1  H24A 6687   0.338   5.124   8.796  0.0303 -0.6741 -0.7632
   57CHL1  H24B 6688   0.372   5.286   8.738  0.2693 -0.9578 -0.5277
   57CHL1   C25 6689   0.451   5.116   8.621  0.7212 -0.0031 -0.0915
   57CHL1   H25 6690   0.548   5.158   8.589  0.8761  0.8272  1.3780
   57CHL1   C26 6691   0.455   4.965   8.634  0.2044 -0.4082  0.5335
   57CHL1  H26A 6692   0.535   4.931   8.703 -0.3934  0.1544  1.5423
   57CHL1  H26B 6693   0.358   4.945   8.685  0.0738 -1.6335 -0.1562
   57CHL1  H26C 6694   0.446   4.916   8.535 -1.3918  1.7302 -0.4626
   57CHL1   C27 6695   0.354   5.147   8.505  0.1962 -0.9740  0.5482
   57CHL1  H27A 6696   0.252   5.113   8.535 -1.6157  1.9441 -1.7272
   57CHL1  H27B 6697   0.336   5.255   8.485  2.1701 -0.5141  1.0947
   57CHL1  H27C 6698   0.378   5.091   8.413  1.5251  0.1920  0.1538
   58CHL1    C3 6699   3.179   3.808  10.223  0.1428  0.2637 -0.4926
   58CHL1    H3 6700   3.279   3.851  10.202  0.6107 -0.9040 -0.7456
   58CHL1    O3 6701   3.177   3.744  10.347  0.0397  0.8288 -0.2616
   58CHL1   H3' 6702   3.239   3.789  10.405 -0.0086  0.1365  0.3400
   58CHL1    C4 6703   3.075   3.927  10.224 -0.7311  0.5109 -0.9778
   58CHL1   H4A 6704   2.976   3.889  10.257  0.4099 -0.8001  1.1765
   58CHL1   H4B 6705   3.116   3.982  10.311  2.6249 -2.4628 -0.4663
   58CHL1    C5 6706   3.078   3.995  10.094  0.5870 -0.3575  0.2462
   58CHL1    C6 6707   3.100   4.124  10.088 -0.1147 -0.0138  0.2497
   58CHL1    H6 6708   3.123   4.176  10.182  1.0382 -1.2684  0.6896
   58CHL1    C7 6709   3.102   4.214   9.974  0.7807  1.0490  0.3099
   58CHL1   H7A 6710   3.021   4.290   9.983  0.2714  1.6249 -5.3891
   58CHL1   H7B 6711   3.200   4.264   9.958  1.4993  0.1929  1.8224
   58CHL1    C8 6712   3.050   4.142   9.839  0.1062 -0.1573  0.2420
   58CHL1    H8 6713   2.939   4.140   9.849  0.2264 -3.2086  1.9406
   58CHL1   C14 6714   3.089   4.213   9.705  0.6545  1.0340 -1.2902
   58CHL1   H14 6715   3.197   4.237   9.708  0.8856 -0.0390  0.1185
   58CHL1   C15 6716   3.027   4.353   9.680 -0.0138  0.7738  0.4211
   58CHL1  H15A 6717   2.919   4.352   9.706 -0.6440  5.9710 -0.7545
   58CHL1  H15B 6718   3.079   4.436   9.733  2.8493 -0.3709 -0.4139
   58CHL1   C16 6719   3.052   4.381   9.526  0.5292  0.2827 -0.0922
   58CHL1  H16A 6720   2.957   4.428   9.492 -0.0005 -0.0423  0.8999
   58CHL1  H16B 6721   3.126   4.463   9.513  0.6344  0.2326  0.1920
   58CHL1   C17 6722   3.085   4.239   9.470 -0.2514 -0.2995  0.4172
   58CHL1   H17 6723   3.196   4.240   9.474 -0.2499 -0.6574  0.5695
   58CHL1   C13 6724   3.054   4.137   9.576  0.5093 -0.1221 -0.2198
   58CHL1   C18 6725   2.899   4.110   9.568  0.0058  0.2848  0.1556
   58CHL1  H18A 6726   2.852   4.210   9.567 -0.3808  0.1641 -2.7559
   58CHL1  H18B 6727   2.865   4.066   9.472  0.4225  0.3201 -0.0121
   58CHL1  H18C 6728   2.868   4.059   9.662 -0.8197 -0.1438 -0.3354
   58CHL1   C12 6729   3.129   4.000   9.582 -0.7259  0.0439  0.0349
   58CHL1  H12A 6730   3.115   3.939   9.490  1.9115  0.6590 -0.8515
   58CHL1  H12B 6731   3.239   4.015   9.591 -0.5182 -1.9709  1.8957
   58CHL1   C11 6732   3.087   3.918   9.699 -0.7289 -0.3975  0.1284
   58CHL1  H11A 6733   2.978   3.900   9.694 -0.6326 -1.1892  0.7146
   58CHL1  H11B 6734   3.141   3.821   9.709  0.0344  0.1617  1.8697
   58CHL1    C9 6735   3.100   3.997   9.834 -0.0851 -0.1329  0.4330
   58CHL1    H9 6736   3.210   4.016   9.841  0.3067 -1.9318 -0.1621
   58CHL1   C10 6737   3.062   3.915   9.965  0.1528 -0.1809 -0.1670
   58CHL1   C19 6738   2.909   3.878   9.967  0.1592 -0.1181  0.4147
   58CHL1  H19A 6739   2.882   3.828  10.062 -1.4384  1.6173  0.9238
   58CHL1  H19B 6740   2.849   3.971   9.961  0.8127  0.2642 -0.2819
   58CHL1  H19C 6741   2.892   3.813   9.878 -0.5761  1.2534 -0.4822
   58CHL1    C1 6742   3.155   3.786   9.969  0.7289 -0.3678 -0.1573
   58CHL1   H1A 6743   3.125   3.711   9.893 -2.4005  1.3460 -0.7971
   58CHL1   H1B 6744   3.259   3.814   9.941  0.8312  0.8470  1.3102
   58CHL1    C2 6745   3.150   3.711  10.105 -0.8078 -0.3617 -0.6884
   58CHL1   H2A 6746   3.231   3.634  10.109  0.6775  1.1720  0.1019
   58CHL1   H2B 6747   3.047   3.671  10.113  0.5106 -3.7601  1.1740
   58CHL1   C20 6748   3.052   4.211   9.322  0.3054 -0.0270 -0.3336
   58CHL1   H20 6749   2.961   4.149   9.306  1.3545 -1.5783 -0.5184
   58CHL1   C21 6750   3.178   4.133   9.277 -0.1919 -0.3003  0.1337
   58CHL1  H21A 6751   3.208   4.049   9.344  1.0014  2.0175  2.7182
   58CHL1  H21B 6752   3.268   4.199   9.282  1.9922 -3.1306  1.9238
   58CHL1  H21C 6753   3.175   4.097   9.172 -0.4955 -1.3729  0.4959
   58CHL1   C22 6754   3.035   4.336   9.239  0.1179 -0.6694 -0.0673
   58CHL1  H22A 6755   2.966   4.403   9.294 -0.3852 -3.0907  2.5077
   58CHL1  H22B 6756   3.128   4.396   9.240  0.7478 -1.6134 -0.2305
   58CHL1   C23 6757   2.973   4.319   9.098 -0.4928 -0.7016 -0.6507
   58CHL1  H23A 6758   3.056   4.271   9.042  0.5706 -1.8033  1.7353
   58CHL1  H23B 6759   2.891   4.244   9.086 -0.4574 -0.7747 -0.4344
   58CHL1   C24 6760   2.932   4.459   9.035 -0.3535  0.0443  0.2403
   58CHL1  H24A 6761   2.845   4.499   9.092  0.0444 -1.3244  1.8770
   58CHL1  H24B 6762   3.011   4.536   9.043 -1.1257  0.8108  0.6502
   58CHL1   C25 6763   2.902   4.447   8.884  0.1228 -0.1516  0.0799
   58CHL1   H25 6764   2.824   4.369   8.868  0.5733 -0.1569 -2.4954
   58CHL1   C26 6765   2.841   4.580   8.833  0.6770  0.3943 -0.1344
   58CHL1  H26A 6766   2.915   4.662   8.839  1.8792 -0.7260  1.3476
   58CHL1  H26B 6767   2.813   4.569   8.726  0.2777 -2.5908  0.1671
   58CHL1  H26C 6768   2.748   4.606   8.887 -1.5340 -0.5443 -3.1942
   58CHL1   C27 6769   3.035   4.423   8.813  0.7122  0.8130  0.6637
   58CHL1  H27A 6770   3.063   4.320   8.842  2.6963  1.0391 -0.2498
   58CHL1  H27B 6771   3.035   4.440   8.703 -0.5626 -0.2011  0.4882
   58CHL1  H27C 6772   3.113   4.488   8.859  0.7999  0.6616  0.7309
   59CHL1    C3 6773   2.722   2.758  10.421  0.6407  0.2369 -0.7675
   59CHL1    H3 6774   2.647   2.832  10.384  0.0439  0.8011  1.4235
   59CHL1    O3 6775   2.728   2.772  10.563 -0.4676  0.1318  0.6508
   59CHL1   H3' 6776   2.743   2.864  10.586 -2.0247  0.3170  1.0492
   59CHL1    C4 6777   2.680   2.618  10.384  0.3943 -1.3050  1.1676
   59CHL1   H4A 6778   2.751   2.543  10.426  0.3166 -1.7178  0.5718
   59CHL1   H4B 6779   2.583   2.604  10.435  0.2568  0.3263  1.4259
   59CHL1    C5 6780   2.675   2.613  10.228  0.2393 -0.2579 -1.0848
   59CHL1    C6 6781   2.568   2.575  10.166 -0.1624  0.2351  0.6061
   59CHL1    H6 6782   2.482   2.539  10.225  0.6307 -0.2768  1.4849
   59CHL1    C7 6783   2.548   2.549  10.021  0.3539  0.0218 -0.2332
   59CHL1   H7A 6784   2.486   2.457  10.013  1.9807 -1.1061 -0.3730
   59CHL1   H7B 6785   2.495   2.636   9.978  0.7372 -1.1565 -3.3716
   59CHL1    C8 6786   2.686   2.544   9.948  0.1289  0.8653  0.2243
   59CHL1    H8 6787   2.736   2.447   9.967  0.3310  0.9865  0.3166
   59CHL1   C14 6788   2.668   2.565   9.802  0.0668  0.0982 -0.5682
   59CHL1   H14 6789   2.632   2.670   9.799  0.8025  0.3420 -2.6309
   59CHL1   C15 6790   2.567   2.481   9.731  0.4461  0.0554  0.2810
   59CHL1  H15A 6791   2.590   2.374   9.754  2.2251  0.5161  0.8168
   59CHL1  H15B 6792   2.463   2.492   9.767  0.1363 -0.7558 -0.3294
   59CHL1   C16 6793   2.600   2.506   9.584  0.5837  0.4909  0.1524
   59CHL1  H16A 6794   2.619   2.410   9.532 -0.3994  0.2971  0.1383
   59CHL1  H16B 6795   2.519   2.558   9.529  0.2861  0.2150  0.3277
   59CHL1   C17 6796   2.725   2.603   9.578 -0.2000 -0.3010  0.3899
   59CHL1   H17 6797   2.678   2.703   9.584  0.0306 -0.2594  1.6666
   59CHL1   C13 6798   2.792   2.586   9.721 -0.0625 -0.0186 -0.3253
   59CHL1   C18 6799   2.888   2.463   9.725 -0.0767  0.1754  0.0876
   59CHL1  H18A 6800   2.849   2.372   9.674 -1.5847 -0.5844  2.4227
   59CHL1  H18B 6801   2.984   2.498   9.681 -0.7438  1.1957 -0.5936
   59CHL1  H18C 6802   2.906   2.435   9.831 -2.2226 -0.8883  0.2279
   59CHL1   C12 6803   2.862   2.716   9.776 -0.1999  0.5019  0.3437
   59CHL1  H12A 6804   2.960   2.729   9.724  1.5894 -0.5033  3.2297
   59CHL1  H12B 6805   2.791   2.800   9.763 -2.2809 -1.2918 -0.5707
   59CHL1   C11 6806   2.894   2.704   9.928 -0.1386 -0.1479 -0.4078
   59CHL1  H11A 6807   2.969   2.624   9.948  0.4882  1.2533  3.9473
   59CHL1  H11B 6808   2.927   2.805   9.960  1.5817 -0.1083 -2.1734
   59CHL1    C9 6809   2.770   2.666  10.011  0.7593  0.2654  1.0937
   59CHL1    H9 6810   2.708   2.756   9.993  0.4781 -0.4059 -1.7365
   59CHL1   C10 6811   2.801   2.647  10.157 -0.5539 -1.1807  0.1556
   59CHL1   C19 6812   2.910   2.544  10.194  0.6425  0.5826  0.2245
   59CHL1  H19A 6813   2.919   2.521  10.302 -0.7829  2.4452  0.8023
   59CHL1  H19B 6814   2.900   2.446  10.143 -1.1079 -0.6103  2.6699
   59CHL1  H19C 6815   3.003   2.582  10.147  0.6464 -1.3716 -1.4935
   59CHL1    C1 6816   2.863   2.777  10.214 -0.4945 -0.2869  0.0631
   59CHL1   H1A 6817   2.963   2.799  10.173 -2.9523  2.4503 -5.4855
   59CHL1   H1B 6818   2.794   2.853  10.172 -0.1255 -1.1667 -2.3232
   59CHL1    C2 6819   2.859   2.796  10.368  0.5723 -0.4313 -0.0915
   59CHL1   H2A 6820   2.872   2.904  10.391 -2.6362  0.2674 -1.0301
   59CHL1   H2B 6821   2.947   2.746  10.414  2.2506  2.3767 -0.0056
   59CHL1   C20 6822   2.810   2.607   9.440 -0.7325  0.5120 -0.7677
   59CHL1   H20 6823   2.868   2.513   9.433  0.0531  0.9235 -0.0613
   59CHL1   C21 6824   2.903   2.724   9.437  0.0786 -0.6045 -1.1173
   59CHL1  H21A 6825   2.950   2.751   9.341  1.1992  1.8669  0.0301
   59CHL1  H21B 6826   2.990   2.703   9.503 -0.3746 -1.0621 -0.6510
   59CHL1  H21C 6827   2.852   2.818   9.466  1.6888  0.7528 -2.4629
   59CHL1   C22 6828   2.724   2.609   9.316 -0.5939 -0.0529  0.1959
   59CHL1  H22A 6829   2.646   2.535   9.343  1.2926 -1.5594  1.8326
   59CHL1  H22B 6830   2.680   2.709   9.295 -1.4453 -0.5058 -0.2327
   59CHL1   C23 6831   2.795   2.559   9.197 -0.3128  0.2001  0.2150
   59CHL1  H23A 6832   2.864   2.636   9.157 -0.0148 -0.0357  0.2754
   59CHL1  H23B 6833   2.843   2.464   9.226  0.4206  0.6324  0.4494
   59CHL1   C24 6834   2.693   2.535   9.084 -0.0909  0.9461  0.0347
   59CHL1  H24A 6835   2.618   2.457   9.110  0.2088  1.4951  2.8622
   59CHL1  H24B 6836   2.632   2.624   9.057  1.1272  1.5236 -0.9131
   59CHL1   C25 6837   2.760   2.486   8.959 -0.2479 -0.6597  0.3392
   59CHL1   H25 6838   2.844   2.555   8.935 -0.6103  0.8559  3.0167
   59CHL1   C26 6839   2.810   2.341   8.985  0.1067 -0.3429  0.3162
   59CHL1  H26A 6840   2.903   2.359   9.044  0.5656  0.6168 -0.6426
   59CHL1  H26B 6841   2.729   2.294   9.044 -0.7185  0.9461  0.2357
   59CHL1  H26C 6842   2.830   2.288   8.889 -1.3207 -1.4504  0.5986
   59CHL1   C27 6843   2.668   2.483   8.834  0.0743 -0.0031  0.7491
   59CHL1  H27A 6844   2.590   2.409   8.863 -0.6008  1.4545  2.8995
   59CHL1  H27B 6845   2.626   2.579   8.798 -0.7499 -0.6987 -0.2154
   59CHL1  H27C 6846   2.734   2.452   8.750  1.0243  0.4611  1.3140
   60CHL1    C3 6847   2.644   1.538  10.278  0.0762  0.5389 -0.2025
   60CHL1    H3 6848   2.752   1.512  10.276 -0.5994 -2.8686  1.2773
   60CHL1    O3 6849   2.619   1.526  10.419 -0.5956 -0.5450  0.0901
   60CHL1   H3' 6850   2.646   1.439  10.447  0.6487  0.2201  1.4078
   60CHL1    C4 6851   2.604   1.669  10.213 -0.5857 -0.7139  1.0313
   60CHL1   H4A 6852   2.494   1.673  10.231 -1.0463  0.3853 -1.5479
   60CHL1   H4B 6853   2.645   1.760  10.262 -1.6720 -0.3274  1.2745
   60CHL1    C5 6854   2.630   1.670  10.063  0.0946 -0.2190 -0.0370
   60CHL1    C6 6855   2.724   1.739   9.995  0.2784  0.0163  0.1751
   60CHL1    H6 6856   2.785   1.818  10.040 -1.8378  0.3460  2.7255
   60CHL1    C7 6857   2.738   1.740   9.846  0.2645 -0.0850 -0.3783
   60CHL1   H7A 6858   2.739   1.848   9.818 -1.0252  1.1258  3.4330
   60CHL1   H7B 6859   2.835   1.690   9.826  1.1492  1.6551 -0.6382
   60CHL1    C8 6860   2.623   1.666   9.773 -0.3797 -0.1404 -0.0123
   60CHL1    H8 6861   2.535   1.734   9.767 -0.1265  0.0925 -1.9205
   60CHL1   C14 6862   2.669   1.630   9.630  0.4435  0.3243 -0.4335
   60CHL1   H14 6863   2.757   1.564   9.647  0.1802  0.3328  1.0987
   60CHL1   C15 6864   2.729   1.749   9.549 -0.6712 -0.2452 -0.1209
   60CHL1  H15A 6865   2.656   1.832   9.553  1.9266  2.1598  2.3699
   60CHL1  H15B 6866   2.829   1.791   9.574 -1.1590  1.2206 -0.5027
   60CHL1   C16 6867   2.736   1.683   9.405 -0.0217 -0.5728 -0.3034
   60CHL1  H16A 6868   2.676   1.743   9.333  2.5665  1.2393 -1.1091
   60CHL1  H16B 6869   2.839   1.674   9.365 -1.3915 -3.9643 -3.6681
   60CHL1   C17 6870   2.650   1.555   9.407  0.7758  1.2733  0.3707
   60CHL1   H17 6871   2.722   1.473   9.427 -0.5212 -0.1853 -0.7085
   60CHL1   C13 6872   2.571   1.556   9.544  0.3640  0.4447 -0.1682
   60CHL1   C18 6873   2.442   1.643   9.522  0.0038 -0.5337 -0.3332
   60CHL1  H18A 6874   2.391   1.662   9.618  4.0717  2.6097  1.4990
   60CHL1  H18B 6875   2.459   1.744   9.479  0.5764 -0.4880 -0.0051
   60CHL1  H18C 6876   2.362   1.610   9.451  0.5639 -1.5760 -0.4882
   60CHL1   C12 6877   2.534   1.420   9.616  0.7457  0.3087  0.7824
   60CHL1  H12A 6878   2.446   1.373   9.566 -0.8541  2.3736  1.4994
   60CHL1  H12B 6879   2.620   1.350   9.609 -0.2811 -0.9217  0.1041
   60CHL1   C11 6880   2.485   1.443   9.759  0.0481 -0.3361  0.1128
   60CHL1  H11A 6881   2.393   1.506   9.759 -2.0864 -3.2395 -0.6526
   60CHL1  H11B 6882   2.459   1.346   9.806 -0.7518 -0.8444 -1.3309
   60CHL1    C9 6883   2.586   1.534   9.842  0.7201 -1.1928  0.1634
   60CHL1    H9 6884   2.671   1.463   9.850  2.2716  0.8036  3.9366
   60CHL1   C10 6885   2.550   1.559   9.991 -0.2373  0.3997 -0.6938
   60CHL1   C19 6886   2.400   1.605   9.992  0.5797 -0.4082  0.7258
   60CHL1  H19A 6887   2.395   1.697   9.931  2.3358 -0.1478  0.9108
   60CHL1  H19B 6888   2.328   1.533   9.948  0.5456  0.3610 -0.5186
   60CHL1  H19C 6889   2.355   1.639  10.088 -2.0291  0.5578 -0.7547
   60CHL1    C1 6890   2.566   1.427  10.065  0.3195 -0.0868  0.4216
   60CHL1   H1A 6891   2.481   1.364  10.029 -0.7788  2.4035 -1.6565
   60CHL1   H1B 6892   2.655   1.365  10.043 -0.7882 -1.2872 -0.9567
   60CHL1    C2 6893   2.553   1.431  10.219  0.5314 -0.0712 -0.8637
   60CHL1   H2A 6894   2.581   1.328  10.252 -0.0334 -0.2301 -0.8670
   60CHL1   H2B 6895   2.446   1.441  10.247  0.2122  0.5908 -2.2327
   60CHL1   C20 6896   2.579   1.524   9.279 -0.5795 -0.0407 -0.5749
   60CHL1   H20 6897   2.510   1.607   9.252 -1.8338 -0.2268  1.8198
   60CHL1   C21 6898   2.492   1.397   9.288  0.3914  0.0079  0.2259
   60CHL1  H21A 6899   2.417   1.399   9.370 -0.1719  1.5857 -0.3070
   60CHL1  H21B 6900   2.560   1.313   9.317 -1.5232 -1.2875  1.2142
   60CHL1  H21C 6901   2.440   1.364   9.196  1.4552  0.1273 -0.4412
   60CHL1   C22 6902   2.681   1.512   9.171 -0.2191 -0.0232  0.0850
   60CHL1  H22A 6903   2.737   1.607   9.159  0.6905 -0.6850 -1.1274
   60CHL1  H22B 6904   2.749   1.425   9.186  0.8106  0.8005  0.2674
   60CHL1   C23 6905   2.625   1.490   9.019 -0.2944 -0.1646 -0.8865
   60CHL1  H23A 6906   2.556   1.402   9.017 -0.3846 -0.1058 -0.4175
   60CHL1  H23B 6907   2.570   1.581   8.986 -0.5645 -0.1084 -0.2912
   60CHL1   C24 6908   2.740   1.462   8.917  0.1119 -0.2961  0.2071
   60CHL1  H24A 6909   2.808   1.550   8.918 -0.7194  0.3618  0.3221
   60CHL1  H24B 6910   2.785   1.365   8.947  0.9513  0.1801  0.5171
   60CHL1   C25 6911   2.689   1.429   8.771 -0.0448 -0.0310 -0.3415
   60CHL1   H25 6912   2.634   1.333   8.778  2.2980 -1.3202  2.4762
   60CHL1   C26 6913   2.598   1.534   8.713 -0.2395  0.6812  0.4386
   60CHL1  H26A 6914   2.649   1.631   8.725  2.1921 -0.5241  0.5681
   60CHL1  H26B 6915   2.585   1.515   8.604 -2.1757 -1.5638  0.9815
   60CHL1  H26C 6916   2.501   1.537   8.767 -0.4787  1.0380 -0.0082
   60CHL1   C27 6917   2.810   1.395   8.688 -0.4061  0.6146  0.3224
   60CHL1  H27A 6918   2.837   1.290   8.712 -1.3809 -0.0937 -1.4721
   60CHL1  H27B 6919   2.792   1.395   8.578 -0.1574  0.1144  0.2827
   60CHL1  H27C 6920   2.891   1.468   8.711 -0.2158  0.4830  0.0686
   61CHL1    C3 6921   6.485   0.390  10.435  0.0806 -0.5406  0.2089
   61CHL1    H3 6922   6.460   0.494  10.464  1.5058 -0.1134 -0.0213
   61CHL1    O3 6923   6.475   0.306  10.550 -0.4832  0.0243  0.1061
   61CHL1   H3' 6924   6.485   0.216  10.521  1.7013  0.5169 -0.8651
   61CHL1    C4 6925   6.391   0.327  10.334 -0.2043 -0.4907  1.1757
   61CHL1   H4A 6926   6.398   0.216  10.340  1.2708 -0.5876 -1.0976
   61CHL1   H4B 6927   6.287   0.347  10.368 -0.6554  2.7893 -1.6753
   61CHL1    C5 6928   6.423   0.367  10.188  0.0918 -0.6106 -0.6942
   61CHL1    C6 6929   6.322   0.394  10.104  0.6809  0.0630 -0.1810
   61CHL1    H6 6930   6.221   0.392  10.149  1.6158 -2.2592  2.0144
   61CHL1    C7 6931   6.329   0.434   9.958  0.5718  0.0625  0.2880
   61CHL1   H7A 6932   6.274   0.356   9.902  2.0508 -0.5402 -0.3524
   61CHL1   H7B 6933   6.265   0.525   9.954 -1.2125 -1.0849  1.4281
   61CHL1    C8 6934   6.472   0.442   9.907 -0.6201  0.2618 -0.5308
   61CHL1    H8 6935   6.490   0.340   9.865 -0.6158 -0.7235  1.7239
   61CHL1   C14 6936   6.487   0.544   9.796  0.6177  0.2299  0.3503
   61CHL1   H14 6937   6.466   0.646   9.836  1.2548  0.6428 -0.3510
   61CHL1   C15 6938   6.379   0.543   9.685  0.0557  0.4586  0.1563
   61CHL1  H15A 6939   6.326   0.445   9.683  0.4299  0.2612 -0.3575
   61CHL1  H15B 6940   6.299   0.614   9.715 -0.2863 -0.0091  0.3757
   61CHL1   C16 6941   6.457   0.591   9.560 -0.6285 -0.5971 -0.1735
   61CHL1  H16A 6942   6.462   0.508   9.487 -1.7216  0.8718 -2.0259
   61CHL1  H16B 6943   6.397   0.664   9.501 -0.8146 -1.7806 -1.5043
   61CHL1   C17 6944   6.597   0.643   9.610 -0.3703 -0.4071 -0.8915
   61CHL1   H17 6945   6.575   0.747   9.642  1.4399 -0.0016 -0.8508
   61CHL1   C13 6946   6.620   0.550   9.730 -0.7527  0.1243 -0.3050
   61CHL1   C18 6947   6.659   0.415   9.676  0.2188 -0.2871  0.5726
   61CHL1  H18A 6948   6.596   0.378   9.592  1.0699 -0.9912  0.2325
   61CHL1  H18B 6949   6.763   0.424   9.639 -0.0693  0.2190 -0.1428
   61CHL1  H18C 6950   6.658   0.333   9.751 -1.5498 -0.6365  0.2162
   61CHL1   C12 6951   6.722   0.592   9.840  0.2971  0.3330  0.0259
   61CHL1  H12A 6952   6.818   0.574   9.787 -0.2861 -0.3862 -0.8084
   61CHL1  H12B 6953   6.704   0.699   9.863 -1.1701  0.0286  0.3986
   61CHL1   C11 6954   6.717   0.512   9.967 -0.5580 -0.3309 -0.6329
   61CHL1  H11A 6955   6.776   0.418   9.959  1.4349  0.8246 -0.0842
   61CHL1  H11B 6956   6.780   0.568  10.039  0.0817 -0.8177 -0.8003
   61CHL1    C9 6957   6.572   0.473  10.023  0.8723 -0.3179  0.5567
   61CHL1    H9 6958   6.529   0.572  10.051  1.1066 -0.0101 -0.1261
   61CHL1   C10 6959   6.565   0.381  10.141  0.0586 -0.4025 -0.0948
   61CHL1   C19 6960   6.622   0.240  10.107  0.7126  0.5688  0.6291
   61CHL1  H19A 6961   6.560   0.177  10.041  1.1932  1.4317 -0.6825
   61CHL1  H19B 6962   6.724   0.244  10.064 -0.8828  0.9312 -3.5129
   61CHL1  H19C 6963   6.614   0.176  10.198 -1.3480  0.4686  0.4299
   61CHL1    C1 6964   6.654   0.434  10.254  0.0258  0.9428  0.2961
   61CHL1   H1A 6965   6.762   0.422  10.230 -0.3440 -0.6183 -0.7249
   61CHL1   H1B 6966   6.644   0.543  10.274 -1.3453  1.1108 -1.0968
   61CHL1    C2 6967   6.635   0.371  10.389 -0.2963 -0.7160 -0.2151
   61CHL1   H2A 6968   6.706   0.407  10.466 -0.0086 -0.4530 -0.5976
   61CHL1   H2B 6969   6.644   0.261  10.385  1.3002 -0.6721  1.0757
   61CHL1   C20 6970   6.700   0.651   9.494  0.3674  0.4013 -0.1869
   61CHL1   H20 6971   6.732   0.546   9.473  0.9917  0.0915  2.0677
   61CHL1   C21 6972   6.827   0.719   9.543 -0.1594 -0.5417 -0.3200
   61CHL1  H21A 6973   6.896   0.746   9.460 -0.1638 -0.2125 -0.2175
   61CHL1  H21B 6974   6.875   0.644   9.609 -3.1547  0.2201  3.0348
   61CHL1  H21C 6975   6.800   0.811   9.599 -0.7276 -1.7512  1.4756
   61CHL1   C22 6976   6.646   0.726   9.368  0.7548  0.1635  0.0532
   61CHL1  H22A 6977   6.555   0.678   9.325  1.1764 -0.6216  0.0213
   61CHL1  H22B 6978   6.617   0.832   9.383 -0.3281 -0.3156  1.4829
   61CHL1   C23 6979   6.748   0.730   9.245 -0.2634 -0.4146 -0.8842
   61CHL1  H23A 6980   6.833   0.795   9.276 -1.6672  0.5397  1.1966
   61CHL1  H23B 6981   6.776   0.625   9.224 -1.9779 -0.7801 -1.5333
   61CHL1   C24 6982   6.678   0.793   9.123  0.3798 -0.3563 -0.2393
   61CHL1  H24A 6983   6.602   0.718   9.094 -0.5986  0.0455  1.2057
   61CHL1  H24B 6984   6.617   0.883   9.149 -0.2623 -1.2358  1.4466
   61CHL1   C25 6985   6.780   0.820   9.005 -0.1489 -0.2667 -0.6569
   61CHL1   H25 6986   6.856   0.887   9.051 -1.6817  0.2084  1.3403
   61CHL1   C26 6987   6.850   0.693   8.952  0.2275  0.2203 -0.5338
   61CHL1  H26A 6988   6.881   0.618   9.027 -1.3792 -1.0015 -1.0222
   61CHL1  H26B 6989   6.771   0.645   8.890  1.9812 -1.3294 -1.6858
   61CHL1  H26C 6990   6.933   0.720   8.884 -1.0231  3.1044 -1.0554
   61CHL1   C27 6991   6.728   0.892   8.882 -0.1059  0.1179  0.0073
   61CHL1  H27A 6992   6.804   0.948   8.823 -0.6365  1.0007  0.1384
   61CHL1  H27B 6993   6.668   0.823   8.819 -1.3494 -0.8300  2.1334
   61CHL1  H27C 6994   6.663   0.978   8.910  2.0517  1.3092  1.6857
   62CHL1    C3 6995   0.160   4.749   9.975 -0.1023 -1.4466  0.3347
   62CHL1    H3 6996   0.239   4.828   9.975 -1.9412  0.5418  2.3632
   62CHL1    O3 6997   0.138   4.750  10.114 -0.2449 -0.3261  0.4147
   62CHL1   H3' 6998   0.093   4.834  10.128  1.0193  0.3637  0.4086
   62CHL1    C4 6999   0.037   4.799   9.903  0.2208 -0.1607  0.2749
   62CHL1   H4A 7000  -0.050   4.734   9.924  1.9205 -1.6695  3.3089
   62CHL1   H4B 7001   0.019   4.904   9.934 -0.6857 -0.3434  0.3977
   62CHL1    C5 7002   0.053   4.803   9.751  0.4439  0.4444  0.4147
   62CHL1    C6 7003   0.036   4.917   9.679 -0.5586  0.5084  0.0835
   62CHL1    H6 7004  -0.005   5.005   9.730 -2.1104  0.3950 -0.8870
   62CHL1    C7 7005   0.055   4.938   9.537  0.2759 -0.0331 -0.0804
   62CHL1   H7A 7006  -0.020   5.009   9.497  1.2915  0.6190 -0.8868
   62CHL1   H7B 7007   0.148   4.999   9.534  0.2534 -0.0340 -2.0367
   62CHL1    C8 7008   0.073   4.807   9.457 -0.5589  0.1025  0.1423
   62CHL1    H8 7009  -0.027   4.760   9.442  0.4172 -1.2738 -2.6413
   62CHL1   C14 7010   0.132   4.838   9.323 -0.1754  0.0039  0.9825
   62CHL1   H14 7011   0.228   4.892   9.337 -0.8011  1.1693  0.8580
   62CHL1   C15 7012   0.050   4.924   9.226 -0.3479 -0.1812  0.1365
   62CHL1  H15A 7013  -0.059   4.905   9.230 -0.6427  1.3661 -0.0117
   62CHL1  H15B 7014   0.058   5.034   9.240  5.5334 -0.1674 -0.8137
   62CHL1   C16 7015   0.104   4.885   9.088  0.3164 -0.2354 -0.0539
   62CHL1  H16A 7016   0.015   4.855   9.028  1.0490 -2.1864 -0.2451
   62CHL1  H16B 7017   0.160   4.961   9.029 -0.8335  0.4320 -0.3153
   62CHL1   C17 7018   0.209   4.768   9.105 -0.0417  0.2286  0.9378
   62CHL1   H17 7019   0.314   4.799   9.120 -0.1098  1.4009 -0.7580
   62CHL1   C13 7020   0.170   4.705   9.247 -0.1216  0.4701  0.3489
   62CHL1   C18 7021   0.046   4.618   9.222 -0.6528  0.1380 -0.3028
   62CHL1  H18A 7022   0.078   4.529   9.162  0.2147  0.2145  0.0423
   62CHL1  H18B 7023  -0.008   4.576   9.310 -0.0776 -1.1987 -0.5631
   62CHL1  H18C 7024  -0.039   4.671   9.173 -1.2065 -0.2967  0.1674
   62CHL1   C12 7025   0.274   4.631   9.323 -0.6114  0.1094 -0.6020
   62CHL1  H12A 7026   0.301   4.532   9.280 -2.0049 -0.2076 -0.8220
   62CHL1  H12B 7027   0.368   4.688   9.327  0.2041 -1.2438  0.9850
   62CHL1   C11 7028   0.218   4.594   9.464  0.2086 -0.2775  0.1751
   62CHL1  H11A 7029   0.128   4.529   9.453 -0.1316  0.4270 -1.5342
   62CHL1  H11B 7030   0.291   4.531   9.519  0.7212 -0.7427 -1.0092
   62CHL1    C9 7031   0.162   4.715   9.541 -0.8721 -0.3035 -0.1194
   62CHL1    H9 7032   0.250   4.781   9.555 -0.5335 -0.6950 -0.4006
   62CHL1   C10 7033   0.114   4.681   9.682  0.5089 -0.2995  0.1653
   62CHL1   C19 7034   0.002   4.567   9.680  0.3310  0.0856  0.0093
   62CHL1  H19A 7035   0.033   4.483   9.615  0.5762 -0.3070  0.6275
   62CHL1  H19B 7036  -0.030   4.524   9.778  0.4758  0.1036  0.0657
   62CHL1  H19C 7037  -0.083   4.615   9.628  0.5510 -0.7712 -1.1676
   62CHL1    C1 7038   0.236   4.644   9.766  0.6816  0.4274 -0.0729
   62CHL1   H1A 7039   0.288   4.549   9.740  0.6049  0.1923  0.6188
   62CHL1   H1B 7040   0.305   4.730   9.755  1.8820 -0.1735  2.0826
   62CHL1    C2 7041   0.210   4.624   9.915  0.4793  0.2284 -0.1036
   62CHL1   H2A 7042   0.301   4.587   9.968  0.8421  0.1778 -0.7493
   62CHL1   H2B 7043   0.137   4.541   9.929  1.2292 -0.0497  2.8236
   62CHL1   C20 7044   0.211   4.666   8.988  0.3282 -0.5463 -0.1909
   62CHL1   H20 7045   0.113   4.616   8.973  0.3596 -1.0367  1.1104
   62CHL1   C21 7046   0.310   4.550   9.009  0.1272 -0.2333 -0.8258
   62CHL1  H21A 7047   0.279   4.487   9.095  0.7833 -0.6202 -0.8634
   62CHL1  H21B 7048   0.410   4.592   9.034  0.3174 -1.1154 -0.0443
   62CHL1  H21C 7049   0.303   4.491   8.915 -1.8908  1.1395 -1.6109
   62CHL1   C22 7050   0.234   4.731   8.854 -0.0148 -0.7823  0.5724
   62CHL1  H22A 7051   0.189   4.831   8.839 -1.6152 -1.6952 -1.1064
   62CHL1  H22B 7052   0.343   4.736   8.831 -0.1453 -3.5851 -1.2526
   62CHL1   C23 7053   0.169   4.652   8.738 -0.0818  0.5112  0.2365
   62CHL1  H23A 7054   0.237   4.566   8.719 -0.0583  0.4792  0.4541
   62CHL1  H23B 7055   0.067   4.626   8.773 -0.0297  2.4546  2.1028
   62CHL1   C24 7056   0.150   4.735   8.608 -0.1780  0.0194  0.5808
   62CHL1  H24A 7057   0.072   4.813   8.619  1.3335  1.5977  0.4848
   62CHL1  H24B 7058   0.246   4.790   8.601 -1.0163  1.4496 -0.2451
   62CHL1   C25 7059   0.122   4.660   8.466 -0.2386  0.0893 -0.3216
   62CHL1   H25 7060   0.205   4.593   8.434 -0.2010  1.3342 -3.0845
   62CHL1   C26 7061  -0.005   4.575   8.476  0.0974  0.1018  0.0813
   62CHL1  H26A 7062  -0.089   4.647   8.476  0.9878  1.1701  0.2894
   62CHL1  H26B 7063  -0.014   4.495   8.399 -0.2299 -0.4389  0.6710
   62CHL1  H26C 7064   0.004   4.520   8.573  3.4260 -0.6805 -0.5461
   62CHL1   C27 7065   0.109   4.757   8.347  0.0726 -0.2781  0.3268
   62CHL1  H27A 7066   0.199   4.821   8.335 -0.0920 -0.1963 -0.4778
   62CHL1  H27B 7067   0.088   4.705   8.251 -3.3753  0.3116  0.6338
   62CHL1  H27C 7068   0.026   4.829   8.364  0.5180  1.7706 -4.6742
   63CHL1    C3 7069   1.473   5.923  10.175 -0.5000  0.4688 -0.3336
   63CHL1    H3 7070   1.536   5.857  10.112  0.6570  1.4623 -0.2646
   63CHL1    O3 7071   1.457   5.879  10.311  0.0356 -0.0694  0.6584
   63CHL1   H3' 7072   1.365   5.858  10.328 -0.5027  0.7275 -1.0811
   63CHL1    C4 7073   1.530   6.065  10.182  0.0206 -0.3745  0.1932
   63CHL1   H4A 7074   1.480   6.122  10.263  1.6148  0.4039  0.6757
   63CHL1   H4B 7075   1.635   6.047  10.213 -0.1145 -1.6562 -0.0384
   63CHL1    C5 7076   1.532   6.145  10.055  0.3954 -0.3402 -0.0910
   63CHL1    C6 7077   1.638   6.207  10.011 -0.3194  0.4402 -0.9982
   63CHL1    H6 7078   1.732   6.196  10.068 -0.9959 -0.9456 -0.0834
   63CHL1    C7 7079   1.636   6.284   9.888  0.7243  0.4953  0.4427
   63CHL1   H7A 7080   1.679   6.386   9.904 -2.0873  1.8717 -0.1677
   63CHL1   H7B 7081   1.694   6.227   9.813  3.9216  1.3961  2.0511
   63CHL1    C8 7082   1.496   6.331   9.842 -0.1558 -0.0302 -0.1138
   63CHL1    H8 7083   1.466   6.418   9.904  0.9901  0.4406 -0.1861
   63CHL1   C14 7084   1.508   6.373   9.697 -0.4556 -0.1985 -0.8083
   63CHL1   H14 7085   1.529   6.279   9.642  0.0802  0.3036 -1.4948
   63CHL1   C15 7086   1.623   6.470   9.662  1.2388 -0.8406  0.5835
   63CHL1  H15A 7087   1.629   6.560   9.727 -0.9714 -0.6440  0.6058
   63CHL1  H15B 7088   1.725   6.428   9.667  2.1621  0.7663 -2.2156
   63CHL1   C16 7089   1.597   6.504   9.516  0.8357 -0.3704  0.1273
   63CHL1  H16A 7090   1.598   6.615   9.516  1.4815 -0.3273  2.2692
   63CHL1  H16B 7091   1.674   6.455   9.453 -0.6484  0.5937 -2.5650
   63CHL1   C17 7092   1.454   6.449   9.487  0.1499 -0.7343 -0.2108
   63CHL1   H17 7093   1.479   6.348   9.448 -0.7993 -2.2178  2.7080
   63CHL1   C13 7094   1.384   6.419   9.628  0.2366  0.4451  0.6362
   63CHL1   C18 7095   1.324   6.548   9.686 -0.0388  0.4455 -0.0743
   63CHL1  H18A 7096   1.394   6.634   9.695  1.7179 -0.7018 -1.9508
   63CHL1  H18B 7097   1.237   6.580   9.624  1.2768  2.9102 -0.7929
   63CHL1  H18C 7098   1.279   6.518   9.783  0.4578  0.2503  0.0985
   63CHL1   C12 7099   1.273   6.306   9.626 -0.4249 -0.1259 -0.5641
   63CHL1  H12A 7100   1.179   6.345   9.581 -1.1246 -1.5882 -0.4246
   63CHL1  H12B 7101   1.302   6.222   9.559 -0.4567 -0.7918  0.2501
   63CHL1   C11 7102   1.262   6.249   9.774  0.2981  0.0337  0.4981
   63CHL1  H11A 7103   1.205   6.323   9.834  0.1834  3.1650 -3.0420
   63CHL1  H11B 7104   1.197   6.160   9.759 -0.7909  0.4193  2.5893
   63CHL1    C9 7105   1.399   6.216   9.848 -0.9142 -0.3222 -0.0747
   63CHL1    H9 7106   1.445   6.141   9.781  0.7201 -0.8427  1.5158
   63CHL1   C10 7107   1.393   6.152   9.986  0.1685 -0.4331 -0.7218
   63CHL1   C19 7108   1.302   6.236  10.080  0.1238 -0.7148  1.6388
   63CHL1  H19A 7109   1.201   6.229  10.036  1.0543 -0.2200 -0.7297
   63CHL1  H19B 7110   1.307   6.201  10.186  1.6590  1.1018  2.2483
   63CHL1  H19C 7111   1.332   6.343  10.082  1.3808 -0.9830 -0.3329
   63CHL1    C1 7112   1.350   6.006   9.976  0.1565 -0.3274  0.0426
   63CHL1   H1A 7113   1.247   5.982   9.943  0.6120 -3.9707  0.8061
   63CHL1   H1B 7114   1.414   5.953   9.902 -0.7214  0.6306 -1.4448
   63CHL1    C2 7115   1.334   5.935  10.114  0.1344  0.0347  0.8293
   63CHL1   H2A 7116   1.300   5.830  10.106 -0.7044  0.2071  1.8321
   63CHL1   H2B 7117   1.254   5.987  10.172 -2.1595  1.4656 -3.2266
   63CHL1   C20 7118   1.372   6.527   9.384 -0.1551  0.1461 -0.3560
   63CHL1   H20 7119   1.330   6.620   9.428  0.2397 -0.4635  1.4016
   63CHL1   C21 7120   1.247   6.441   9.344  0.1099  0.2265 -0.2065
   63CHL1  H21A 7121   1.274   6.333   9.338 -4.1281 -1.0014 -0.2890
   63CHL1  H21B 7122   1.214   6.472   9.242 -0.5578 -1.3389 -0.4959
   63CHL1  H21C 7123   1.156   6.446   9.407  0.2876 -1.5199  0.2410
   63CHL1   C22 7124   1.436   6.576   9.250 -0.3047 -0.3093  0.4215
   63CHL1  H22A 7125   1.361   6.624   9.184  0.4709  2.4800  1.4206
   63CHL1  H22B 7126   1.517   6.648   9.274 -0.5582 -0.4437  1.8024
   63CHL1   C23 7127   1.500   6.460   9.165 -0.6127  0.1384 -0.4477
   63CHL1  H23A 7128   1.592   6.431   9.219 -0.2825  2.0172  0.0674
   63CHL1  H23B 7129   1.435   6.370   9.170  0.1602 -0.3620  2.1216
   63CHL1   C24 7130   1.538   6.517   9.030  0.8156 -0.2112  1.1238
   63CHL1  H24A 7131   1.446   6.546   8.975  0.3883 -3.2693  0.0080
   63CHL1  H24B 7132   1.593   6.613   9.047 -0.7656  0.9757 -0.1863
   63CHL1   C25 7133   1.623   6.429   8.929  0.3538  0.1978  0.0479
   63CHL1   H25 7134   1.713   6.399   8.986 -0.4395 -0.3864  1.0258
   63CHL1   C26 7135   1.543   6.295   8.893 -0.2823 -0.5129 -0.2429
   63CHL1  H26A 7136   1.548   6.229   8.982 -0.4597 -1.2652 -0.7843
   63CHL1  H26B 7137   1.440   6.324   8.864  1.0009  2.2869 -2.6822
   63CHL1  H26C 7138   1.591   6.245   8.806 -0.9488 -0.1440 -0.8327
   63CHL1   C27 7139   1.655   6.504   8.799 -0.1024 -0.2968 -0.2711
   63CHL1  H27A 7140   1.700   6.604   8.816  1.1781  0.2018 -5.1271
   63CHL1  H27B 7141   1.728   6.440   8.745 -1.1341 -2.4693  0.7576
   63CHL1  H27C 7142   1.569   6.520   8.730  1.4360  0.8700 -2.0261
   64CHL1    C3 7143   6.819   5.820  10.035  1.5663  0.3655  0.0703
   64CHL1    H3 7144   6.770   5.919  10.025 -2.1535 -1.1008  1.6249
   64CHL1    O3 7145   6.822   5.789  10.174  0.7318  0.1469 -0.1178
   64CHL1   H3' 7146   6.914   5.805  10.198  0.5841 -1.2380  1.4827
   64CHL1    C4 7147   6.729   5.722   9.963  0.7767  0.5353 -0.4107
   64CHL1   H4A 7148   6.765   5.619   9.984  1.0914  0.8400  0.6206
   64CHL1   H4B 7149   6.627   5.720  10.007  0.6455  0.8834 -0.6959
   64CHL1    C5 7150   6.726   5.735   9.813  0.3545  0.2925 -0.0552
   64CHL1    C6 7151   6.608   5.736   9.753 -0.4100  0.5670  0.0962
   64CHL1    H6 7152   6.513   5.736   9.810 -0.8489  1.2416 -0.6143
   64CHL1    C7 7153   6.594   5.761   9.609  0.8328  0.3809 -0.1819
   64CHL1   H7A 7154   6.517   5.693   9.567  0.7568 -0.5612  1.3860
   64CHL1   H7B 7155   6.574   5.869   9.592 -0.7314  0.0019 -0.9543
   64CHL1    C8 7156   6.724   5.740   9.520 -0.8116 -0.3287  0.8271
   64CHL1    H8 7157   6.745   5.632   9.508 -1.3660 -0.5283  1.6024
   64CHL1   C14 7158   6.709   5.815   9.379  0.0821  0.6165 -0.2179
   64CHL1   H14 7159   6.688   5.924   9.394 -2.2237  1.1669 -5.1094
   64CHL1   C15 7160   6.597   5.768   9.277 -0.2514  0.5410 -0.4384
   64CHL1  H15A 7161   6.608   5.658   9.264 -2.0155  0.2353  0.2656
   64CHL1  H15B 7162   6.497   5.803   9.313  0.4350 -0.4780  2.8342
   64CHL1   C16 7163   6.644   5.819   9.141 -0.3561  0.5030  0.3172
   64CHL1  H16A 7164   6.654   5.734   9.070  1.1813  0.9994 -0.0987
   64CHL1  H16B 7165   6.572   5.895   9.103 -1.4016 -0.6894 -0.1371
   64CHL1   C17 7166   6.782   5.884   9.163 -0.1646 -0.3570  0.2749
   64CHL1   H17 7167   6.761   5.987   9.199  1.5458  0.1525 -0.0789
   64CHL1   C13 7168   6.838   5.818   9.287 -0.3218  0.1794  0.1289
   64CHL1   C18 7169   6.889   5.680   9.252  0.1050  0.2910 -0.3472
   64CHL1  H18A 7170   6.912   5.615   9.339  1.1935  0.2882 -0.6254
   64CHL1  H18B 7171   6.818   5.628   9.183 -0.8420  0.0239  0.7973
   64CHL1  H18C 7172   6.987   5.680   9.201  0.1506 -3.6293 -0.6339
   64CHL1   C12 7173   6.946   5.888   9.370  0.3911  0.3195  0.3702
   64CHL1  H12A 7174   7.042   5.892   9.314 -0.1867 -0.6136 -0.7290
   64CHL1  H12B 7175   6.903   5.989   9.380 -0.5482  0.0428 -0.7251
   64CHL1   C11 7176   6.964   5.827   9.513  0.1461  0.4175 -0.2344
   64CHL1  H11A 7177   7.011   5.727   9.501  1.0585  0.9363 -1.2194
   64CHL1  H11B 7178   7.039   5.888   9.567 -0.2194  0.8229 -0.1802
   64CHL1    C9 7179   6.838   5.812   9.598  0.1652 -0.0379  0.2588
   64CHL1    H9 7180   6.804   5.916   9.618  1.0812 -0.1940  3.0093
   64CHL1   C10 7181   6.862   5.750   9.736 -0.3612  0.6151  0.9471
   64CHL1   C19 7182   6.933   5.612   9.733  0.3830 -0.5199 -0.4158
   64CHL1  H19A 7183   6.887   5.551   9.653 -0.6410  2.0246 -1.9066
   64CHL1  H19B 7184   7.042   5.627   9.719  0.5147 -1.4623 -0.4070
   64CHL1  H19C 7185   6.917   5.562   9.831  0.7189  0.5730  0.2151
   64CHL1    C1 7186   6.954   5.844   9.819  0.7428 -0.0710 -0.6304
   64CHL1   H1A 7187   7.053   5.832   9.770  0.2099 -1.7891 -1.3809
   64CHL1   H1B 7188   6.919   5.945   9.789 -1.2723 -1.2375 -2.5570
   64CHL1    C2 7189   6.956   5.814   9.965  0.0845 -0.1310 -0.2296
   64CHL1   H2A 7190   7.011   5.892  10.021  1.0962 -0.7735 -0.3133
   64CHL1   H2B 7191   7.000   5.715   9.989 -2.1187 -1.2552 -0.5710
   64CHL1   C20 7192   6.853   5.889   9.029 -0.2347 -0.6597 -0.4224
   64CHL1   H20 7193   6.888   5.788   8.998  0.0474 -0.1420 -1.8528
   64CHL1   C21 7194   6.992   5.963   9.041 -0.8462  0.1165 -0.1347
   64CHL1  H21A 7195   7.027   6.014   8.948 -1.2795  3.3099  1.3126
   64CHL1  H21B 7196   7.081   5.900   9.059  0.3750  1.8333  0.1442
   64CHL1  H21C 7197   7.003   6.042   9.119  5.9102  1.9194 -2.2155
   64CHL1   C22 7198   6.774   5.936   8.906  0.8166 -0.6181  0.2396
   64CHL1  H22A 7199   6.833   5.910   8.816  1.7692 -0.5660  0.8340
   64CHL1  H22B 7200   6.681   5.875   8.904  1.0043 -0.8925 -0.3249
   64CHL1   C23 7201   6.750   6.086   8.904 -0.4055 -0.2836  0.3674
   64CHL1  H23A 7202   6.720   6.130   9.002  0.7879  4.2607 -1.0425
   64CHL1  H23B 7203   6.849   6.135   8.890 -0.0490 -1.1177 -0.1608
   64CHL1   C24 7204   6.644   6.142   8.802  0.0957 -0.7423 -0.2671
   64CHL1  H24A 7205   6.685   6.130   8.700  2.6666 -1.7148  0.8055
   64CHL1  H24B 7206   6.552   6.079   8.799 -1.0104  0.6415  1.9390
   64CHL1   C25 7207   6.597   6.287   8.823 -0.6461  0.3277 -0.9807
   64CHL1   H25 7208   6.694   6.335   8.847 -0.3169  0.6572 -2.7988
   64CHL1   C26 7209   6.532   6.337   8.702 -0.1228  0.1214  0.3392
   64CHL1  H26A 7210   6.600   6.340   8.614  0.3619 -1.9789  0.5995
   64CHL1  H26B 7211   6.454   6.263   8.677  0.7225 -0.9659  0.8371
   64CHL1  H26C 7212   6.492   6.441   8.707  1.3524  0.8391 -1.6536
   64CHL1   C27 7213   6.503   6.303   8.947  0.5615 -0.5014  0.0773
   64CHL1  H27A 7214   6.417   6.237   8.924 -0.3105 -0.2563  2.3670
   64CHL1  H27B 7215   6.543   6.269   9.044 -0.2647  0.3339  0.7286
   64CHL1  H27C 7216   6.471   6.407   8.970  1.4796 -0.4479  1.1821
   65CHL1    C3 7217   3.836   2.979  10.017 -0.4802  0.1043 -0.3866
   65CHL1    H3 7218   3.919   2.977   9.943 -0.4968 -0.6362 -0.3941
   65CHL1    O3 7219   3.866   2.889  10.126  0.1577  0.0913  0.5206
   65CHL1   H3' 7220   3.866   2.950  10.201 -2.9369  2.0684 -0.8660
   65CHL1    C4 7221   3.816   3.123  10.072 -0.4510 -0.0323  0.5542
   65CHL1   H4A 7222   3.741   3.130  10.153 -0.9951 -0.9014  0.1444
   65CHL1   H4B 7223   3.914   3.151  10.116  0.2598  0.7597 -1.4209
   65CHL1    C5 7224   3.786   3.228   9.968 -0.7178 -0.2449  0.2892
   65CHL1    C6 7225   3.865   3.339   9.952  0.6301  0.7775 -0.5339
   65CHL1    H6 7226   3.956   3.346  10.014  0.1682  0.0738  0.2358
   65CHL1    C7 7227   3.835   3.442   9.844 -0.0822 -0.3877  0.5477
   65CHL1   H7A 7228   3.833   3.543   9.890  1.2902  0.3119 -0.8102
   65CHL1   H7B 7229   3.912   3.434   9.764 -0.5092  1.6951 -0.1191
   65CHL1    C8 7230   3.692   3.425   9.784 -0.4246  0.6930 -0.7739
   65CHL1    H8 7231   3.626   3.461   9.865 -1.1936 -1.1708 -0.5251
   65CHL1   C14 7232   3.680   3.505   9.652 -0.0422 -0.1431 -0.0427
   65CHL1   H14 7233   3.755   3.453   9.587  0.3807  1.5617 -0.9689
   65CHL1   C15 7234   3.724   3.651   9.662 -0.3223 -0.0299 -0.2500
   65CHL1  H15A 7235   3.675   3.695   9.751  0.5263  1.1201 -0.3207
   65CHL1  H15B 7236   3.831   3.657   9.690 -0.7059  0.5563  1.1796
   65CHL1   C16 7237   3.680   3.710   9.531  0.8275  0.2231 -0.0960
   65CHL1  H16A 7238   3.622   3.803   9.552  1.2817  0.4782  0.0480
   65CHL1  H16B 7239   3.770   3.725   9.468  0.3003  3.1956 -0.2861
   65CHL1   C17 7240   3.583   3.608   9.464 -0.6130  0.4988 -0.6324
   65CHL1   H17 7241   3.652   3.552   9.397  1.5342  2.5343 -0.2469
   65CHL1   C13 7242   3.553   3.500   9.576 -0.9161 -0.5231 -0.3510
   65CHL1   C18 7243   3.440   3.560   9.654 -0.2025  0.3154 -0.1245
   65CHL1  H18A 7244   3.462   3.668   9.666  2.6656  0.0742 -2.2512
   65CHL1  H18B 7245   3.338   3.543   9.613 -0.3363 -2.9970  1.2147
   65CHL1  H18C 7246   3.437   3.516   9.757  1.3980 -1.1000 -0.6339
   65CHL1   C12 7247   3.511   3.356   9.547 -0.7186  0.2379  0.4091
   65CHL1  H12A 7248   3.409   3.363   9.505  0.3463  3.7166 -2.0713
   65CHL1  H12B 7249   3.580   3.313   9.471 -1.1620  0.2524 -0.0024
   65CHL1   C11 7250   3.522   3.264   9.677  0.0918  0.3923 -0.2149
   65CHL1  H11A 7251   3.443   3.297   9.748  0.6265 -0.8497  1.0198
   65CHL1  H11B 7252   3.500   3.157   9.656 -2.0497  0.5404  0.9607
   65CHL1    C9 7253   3.657   3.276   9.753  0.7958  0.5012 -0.6222
   65CHL1    H9 7254   3.731   3.242   9.678  0.4290 -3.0263  0.4355
   65CHL1   C10 7255   3.666   3.186   9.879  0.1302 -0.2616 -0.2143
   65CHL1   C19 7256   3.543   3.214   9.974 -0.1197  0.5806 -0.0922
   65CHL1  H19A 7257   3.548   3.321  10.003  2.6441  0.4317  0.2501
   65CHL1  H19B 7258   3.444   3.201   9.925 -1.3371 -3.2503  2.8566
   65CHL1  H19C 7259   3.552   3.156  10.068  0.6478  0.6491 -0.1186
   65CHL1    C1 7260   3.673   3.038   9.832  0.0229  0.0425 -0.5583
   65CHL1   H1A 7261   3.579   2.996   9.792  0.0471 -2.2663  1.5590
   65CHL1   H1B 7262   3.758   3.032   9.760  0.8029 -0.7948  0.3877
   65CHL1    C2 7263   3.710   2.939   9.949 -0.2311  0.4158  0.0300
   65CHL1   H2A 7264   3.716   2.837   9.906 -1.7978  0.1910  0.2712
   65CHL1   H2B 7265   3.623   2.940  10.018  0.7513  1.8154  1.3133
   65CHL1   C20 7266   3.473   3.669   9.370 -0.1062 -0.0609 -0.4482
   65CHL1   H20 7267   3.392   3.721   9.426  1.5816  2.8000 -0.4632
   65CHL1   C21 7268   3.403   3.565   9.293 -0.0201 -0.7742 -0.6693
   65CHL1  H21A 7269   3.331   3.591   9.212 -1.4705 -2.0849  0.1353
   65CHL1  H21B 7270   3.343   3.500   9.361  0.0512 -0.6831 -0.5188
   65CHL1  H21C 7271   3.475   3.498   9.243 -0.8708 -1.1863 -1.3660
   65CHL1   C22 7272   3.527   3.770   9.271  0.0142 -0.4347  0.5364
   65CHL1  H22A 7273   3.568   3.854   9.331 -1.0659 -0.6982  1.6728
   65CHL1  H22B 7274   3.613   3.716   9.225 -0.6525  0.9113 -2.5062
   65CHL1   C23 7275   3.427   3.817   9.158 -0.2680 -0.6806 -0.4025
   65CHL1  H23A 7276   3.403   3.734   9.088  1.0904 -1.1349 -0.3677
   65CHL1  H23B 7277   3.334   3.843   9.212  0.2818  0.3375  0.0802
   65CHL1   C24 7278   3.467   3.938   9.075 -0.2247  0.3702 -0.5710
   65CHL1  H24A 7279   3.458   4.027   9.140 -0.4102  1.1843 -1.6755
   65CHL1  H24B 7280   3.574   3.943   9.044 -0.4445 -0.0553 -1.4141
   65CHL1   C25 7281   3.372   3.961   8.947 -0.5089 -0.0297 -0.3496
   65CHL1   H25 7282   3.276   3.925   8.989  0.1648 -0.4653  0.8861
   65CHL1   C26 7283   3.365   4.110   8.897  0.7402 -0.2653 -0.4497
   65CHL1  H26A 7284   3.399   4.182   8.974  1.6113 -2.0622  0.9013
   65CHL1  H26B 7285   3.429   4.127   8.808  1.3858  2.6355  0.4530
   65CHL1  H26C 7286   3.260   4.131   8.864  1.1650  0.4827 -1.3811
   65CHL1   C27 7287   3.402   3.865   8.824 -0.8693  0.2893 -0.5216
   65CHL1  H27A 7288   3.512   3.885   8.819 -1.0491  1.8697  0.8602
   65CHL1  H27B 7289   3.377   3.760   8.848  0.5990 -0.0258 -0.2702
   65CHL1  H27C 7290   3.354   3.903   8.731 -0.6617  1.8251 -0.0296
   66CHL1    C3 7291   0.744   0.937  10.627 -0.1199 -0.8403 -0.3149
   66CHL1    H3 7292   0.818   1.020  10.635 -0.4514 -0.1998 -2.8632
   66CHL1    O3 7293   0.694   0.906  10.759 -0.2572  0.4284 -0.2040
   66CHL1   H3' 7294   0.765   0.855  10.800  0.1692  1.7243  0.7460
   66CHL1    C4 7295   0.643   1.013  10.542 -0.0767  0.1452  0.1664
   66CHL1   H4A 7296   0.551   0.952  10.530  0.5897 -0.6258 -1.2289
   66CHL1   H4B 7297   0.603   1.100  10.599 -1.7744 -1.4182  1.5252
   66CHL1    C5 7298   0.694   1.038  10.405 -0.0003 -0.0703 -0.0179
   66CHL1    C6 7299   0.703   1.162  10.365 -0.5237  0.4680  0.0232
   66CHL1    H6 7300   0.672   1.246  10.428  1.1796  1.1644 -0.0092
   66CHL1    C7 7301   0.760   1.195  10.223  1.0752  0.2052 -0.8331
   66CHL1   H7A 7302   0.709   1.280  10.172 -0.3762 -0.9958 -1.4475
   66CHL1   H7B 7303   0.867   1.223  10.226  1.2332 -0.4830  0.9713
   66CHL1    C8 7304   0.761   1.072  10.127 -0.7927  0.1459  0.4900
   66CHL1    H8 7305   0.657   1.042  10.100 -1.5507  1.5020  1.7774
   66CHL1   C14 7306   0.847   1.091  10.002  0.6111  0.0169  0.1730
   66CHL1   H14 7307   0.942   1.135  10.038 -0.6853  2.5042  0.8172
   66CHL1   C15 7308   0.789   1.200   9.913  0.2094  0.4702 -0.3060
   66CHL1  H15A 7309   0.679   1.192   9.923  0.4457 -0.5146  2.3813
   66CHL1  H15B 7310   0.826   1.291   9.966  3.5531 -1.7769  1.6006
   66CHL1   C16 7311   0.850   1.181   9.775  0.3794  0.7446 -0.4335
   66CHL1  H16A 7312   0.767   1.155   9.705  0.0698 -3.5395  1.2402
   66CHL1  H16B 7313   0.911   1.264   9.734  1.5209 -0.4752 -1.2714
   66CHL1   C17 7314   0.938   1.050   9.795  1.3750  0.8463  0.1939
   66CHL1   H17 7315   1.042   1.074   9.827  1.6121 -0.9764  0.8743
   66CHL1   C13 7316   0.871   0.971   9.906 -0.4682 -0.7847 -0.4018
   66CHL1   C18 7317   0.740   0.905   9.860 -0.0115  0.7142 -0.4917
   66CHL1  H18A 7318   0.669   0.967   9.801 -2.4542 -0.3374  1.1604
   66CHL1  H18B 7319   0.766   0.815   9.801 -1.0526  0.3944 -0.4878
   66CHL1  H18C 7320   0.689   0.877   9.955  1.1528  1.5368  0.4070
   66CHL1   C12 7321   0.956   0.874   9.984 -0.4283  0.1130  0.2578
   66CHL1  H12A 7322   0.957   0.780   9.925  0.5905 -0.5773  1.3234
   66CHL1  H12B 7323   1.060   0.914   9.991 -0.8654  1.1910  0.8128
   66CHL1   C11 7324   0.880   0.834  10.111 -0.8146 -0.7774  0.0901
   66CHL1  H11A 7325   0.785   0.781  10.089 -1.5095  0.4952 -0.0735
   66CHL1  H11B 7326   0.945   0.768  10.173 -1.1515 -1.6375 -0.4468
   66CHL1    C9 7327   0.837   0.956  10.200 -0.0006  0.9464 -0.4073
   66CHL1    H9 7328   0.936   0.995  10.231  1.1975 -2.3826  0.3634
   66CHL1   C10 7329   0.753   0.916  10.332 -0.0156 -0.3845  0.4619
   66CHL1   C19 7330   0.637   0.818  10.285 -0.2386  0.5334  0.8229
   66CHL1  H19A 7331   0.558   0.807  10.363 -0.7074 -1.0526  0.1765
   66CHL1  H19B 7332   0.589   0.870  10.199  1.2807 -1.0373 -1.1035
   66CHL1  H19C 7333   0.686   0.722  10.258  0.6787  1.0787  0.5092
   66CHL1    C1 7334   0.852   0.841  10.425 -0.9026  0.5855  0.7012
   66CHL1   H1A 7335   0.889   0.747  10.379 -1.1363  0.1306  1.4237
   66CHL1   H1B 7336   0.944   0.903  10.436 -1.0127  1.0136 -0.6365
   66CHL1    C2 7337   0.800   0.813  10.564  0.0608  0.7630  0.4375
   66CHL1   H2A 7338   0.886   0.775  10.624  0.6775 -0.7137 -1.3029
   66CHL1   H2B 7339   0.728   0.728  10.556  2.4638 -1.3967  0.2276
   66CHL1   C20 7340   0.952   0.976   9.656  0.4570  0.7391  0.2988
   66CHL1   H20 7341   0.856   0.945   9.609  0.0360  1.0568  0.9323
   66CHL1   C21 7342   1.033   0.844   9.656 -0.0955  0.7094 -0.8977
   66CHL1  H21A 7343   0.971   0.756   9.682 -0.9977  0.6582 -3.0393
   66CHL1  H21B 7344   1.116   0.859   9.729  0.8265 -1.3153 -1.4757
   66CHL1  H21C 7345   1.081   0.825   9.558  3.1231  2.1754  0.2346
   66CHL1   C22 7346   1.004   1.064   9.542  0.4458 -0.1101  0.1362
   66CHL1  H22A 7347   0.963   1.166   9.554  0.8831 -0.0981  1.6741
   66CHL1  H22B 7348   1.115   1.064   9.549  0.5865  2.3737 -0.9734
   66CHL1   C23 7349   0.956   1.011   9.404 -0.5354  0.3540  0.0972
   66CHL1  H23A 7350   1.012   0.921   9.372 -0.4586  0.5620 -0.3630
   66CHL1  H23B 7351   0.847   0.991   9.420 -0.0740 -2.5825  0.1062
   66CHL1   C24 7352   0.982   1.114   9.299  0.2640 -0.4183 -0.2390
   66CHL1  H24A 7353   0.911   1.198   9.311  0.3544 -0.5016  0.9990
   66CHL1  H24B 7354   1.090   1.143   9.296  0.1694 -0.0402  0.0118
   66CHL1   C25 7355   0.966   1.072   9.149  0.2676  0.3807 -0.0736
   66CHL1   H25 7356   1.025   0.981   9.123  0.1781  0.7163 -1.5858
   66CHL1   C26 7357   0.823   1.016   9.127 -0.7040  0.4915 -0.4252
   66CHL1  H26A 7358   0.736   1.073   9.168 -0.9462 -1.5569  2.2093
   66CHL1  H26B 7359   0.812   0.978   9.024  0.2001 -4.5285  1.0579
   66CHL1  H26C 7360   0.825   0.920   9.183  2.6558 -0.2083 -1.5094
   66CHL1   C27 7361   1.008   1.178   9.060 -0.0786  0.2745 -0.2368
   66CHL1  H27A 7362   0.944   1.269   9.065  2.3568  2.0286  1.0561
   66CHL1  H27B 7363   1.110   1.219   9.075  1.1788 -1.6928 -2.6838
   66CHL1  H27C 7364   0.990   1.137   8.959  0.4379 -2.3221  0.6412
   67CHL1    C3 7365   6.338   0.720  10.274 -0.2370  0.6322 -0.5513
   67CHL1    H3 7366   6.403   0.634  10.246 -0.2292  1.1020 -2.0455
   67CHL1    O3 7367   6.265   0.686  10.393 -0.3690  0.3116 -0.2167
   67CHL1   H3' 7368   6.329   0.680  10.465 -0.3059 -2.9958 -0.3796
   67CHL1    C4 7369   6.424   0.848  10.304  0.0129  0.0608  0.2950
   67CHL1   H4A 7370   6.350   0.927  10.329  0.2560  0.5014 -0.3585
   67CHL1   H4B 7371   6.496   0.832  10.387  0.5495  0.6070 -0.0524
   67CHL1    C5 7372   6.495   0.901  10.177 -0.6544  0.0058  0.3366
   67CHL1    C6 7373   6.633   0.920  10.169 -0.1404  0.6503 -0.6083
   67CHL1    H6 7374   6.694   0.905  10.260  2.0296 -3.2854 -2.4448
   67CHL1    C7 7375   6.703   0.968  10.050  0.1004  0.0280 -0.0046
   67CHL1   H7A 7376   6.766   1.055  10.081 -1.0072  0.4635  1.0957
   67CHL1   H7B 7377   6.759   0.890   9.995 -0.5741  0.3867 -1.2380
   67CHL1    C8 7378   6.599   1.027   9.955 -0.7641 -0.0616 -0.0180
   67CHL1    H8 7379   6.570   1.129   9.990  0.3930  0.8937 -1.6901
   67CHL1   C14 7380   6.668   1.042   9.824 -0.3236  1.3291  1.2278
   67CHL1   H14 7381   6.688   0.938   9.788  0.2216  2.1508 -1.0670
   67CHL1   C15 7382   6.804   1.104   9.822 -0.1946 -0.3923 -0.1947
   67CHL1  H15A 7383   6.819   1.189   9.892  3.3772 -0.4358 -0.7234
   67CHL1  H15B 7384   6.887   1.038   9.859 -0.1474  0.0652  0.5333
   67CHL1   C16 7385   6.833   1.143   9.675  0.3085 -0.4974  0.2413
   67CHL1  H16A 7386   6.863   1.249   9.687  1.6890 -0.6585 -1.3813
   67CHL1  H16B 7387   6.925   1.093   9.640 -0.2782 -2.3545  1.1704
   67CHL1   C17 7388   6.690   1.122   9.601 -0.5597  0.5814 -0.0955
   67CHL1   H17 7389   6.710   1.021   9.560  0.6866  0.9682 -0.5085
   67CHL1   C13 7390   6.584   1.108   9.711  0.8202 -0.0547  0.0184
   67CHL1   C18 7391   6.535   1.253   9.744  0.8956 -0.4505 -1.1718
   67CHL1  H18A 7392   6.482   1.314   9.667 -1.0601 -0.5895 -0.0276
   67CHL1  H18B 7393   6.463   1.247   9.829  0.8626  0.6028 -1.1033
   67CHL1  H18C 7394   6.629   1.302   9.775  2.1477 -2.8942 -0.8977
   67CHL1   C12 7395   6.467   1.013   9.679 -0.0245  0.5657 -0.3889
   67CHL1  H12A 7396   6.400   1.061   9.604  0.3062  3.3802  1.0024
   67CHL1  H12B 7397   6.502   0.926   9.619  2.2279  0.0784  1.5388
   67CHL1   C11 7398   6.388   0.975   9.803  0.4924 -0.4730 -0.6144
   67CHL1  H11A 7399   6.323   1.064   9.818  1.9072  0.4074  0.4782
   67CHL1  H11B 7400   6.317   0.892   9.782 -0.4008  0.1891 -0.2504
   67CHL1    C9 7401   6.477   0.939   9.931 -0.0381  0.1400 -0.6870
   67CHL1    H9 7402   6.517   0.836   9.915 -0.7243 -0.2615  0.0847
   67CHL1   C10 7403   6.399   0.930  10.062  0.6164  0.2571 -0.8623
   67CHL1   C19 7404   6.321   1.058  10.074 -0.3141  0.3406 -0.4275
   67CHL1  H19A 7405   6.392   1.144  10.074  0.8260 -0.5120  1.9618
   67CHL1  H19B 7406   6.231   1.071  10.010 -0.7283 -0.8400 -0.1067
   67CHL1  H19C 7407   6.276   1.063  10.176  0.8362 -1.5755  0.2117
   67CHL1    C1 7408   6.304   0.808  10.041 -0.2783  0.3283  0.3664
   67CHL1   H1A 7409   6.226   0.847   9.972 -0.5488 -1.9093 -0.6880
   67CHL1   H1B 7410   6.363   0.731   9.986 -1.8878 -1.8918  1.5743
   67CHL1    C2 7411   6.240   0.748  10.166 -0.2734  0.2028 -0.0019
   67CHL1   H2A 7412   6.174   0.662  10.140 -2.2510  1.8037 -0.5390
   67CHL1   H2B 7413   6.176   0.828  10.208 -1.1129 -1.2958  1.7211
   67CHL1   C20 7414   6.660   1.202   9.478  0.2818 -0.5915 -0.1261
   67CHL1   H20 7415   6.656   1.310   9.501 -1.4245 -0.8489  0.9411
   67CHL1   C21 7416   6.532   1.159   9.395 -0.1093 -0.1808 -0.8603
   67CHL1  H21A 7417   6.552   1.052   9.375 -1.0808 -0.7747  1.0250
   67CHL1  H21B 7418   6.523   1.220   9.303 -2.4584 -1.8101 -1.7967
   67CHL1  H21C 7419   6.440   1.173   9.455  0.7594 -0.5120  0.6113
   67CHL1   C22 7420   6.783   1.198   9.376 -0.3029  0.7488  0.3440
   67CHL1  H22A 7421   6.877   1.221   9.431  0.7626 -1.2820 -0.4977
   67CHL1  H22B 7422   6.804   1.096   9.338  0.2233  1.1102 -0.3463
   67CHL1   C23 7423   6.761   1.292   9.257  0.2654  0.5419 -0.4314
   67CHL1  H23A 7424   6.684   1.240   9.196 -1.0169 -1.1204  2.4085
   67CHL1  H23B 7425   6.726   1.396   9.277  0.1856  0.1093  2.0630
   67CHL1   C24 7426   6.893   1.318   9.183  0.0232  0.2157  0.2938
   67CHL1  H24A 7427   6.947   1.392   9.246 -0.4808 -1.3461  2.7076
   67CHL1  H24B 7428   6.954   1.226   9.185 -0.4861 -0.2430 -2.4862
   67CHL1   C25 7429   6.870   1.364   9.032  0.9574 -0.2248  0.0174
   67CHL1   H25 7430   6.818   1.281   8.979 -2.7946  2.1184 -0.3371
   67CHL1   C26 7431   6.795   1.495   9.022 -0.5850 -0.4469 -0.0981
   67CHL1  H26A 7432   6.790   1.536   8.919  3.0053 -0.1973 -0.3205
   67CHL1  H26B 7433   6.690   1.473   9.051 -1.6709 -0.4357 -3.5835
   67CHL1  H26C 7434   6.846   1.571   9.086 -1.6659  0.2607 -0.0604
   67CHL1   C27 7435   7.005   1.387   8.961 -0.1152 -0.1656 -0.6999
   67CHL1  H27A 7436   6.987   1.452   8.872 -0.9740 -0.8613 -1.0533
   67CHL1  H27B 7437   7.085   1.439   9.017  0.9189 -0.4670 -1.8634
   67CHL1  H27C 7438   7.053   1.295   8.922 -0.3449 -1.6780  2.3494
   68CHL1    C3 7439   3.213   2.187  10.301  0.0746  0.7912  0.1065
   68CHL1    H3 7440   3.317   2.182  10.264  0.0954  0.6756  0.1815
   68CHL1    O3 7441   3.204   2.214  10.435  0.3165  0.1414  0.3691
   68CHL1   H3' 7442   3.121   2.172  10.459  0.0258  1.4136  1.7225
   68CHL1    C4 7443   3.158   2.304  10.216  0.0700 -0.0414 -0.2332
   68CHL1   H4A 7444   3.056   2.334  10.248  0.3358  1.9341 -1.1364
   68CHL1   H4B 7445   3.222   2.391  10.239  0.5095 -0.7648  1.4550
   68CHL1    C5 7446   3.167   2.267  10.064 -0.4003 -0.0515 -0.6462
   68CHL1    C6 7447   3.223   2.353   9.975  0.0054  0.0936 -0.0807
   68CHL1    H6 7448   3.275   2.442  10.012  1.6901 -1.0286  0.3462
   68CHL1    C7 7449   3.227   2.328   9.828  1.1582 -0.7868 -0.0879
   68CHL1   H7A 7450   3.194   2.414   9.767  1.9319 -0.6508 -0.3303
   68CHL1   H7B 7451   3.331   2.298   9.801  0.6956 -1.8559 -0.7314
   68CHL1    C8 7452   3.132   2.211   9.789 -0.3821  0.0127 -0.4379
   68CHL1    H8 7453   3.028   2.244   9.770 -0.8516 -1.7272 -1.1039
   68CHL1   C14 7454   3.167   2.164   9.652 -0.5849  0.0119  0.3106
   68CHL1   H14 7455   3.274   2.133   9.661  0.2506  2.9514  1.9123
   68CHL1   C15 7456   3.190   2.268   9.539 -0.3821  1.0040  0.0059
   68CHL1  H15A 7457   3.131   2.361   9.555  0.2512  1.5301 -0.6328
   68CHL1  H15B 7458   3.295   2.306   9.534 -0.4508  1.0918 -1.1298
   68CHL1   C16 7459   3.171   2.187   9.412 -0.6456 -0.2361  0.2228
   68CHL1  H16A 7460   3.078   2.232   9.370  0.6840  1.0595 -1.4781
   68CHL1  H16B 7461   3.253   2.189   9.337 -1.0874  0.9976 -0.2466
   68CHL1   C17 7462   3.146   2.037   9.447 -0.4636 -0.9223 -0.4602
   68CHL1   H17 7463   3.244   1.987   9.463 -0.0499 -0.2354 -0.8135
   68CHL1   C13 7464   3.082   2.046   9.587 -0.1130 -0.7851 -0.6597
   68CHL1   C18 7465   2.931   2.093   9.577 -0.0421 -0.9039  0.4186
   68CHL1  H18A 7466   2.913   2.180   9.510 -1.0644 -0.4665  1.2251
   68CHL1  H18B 7467   2.870   2.009   9.538 -0.5559 -0.9256  1.2428
   68CHL1  H18C 7468   2.884   2.119   9.675  1.1555 -1.8734  1.2832
   68CHL1   C12 7469   3.100   1.930   9.682 -0.0868 -0.0037  0.3177
   68CHL1  H12A 7470   3.034   1.850   9.644 -2.1906  1.3257  0.9972
   68CHL1  H12B 7471   3.207   1.901   9.687  0.0186  0.4962  1.2498
   68CHL1   C11 7472   3.057   1.972   9.828 -0.5043  0.3448 -0.3054
   68CHL1  H11A 7473   2.948   1.995   9.829 -0.3727  1.0241  0.8524
   68CHL1  H11B 7474   3.087   1.889   9.895 -1.8845  0.9426  1.1250
   68CHL1    C9 7475   3.137   2.094   9.883 -0.0450 -0.7733  0.3304
   68CHL1    H9 7476   3.240   2.053   9.881  0.2173 -0.1094 -0.0826
   68CHL1   C10 7477   3.104   2.131  10.028 -0.2733  0.0861 -0.2118
   68CHL1   C19 7478   2.948   2.150  10.049  0.0172 -0.0456 -0.0205
   68CHL1  H19A 7479   2.893   2.057  10.025  0.0311 -0.5698  1.8309
   68CHL1  H19B 7480   2.921   2.186  10.151  0.4292  0.4275 -0.0737
   68CHL1  H19C 7481   2.906   2.228   9.982  1.2682  0.8988  0.2533
   68CHL1    C1 7482   3.146   2.011  10.125  0.0989  0.5370 -0.4366
   68CHL1   H1A 7483   3.084   1.921  10.104  0.2915  0.3668 -0.2842
   68CHL1   H1B 7484   3.252   1.980  10.112  0.1435 -0.5522  1.9725
   68CHL1    C2 7485   3.142   2.058  10.269  0.1345 -0.1479  0.4956
   68CHL1   H2A 7486   3.184   1.980  10.336 -0.3972 -0.5737  0.3370
   68CHL1   H2B 7487   3.034   2.069  10.292  0.2053  1.7741  0.0660
   68CHL1   C20 7488   3.072   1.953   9.346 -0.0036 -0.0105  1.0634
   68CHL1   H20 7489   2.974   1.914   9.381 -1.6163  3.1172  0.3876
   68CHL1   C21 7490   3.139   1.813   9.337  0.7913  0.5467  0.2592
   68CHL1  H21A 7491   3.247   1.817   9.310  0.3876 -0.9101 -1.7578
   68CHL1  H21B 7492   3.093   1.744   9.264  1.3090 -1.3931  1.6925
   68CHL1  H21C 7493   3.107   1.765   9.432  0.0218 -1.5730 -1.0169
   68CHL1   C22 7494   3.070   2.000   9.201  0.3323 -0.2751  0.6070
   68CHL1  H22A 7495   3.021   2.099   9.210  0.0407 -0.2019 -1.2542
   68CHL1  H22B 7496   3.172   2.024   9.164  0.4383  1.0102  1.6844
   68CHL1   C23 7497   2.981   1.925   9.092  0.2277  0.8367  0.2284
   68CHL1  H23A 7498   3.026   1.823   9.085  1.3629  1.3412  0.0772
   68CHL1  H23B 7499   2.878   1.919   9.135 -0.0677 -2.1379 -0.6167
   68CHL1   C24 7500   2.988   2.004   8.963 -0.3696 -0.3238  0.6644
   68CHL1  H24A 7501   2.941   2.103   8.980 -0.6549 -0.4765  0.7809
   68CHL1  H24B 7502   3.092   2.035   8.941 -0.3361 -1.4940 -1.1308
   68CHL1   C25 7503   2.950   1.932   8.841  0.0236  0.2824  0.4304
   68CHL1   H25 7504   3.017   1.843   8.843  4.7084  3.4550  0.7636
   68CHL1   C26 7505   2.810   1.875   8.831 -0.0945 -0.1929 -0.1519
   68CHL1  H26A 7506   2.790   1.834   8.729  1.1402  0.6435 -0.7567
   68CHL1  H26B 7507   2.801   1.790   8.902 -0.8989  0.0226  0.0073
   68CHL1  H26C 7508   2.736   1.951   8.862  1.1641  1.0543 -0.1091
   68CHL1   C27 7509   2.985   2.016   8.719 -0.2493 -0.5046  0.3435
   68CHL1  H27A 7510   3.083   2.067   8.726 -0.9390  1.2526 -1.6774
   68CHL1  H27B 7511   2.996   1.959   8.624 -0.3075 -0.9165  0.5816
   68CHL1  H27C 7512   2.917   2.104   8.712  0.4885  0.5441  4.2794
   69CHL1    C3 7513   3.810   1.149   6.587 -0.0200 -0.0366  0.8256
   69CHL1    H3 7514   3.897   1.082   6.571  1.5029  1.8102  0.9508
   69CHL1    O3 7515   3.773   1.204   6.464 -0.1152  0.3187  0.0669
   69CHL1   H3' 7516   3.693   1.245   6.498 -1.4062 -1.1718 -0.9959
   69CHL1    C4 7517   3.686   1.080   6.640  0.2787 -0.0632  0.4359
   69CHL1   H4A 7518   3.593   1.140   6.637 -0.2613 -0.6889  2.6303
   69CHL1   H4B 7519   3.672   0.999   6.566  0.9192  2.7560 -3.0495
   69CHL1    C5 7520   3.715   1.031   6.774 -0.5730  0.7777 -0.1868
   69CHL1    C6 7521   3.695   0.896   6.802  0.1664 -0.4003  0.3479
   69CHL1    H6 7522   3.655   0.821   6.733 -0.6451  1.2789 -1.0916
   69CHL1    C7 7523   3.706   0.839   6.947 -0.3365 -0.0242 -0.6218
   69CHL1   H7A 7524   3.615   0.780   6.968  0.1968 -1.2170 -1.5229
   69CHL1   H7B 7525   3.797   0.775   6.951 -0.1572  0.2271 -0.6043
   69CHL1    C8 7526   3.723   0.951   7.059 -0.3682  0.7533  0.8987
   69CHL1    H8 7527   3.626   0.998   7.084 -0.8880  0.1821 -0.0042
   69CHL1   C14 7528   3.794   0.885   7.178 -0.2889 -0.9715 -0.0944
   69CHL1   H14 7529   3.896   0.848   7.151 -0.2198 -0.0459 -1.1439
   69CHL1   C15 7530   3.728   0.754   7.233  0.4984 -0.0042 -0.2627
   69CHL1  H15A 7531   3.618   0.768   7.238  0.6443  1.3248 -0.5211
   69CHL1  H15B 7532   3.746   0.662   7.174  0.8966 -1.8856  2.5678
   69CHL1   C16 7533   3.787   0.754   7.375  0.3908 -0.0296  0.1255
   69CHL1  H16A 7534   3.707   0.755   7.452  2.3051 -1.0382  2.2393
   69CHL1  H16B 7535   3.848   0.663   7.394  2.8913  1.5531  0.0995
   69CHL1   C17 7536   3.875   0.883   7.399 -0.2566 -0.6168  0.5043
   69CHL1   H17 7537   3.978   0.867   7.360  0.2573  3.0263 -0.0657
   69CHL1   C13 7538   3.818   0.979   7.292  0.2466  0.2914 -0.4837
   69CHL1   C18 7539   3.686   1.041   7.347  0.1039 -0.0485  0.3880
   69CHL1  H18A 7540   3.630   0.965   7.405  1.5096 -1.4684 -0.0573
   69CHL1  H18B 7541   3.708   1.123   7.418  1.4664 -0.8643  0.9316
   69CHL1  H18C 7542   3.606   1.070   7.275 -0.6173 -0.6464  0.9342
   69CHL1   C12 7543   3.921   1.079   7.241  0.1859 -0.3443  0.5448
   69CHL1  H12A 7544   3.954   1.163   7.307  1.0099  1.7801 -2.3704
   69CHL1  H12B 7545   4.006   1.017   7.208  0.0279 -0.3181  0.0819
   69CHL1   C11 7546   3.872   1.155   7.112 -0.4109  0.0043 -0.1854
   69CHL1  H11A 7547   3.788   1.222   7.141 -0.6217 -0.5759  0.5997
   69CHL1  H11B 7548   3.954   1.217   7.070  2.7778 -3.5809  0.1113
   69CHL1    C9 7549   3.820   1.055   7.004 -0.6300 -0.0127  0.0002
   69CHL1    H9 7550   3.910   0.997   6.976 -0.6924 -0.2586  0.3074
   69CHL1   C10 7551   3.767   1.126   6.879 -0.7770 -0.3407  0.0986
   69CHL1   C19 7552   3.640   1.203   6.912 -0.0418 -0.1281 -0.8198
   69CHL1  H19A 7553   3.560   1.139   6.952 -1.1467  1.9013  0.3538
   69CHL1  H19B 7554   3.650   1.287   6.983 -1.9885  0.0917 -0.7601
   69CHL1  H19C 7555   3.591   1.246   6.822 -2.8229 -3.4616 -1.1030
   69CHL1    C1 7556   3.874   1.221   6.815 -0.0398 -0.1107 -0.3925
   69CHL1   H1A 7557   3.896   1.310   6.878 -0.9894 -1.3147  1.7604
   69CHL1   H1B 7558   3.973   1.172   6.807  0.4543  0.5964  1.0023
   69CHL1    C2 7559   3.849   1.266   6.672 -0.4508 -0.2249  0.2430
   69CHL1   H2A 7560   3.944   1.309   6.635  0.2837 -1.9102  0.1056
   69CHL1   H2B 7561   3.766   1.339   6.685 -0.5364 -0.3582  0.4605
   69CHL1   C20 7562   3.886   0.929   7.545 -0.0055  0.1210  0.2396
   69CHL1   H20 7563   3.783   0.957   7.577 -0.3487  1.1672 -1.6155
   69CHL1   C21 7564   3.987   1.041   7.554 -0.8372  0.4030  0.1987
   69CHL1  H21A 7565   3.940   1.140   7.541 -0.6587  0.3620 -0.8767
   69CHL1  H21B 7566   4.063   1.037   7.474 -2.5589 -2.5629 -1.5026
   69CHL1  H21C 7567   4.043   1.033   7.650 -0.1608  0.1267 -0.2117
   69CHL1   C22 7568   3.947   0.815   7.632  0.2949  0.0104 -0.3746
   69CHL1  H22A 7569   3.894   0.721   7.606  0.1845  0.2677 -1.0926
   69CHL1  H22B 7570   4.054   0.801   7.606  0.4151  3.5797 -2.5051
   69CHL1   C23 7571   3.931   0.834   7.784  0.4741  0.2564  0.2964
   69CHL1  H23A 7572   3.979   0.927   7.819 -0.1839  0.5961  0.3130
   69CHL1  H23B 7573   3.825   0.845   7.814  0.2500  2.7744 -1.1460
   69CHL1   C24 7574   3.988   0.724   7.871  0.0095 -0.9604 -0.0433
   69CHL1  H24A 7575   3.927   0.632   7.862  2.2168 -2.4297 -1.0075
   69CHL1  H24B 7576   4.089   0.690   7.841  1.1759 -0.1688  2.6256
   69CHL1   C25 7577   4.000   0.753   8.023 -0.0129 -0.3226 -0.7963
   69CHL1   H25 7578   4.059   0.846   8.030  0.9910 -0.9952 -0.0471
   69CHL1   C26 7579   3.872   0.784   8.097  0.0027 -0.4711  0.4655
   69CHL1  H26A 7580   3.887   0.825   8.199 -0.6053 -1.0919  0.8081
   69CHL1  H26B 7581   3.812   0.864   8.047  0.8152 -0.9292 -1.3074
   69CHL1  H26C 7582   3.799   0.701   8.103 -0.7197  0.1667  0.7557
   69CHL1   C27 7583   4.066   0.627   8.090  0.2983 -0.4997 -0.6964
   69CHL1  H27A 7584   3.979   0.575   8.135  0.2173  0.4356  0.2638
   69CHL1  H27B 7585   4.117   0.562   8.015  2.0556 -1.4504  1.2301
   69CHL1  H27C 7586   4.148   0.645   8.163  0.6055 -2.3329 -0.5400
   70CHL1    C3 7587   3.112   5.347   7.016 -0.3320 -0.0236 -0.1928
   70CHL1    H3 7588   3.085   5.240   7.022 -0.3276 -0.0985 -1.3004
   70CHL1    O3 7589   3.033   5.400   6.910  0.3206 -0.2982 -0.2379
   70CHL1   H3' 7590   3.026   5.328   6.846 -1.5652 -0.1059 -0.2916
   70CHL1    C4 7591   3.070   5.416   7.147 -0.5376 -0.1163 -0.6775
   70CHL1   H4A 7592   3.078   5.526   7.136 -1.4105  0.4347  2.9423
   70CHL1   H4B 7593   2.961   5.400   7.161 -0.5845  1.6259  1.4619
   70CHL1    C5 7594   3.161   5.382   7.266  0.5486 -0.4085  0.5685
   70CHL1    C6 7595   3.109   5.339   7.382  0.2511 -0.0513 -0.9707
   70CHL1    H6 7596   3.000   5.343   7.396  0.3758 -0.5878  0.2963
   70CHL1    C7 7597   3.186   5.332   7.512  0.6184  0.0701 -0.8877
   70CHL1   H7A 7598   3.129   5.370   7.599 -2.7253 -0.1486 -2.8392
   70CHL1   H7B 7599   3.209   5.225   7.531 -0.1795 -0.1036 -0.8747
   70CHL1    C8 7600   3.331   5.390   7.497 -0.0497  0.3116  0.2224
   70CHL1    H8 7601   3.327   5.501   7.498  1.4546  0.3800  0.5917
   70CHL1   C14 7602   3.414   5.332   7.611 -0.2610 -0.7767  0.5556
   70CHL1   H14 7603   3.419   5.223   7.588  0.5812 -0.0369 -3.7347
   70CHL1   C15 7604   3.366   5.361   7.750 -0.0009  0.5689  0.1191
   70CHL1  H15A 7605   3.338   5.468   7.754  0.8545  0.7805  0.7517
   70CHL1  H15B 7606   3.273   5.301   7.760 -0.4787  0.7926 -2.3150
   70CHL1   C16 7607   3.487   5.332   7.832 -0.0267  0.5274 -0.1361
   70CHL1  H16A 7608   3.491   5.422   7.898 -2.5192  0.2043  0.5497
   70CHL1  H16B 7609   3.478   5.253   7.909  1.0902  2.1577  1.7832
   70CHL1   C17 7610   3.608   5.327   7.746  0.3212 -0.2362  1.0983
   70CHL1   H17 7611   3.640   5.223   7.723  0.2564 -0.2664  1.1465
   70CHL1   C13 7612   3.557   5.379   7.611 -0.7272  0.4450 -0.0926
   70CHL1   C18 7613   3.569   5.531   7.603 -0.4438 -0.6774  0.0867
   70CHL1  H18A 7614   3.670   5.565   7.571 -1.0945  1.2820 -0.0302
   70CHL1  H18B 7615   3.505   5.568   7.520 -3.3150 -0.0468  2.4319
   70CHL1  H18C 7616   3.545   5.587   7.696 -0.9877  0.0866 -0.4953
   70CHL1   C12 7617   3.621   5.312   7.486 -0.1601  0.5786  0.5333
   70CHL1  H12A 7618   3.728   5.338   7.473 -0.1241 -0.2330 -1.1838
   70CHL1  H12B 7619   3.604   5.203   7.471  3.0673  0.3587 -3.0493
   70CHL1   C11 7620   3.550   5.364   7.359  0.3808  0.2946  0.2341
   70CHL1  H11A 7621   3.577   5.471   7.352 -1.9023  0.8418 -1.2840
   70CHL1  H11B 7622   3.599   5.314   7.273  0.7558  0.0829  0.5658
   70CHL1    C9 7623   3.396   5.346   7.364  0.1858  0.0272  0.5990
   70CHL1    H9 7624   3.386   5.236   7.361 -2.8379  0.2344 -0.3438
   70CHL1   C10 7625   3.313   5.398   7.239 -0.1425  0.1831 -0.6636
   70CHL1   C19 7626   3.356   5.540   7.206 -0.9475  0.1089 -0.1541
   70CHL1  H19A 7627   3.460   5.539   7.166 -1.5437  0.7337 -1.8280
   70CHL1  H19B 7628   3.288   5.591   7.134 -0.8681  1.2338  0.5410
   70CHL1  H19C 7629   3.352   5.604   7.297 -2.4604 -0.5431  0.2639
   70CHL1    C1 7630   3.345   5.317   7.108 -0.1718  0.7148 -0.3218
   70CHL1   H1A 7631   3.455   5.322   7.091  0.3799 -0.9956  2.1313
   70CHL1   H1B 7632   3.315   5.212   7.129  0.3491  0.2101 -1.9486
   70CHL1    C2 7633   3.256   5.350   6.985  0.2495  0.6142  0.4137
   70CHL1   H2A 7634   3.289   5.279   6.906  1.7826 -0.9202  2.3115
   70CHL1   H2B 7635   3.287   5.452   6.953 -1.6534  1.3822  0.9203
   70CHL1   C20 7636   3.731   5.385   7.807 -0.1129  0.1256  0.6405
   70CHL1   H20 7637   3.718   5.495   7.821  1.1094  0.3089  0.4254
   70CHL1   C21 7638   3.850   5.357   7.707  0.1708  0.6414 -0.0528
   70CHL1  H21A 7639   3.841   5.427   7.621  2.2172 -0.5726 -1.3352
   70CHL1  H21B 7640   3.857   5.251   7.677 -1.0130  0.1172  1.4046
   70CHL1  H21C 7641   3.932   5.398   7.770  0.8791  2.0451 -1.7933
   70CHL1   C22 7642   3.766   5.323   7.937 -0.6790  0.5962  0.2281
   70CHL1  H22A 7643   3.678   5.294   8.000 -2.4243  0.0057 -2.3123
   70CHL1  H22B 7644   3.806   5.221   7.917 -3.3897 -0.5141  0.0248
   70CHL1   C23 7645   3.861   5.408   8.017 -0.2479 -0.8245  0.1373
   70CHL1  H23A 7646   3.950   5.443   7.960 -0.6227  1.1062  0.6643
   70CHL1  H23B 7647   3.815   5.504   8.050  1.8638  0.1914  0.3023
   70CHL1   C24 7648   3.917   5.335   8.139  0.7084 -0.0122  0.1984
   70CHL1  H24A 7649   3.832   5.271   8.171 -0.4800  2.1525  1.6211
   70CHL1  H24B 7650   4.004   5.277   8.103  1.9174  2.4588 -1.0618
   70CHL1   C25 7651   3.957   5.438   8.253  0.4354 -0.0746 -0.3124
   70CHL1   H25 7652   3.864   5.495   8.276  0.2366 -0.9371  1.1616
   70CHL1   C26 7653   3.994   5.358   8.381 -0.3686  0.4125 -0.1055
   70CHL1  H26A 7654   4.084   5.295   8.360  0.8572  1.8754  0.5897
   70CHL1  H26B 7655   4.023   5.430   8.460  0.8997  0.2131 -0.3583
   70CHL1  H26C 7656   3.908   5.295   8.412 -1.3726  0.4313 -2.5736
   70CHL1   C27 7657   4.068   5.530   8.214  0.2431  0.1897 -0.0253
   70CHL1  H27A 7658   4.046   5.603   8.133  1.4076  0.2873 -0.2665
   70CHL1  H27B 7659   4.082   5.588   8.307  1.3626 -1.5690  0.9430
   70CHL1  H27C 7660   4.157   5.476   8.176  0.0119 -0.1594 -0.0805
   71CHL1    C3 7661   1.585   6.638   6.925  0.1540 -0.4545  0.5034
   71CHL1    H3 7662   1.660   6.717   6.904 -0.3507  0.2660  1.2878
   71CHL1    O3 7663   1.540   6.563   6.806 -0.5127 -0.2405  0.4498
   71CHL1   H3' 7664   1.473   6.504   6.841 -2.4806  2.1921  1.0751
   71CHL1    C4 7665   1.642   6.537   7.022  0.2254  0.2125  0.7063
   71CHL1   H4A 7666   1.576   6.448   7.030  1.4096 -0.5394  3.4748
   71CHL1   H4B 7667   1.733   6.506   6.966  0.0287 -3.2972  2.0650
   71CHL1    C5 7668   1.664   6.592   7.157 -1.1247 -0.7832 -0.4056
   71CHL1    C6 7669   1.791   6.575   7.216  0.5723  0.2584  0.3148
   71CHL1    H6 7670   1.875   6.530   7.162  0.9204  1.5724 -0.2810
   71CHL1    C7 7671   1.820   6.618   7.360 -0.8525  0.5819  0.5419
   71CHL1   H7A 7672   1.872   6.535   7.412 -0.2114 -0.3690 -1.5153
   71CHL1   H7B 7673   1.885   6.708   7.356  1.5619 -1.0475  0.7918
   71CHL1    C8 7674   1.698   6.655   7.437 -0.0961 -0.0826 -0.3970
   71CHL1    H8 7675   1.643   6.560   7.455  0.2213 -0.5017 -1.5816
   71CHL1   C14 7676   1.737   6.726   7.567 -0.6133  0.0126 -0.1024
   71CHL1   H14 7677   1.789   6.816   7.528 -0.3337  0.6470  1.6378
   71CHL1   C15 7678   1.832   6.646   7.654 -0.2326  0.0693  0.3892
   71CHL1  H15A 7679   1.789   6.544   7.660  1.3184 -0.7380 -1.3519
   71CHL1  H15B 7680   1.939   6.648   7.623 -0.1781  0.1017  0.5777
   71CHL1   C16 7681   1.812   6.708   7.793  0.7697  1.1063 -0.5303
   71CHL1  H16A 7682   1.766   6.629   7.857  1.3028  0.8400 -0.4770
   71CHL1  H16B 7683   1.911   6.747   7.823  1.9605 -1.5586 -0.7312
   71CHL1   C17 7684   1.710   6.830   7.777 -0.0381  0.3196  0.7371
   71CHL1   H17 7685   1.771   6.916   7.742  2.1281 -1.2759  0.3452
   71CHL1   C13 7686   1.620   6.780   7.651 -0.4925  0.9713  0.4886
   71CHL1   C18 7687   1.526   6.665   7.688 -0.0392  0.3644  0.2014
   71CHL1  H18A 7688   1.432   6.690   7.742  0.6187 -1.3251  2.3151
   71CHL1  H18B 7689   1.494   6.608   7.598 -1.8433  0.6076  0.6610
   71CHL1  H18C 7690   1.573   6.588   7.753 -1.3407 -0.8554 -0.2566
   71CHL1   C12 7691   1.547   6.892   7.579  0.1554 -0.1655 -0.0983
   71CHL1  H12A 7692   1.465   6.933   7.642 -1.0661  0.3020 -1.9420
   71CHL1  H12B 7693   1.618   6.972   7.552 -1.7474  1.5863 -0.1140
   71CHL1   C11 7694   1.500   6.828   7.441 -0.5528 -0.4153 -0.0894
   71CHL1  H11A 7695   1.405   6.771   7.456 -0.4652 -0.5170  0.0888
   71CHL1  H11B 7696   1.469   6.918   7.384 -0.9198 -1.6217 -1.8685
   71CHL1    C9 7697   1.611   6.752   7.359  0.5454  0.5152  0.7144
   71CHL1    H9 7698   1.682   6.826   7.316 -0.5599  0.4653 -1.3551
   71CHL1   C10 7699   1.553   6.674   7.226  0.5332  0.0222 -0.4332
   71CHL1   C19 7700   1.446   6.566   7.264 -0.4208  0.2459  0.1879
   71CHL1  H19A 7701   1.487   6.487   7.330  0.7402 -2.7509 -3.8016
   71CHL1  H19B 7702   1.356   6.614   7.311  0.8954  2.8896  0.2145
   71CHL1  H19C 7703   1.410   6.503   7.180 -3.6772  0.7685  1.0318
   71CHL1    C1 7704   1.491   6.770   7.121 -0.4158 -0.3095 -0.4072
   71CHL1   H1A 7705   1.398   6.811   7.165  0.2380  1.6588 -0.7515
   71CHL1   H1B 7706   1.567   6.849   7.100 -1.7503  0.3745 -3.1874
   71CHL1    C2 7707   1.452   6.703   6.987  0.2055  0.1629 -0.7027
   71CHL1   H2A 7708   1.408   6.769   6.909 -0.5116 -0.3446 -0.7410
   71CHL1   H2B 7709   1.376   6.622   7.002 -1.6179  2.0034  0.5127
   71CHL1   C20 7710   1.633   6.871   7.905  0.3384 -0.3346 -0.2027
   71CHL1   H20 7711   1.543   6.808   7.919 -0.5110  1.0050  0.6216
   71CHL1   C21 7712   1.589   7.016   7.889  0.2060  1.0395  0.6105
   71CHL1  H21A 7713   1.527   7.050   7.975 -3.1113 -3.3269  0.2962
   71CHL1  H21B 7714   1.515   7.026   7.807  0.6217  1.1351  0.2443
   71CHL1  H21C 7715   1.673   7.084   7.865 -1.0805  0.9138 -6.0451
   71CHL1   C22 7716   1.717   6.856   8.035  0.2914  0.1178  0.0377
   71CHL1  H22A 7717   1.735   6.747   8.044 -0.1383  0.0245 -0.1995
   71CHL1  H22B 7718   1.812   6.913   8.022  0.1601  0.1821 -0.6485
   71CHL1   C23 7719   1.647   6.896   8.157  0.1896 -0.0330  0.9116
   71CHL1  H23A 7720   1.650   7.006   8.170  0.8978 -0.0349  0.7894
   71CHL1  H23B 7721   1.545   6.850   8.158 -0.0584  0.3964 -0.8751
   71CHL1   C24 7722   1.714   6.846   8.288 -0.2361  0.1946 -0.0609
   71CHL1  H24A 7723   1.720   6.737   8.268 -0.6908  0.0594  0.5010
   71CHL1  H24B 7724   1.820   6.878   8.284 -0.6781  1.8812  0.9747
   71CHL1   C25 7725   1.632   6.867   8.420 -1.0631 -1.3556 -0.8910
   71CHL1   H25 7726   1.529   6.827   8.406 -1.4244  0.1073 -2.8147
   71CHL1   C26 7727   1.697   6.795   8.534  0.0809 -0.1662  0.1157
   71CHL1  H26A 7728   1.795   6.832   8.571  0.2804 -0.4987 -0.0718
   71CHL1  H26B 7729   1.623   6.799   8.617 -1.3710 -1.2458 -1.0581
   71CHL1  H26C 7730   1.722   6.693   8.499  0.4499  1.1189 -3.9258
   71CHL1   C27 7731   1.611   7.020   8.453  0.5064 -0.3396 -0.2177
   71CHL1  H27A 7732   1.707   7.074   8.465 -0.6471  1.5084  1.2961
   71CHL1  H27B 7733   1.552   7.062   8.370  1.6735 -2.4171 -2.2147
   71CHL1  H27C 7734   1.557   7.044   8.547 -0.4797 -1.5273 -0.4534
   72CHL1    C3 7735   1.925   4.805   7.155  0.3184 -0.0497 -0.3517
   72CHL1    H3 7736   2.033   4.781   7.151  0.2604 -0.5290  0.7394
   72CHL1    O3 7737   1.882   4.820   7.023  0.4763 -0.1509  0.0301
   72CHL1   H3' 7738   1.786   4.828   7.020  0.2387 -2.6795 -0.7417
   72CHL1    C4 7739   1.845   4.692   7.220 -0.7785  0.3572 -0.3815
   72CHL1   H4A 7740   1.734   4.702   7.212 -0.6620  1.9893 -0.2803
   72CHL1   H4B 7741   1.865   4.600   7.162  0.0626 -0.5021  1.2345
   72CHL1    C5 7742   1.879   4.689   7.371 -0.0331  0.0487 -0.7968
   72CHL1    C6 7743   1.923   4.569   7.424  0.4572  0.0742 -0.6158
   72CHL1    H6 7744   1.916   4.481   7.359  2.0367 -0.7238  0.2348
   72CHL1    C7 7745   1.936   4.549   7.570  0.2695  0.1656  0.3276
   72CHL1   H7A 7746   1.882   4.460   7.606 -1.1673 -0.0411 -2.1342
   72CHL1   H7B 7747   2.044   4.527   7.584  0.9705  0.0820 -3.8424
   72CHL1    C8 7748   1.896   4.675   7.657 -0.0498  0.6318  0.3465
   72CHL1    H8 7749   1.790   4.655   7.685 -0.0933 -0.2715 -0.4082
   72CHL1   C14 7750   1.972   4.674   7.790  0.3021  0.5992  1.1055
   72CHL1   H14 7751   2.078   4.671   7.756 -0.1122  0.4194 -0.2288
   72CHL1   C15 7752   1.970   4.542   7.880  0.2165  0.8108 -0.8334
   72CHL1  H15A 7753   1.867   4.501   7.882  0.5015 -0.0119  1.9296
   72CHL1  H15B 7754   2.039   4.468   7.833  0.0040  0.2070 -0.2122
   72CHL1   C16 7755   2.018   4.593   8.020 -0.2718 -0.1199  0.0512
   72CHL1  H16A 7756   1.947   4.556   8.096 -1.2042 -1.0264 -1.2128
   72CHL1  H16B 7757   2.120   4.550   8.037 -0.3589 -0.7006 -0.8012
   72CHL1   C17 7758   2.030   4.751   8.006 -0.0965  0.2014 -0.0725
   72CHL1   H17 7759   2.137   4.764   7.981 -0.2531 -0.8653 -1.4106
   72CHL1   C13 7760   1.942   4.786   7.884  0.4432  0.6791 -0.3192
   72CHL1   C18 7761   1.800   4.775   7.939 -0.1771  0.0757 -0.5814
   72CHL1  H18A 7762   1.786   4.869   7.996 -1.2102 -0.4994  0.1320
   72CHL1  H18B 7763   1.717   4.775   7.865  0.1561 -0.9857 -0.9749
   72CHL1  H18C 7764   1.785   4.683   8.000  0.0378 -1.3552 -2.5699
   72CHL1   C12 7765   1.979   4.914   7.810 -0.3020 -0.5482  0.6565
   72CHL1  H12A 7766   1.954   4.999   7.877 -1.8151  1.0163 -1.7674
   72CHL1  H12B 7767   2.090   4.901   7.808 -0.3809 -1.6009  1.7909
   72CHL1   C11 7768   1.902   4.934   7.679  0.6758  0.3535  0.6747
   72CHL1  H11A 7769   1.794   4.923   7.701  0.6905  0.6655  0.9155
   72CHL1  H11B 7770   1.921   5.029   7.625  0.3008 -0.1360 -0.3550
   72CHL1    C9 7771   1.924   4.806   7.582 -0.2631  0.2271 -0.4838
   72CHL1    H9 7772   2.034   4.799   7.571 -0.3081 -1.0717 -0.2669
   72CHL1   C10 7773   1.867   4.821   7.448 -0.1258 -0.0304  0.5425
   72CHL1   C19 7774   1.718   4.866   7.462 -0.8090  0.1389  0.4073
   72CHL1  H19A 7775   1.715   4.968   7.506 -1.6885  0.3197 -0.0374
   72CHL1  H19B 7776   1.656   4.860   7.369 -2.6829 -2.0505  1.6897
   72CHL1  H19C 7777   1.669   4.799   7.536 -1.5905 -0.3000 -0.4765
   72CHL1    C1 7778   1.945   4.928   7.373  0.5324 -0.3063  0.8869
   72CHL1   H1A 7779   1.924   5.029   7.414 -0.6816  0.0425 -0.4687
   72CHL1   H1B 7780   2.051   4.899   7.365  0.0232 -1.7510 -2.1300
   72CHL1    C2 7781   1.901   4.936   7.224  0.0088  0.0280 -0.5023
   72CHL1   H2A 7782   1.965   5.015   7.180  1.7702 -0.1319  1.5906
   72CHL1   H2B 7783   1.798   4.976   7.209 -0.4178 -0.1317  1.6291
   72CHL1   C20 7784   2.000   4.807   8.153 -0.3654 -0.8944  0.7016
   72CHL1   H20 7785   1.895   4.800   8.188 -0.3754 -3.3239  0.3165
   72CHL1   C21 7786   2.030   4.959   8.132  0.3282  0.4909 -0.3046
   72CHL1  H21A 7787   2.055   5.009   8.227 -0.2286 -2.0674  1.2819
   72CHL1  H21B 7788   1.937   5.007   8.094 -1.1260 -1.2312  0.8914
   72CHL1  H21C 7789   2.116   4.985   8.067  0.2582  3.3309  0.6040
   72CHL1   C22 7790   2.096   4.749   8.261  0.1261 -0.3881 -0.1887
   72CHL1  H22A 7791   2.089   4.639   8.250 -0.9845 -0.2338 -1.2037
   72CHL1  H22B 7792   2.199   4.778   8.230  0.7624 -1.6789  0.6080
   72CHL1   C23 7793   2.051   4.790   8.402 -0.2330 -0.0945 -0.8651
   72CHL1  H23A 7794   2.056   4.898   8.430  0.3318 -0.1837 -0.6041
   72CHL1  H23B 7795   1.950   4.747   8.417  0.1175 -1.1133 -1.3745
   72CHL1   C24 7796   2.141   4.711   8.505  0.2254  0.3324  0.3111
   72CHL1  H24A 7797   2.122   4.761   8.602 -3.2959 -0.3602  0.0979
   72CHL1  H24B 7798   2.106   4.606   8.507 -2.7027  1.1809 -0.7130
   72CHL1   C25 7799   2.293   4.719   8.475 -0.3046 -0.3096 -0.1044
   72CHL1   H25 7800   2.303   4.695   8.367 -0.2236  2.2965 -0.7445
   72CHL1   C26 7801   2.353   4.858   8.507  0.6391  1.0366 -0.9597
   72CHL1  H26A 7802   2.303   4.922   8.432  1.3254  0.6602 -1.7556
   72CHL1  H26B 7803   2.337   4.889   8.613 -1.5776 -0.0954 -0.9131
   72CHL1  H26C 7804   2.463   4.860   8.487  1.5539 -1.9299  2.6764
   72CHL1   C27 7805   2.376   4.613   8.551 -0.1451  0.6666  0.4008
   72CHL1  H27A 7806   2.340   4.513   8.515  2.2704  0.9565 -3.3525
   72CHL1  H27B 7807   2.485   4.630   8.538 -0.5084  2.6627 -0.3367
   72CHL1  H27C 7808   2.344   4.632   8.655 -2.4249 -2.2536  0.3791
   73CHL1    C3 7809   2.071   1.898   6.998 -0.3535 -0.7344 -0.0474
   73CHL1    H3 7810   2.125   1.807   7.031  0.8133  0.2607  0.8628
   73CHL1    O3 7811   2.061   1.896   6.853 -0.1302  0.5806 -0.5864
   73CHL1   H3' 7812   1.971   1.925   6.833 -0.0289  0.8769 -0.6068
   73CHL1    C4 7813   1.939   1.908   7.065  0.0168 -0.2431 -0.6001
   73CHL1   H4A 7814   1.875   1.995   7.039  0.2403  0.2246  0.3541
   73CHL1   H4B 7815   1.872   1.825   7.034 -1.1755  0.5634 -0.2540
   73CHL1    C5 7816   1.958   1.912   7.219 -0.1566  0.0233 -0.7170
   73CHL1    C6 7817   1.912   1.821   7.300 -0.0442  0.0096 -0.2564
   73CHL1    H6 7818   1.858   1.735   7.258 -0.3592  0.3517 -0.5659
   73CHL1    C7 7819   1.941   1.802   7.448 -0.1227  0.1940 -0.0047
   73CHL1   H7A 7820   1.844   1.784   7.500  0.5822  1.9092  2.0518
   73CHL1   H7B 7821   2.011   1.716   7.456 -0.7630 -0.3711 -0.3519
   73CHL1    C8 7822   1.989   1.931   7.508 -0.0388  0.1485 -0.3178
   73CHL1    H8 7823   1.905   2.004   7.514 -1.7602 -1.8586  1.0323
   73CHL1   C14 7824   2.036   1.914   7.651 -0.0188  0.2373  0.7611
   73CHL1   H14 7825   2.132   1.860   7.636  1.5877  2.8094  1.1127
   73CHL1   C15 7826   1.953   1.839   7.757  0.5997  0.2160  0.2964
   73CHL1  H15A 7827   1.847   1.873   7.749 -0.1734 -2.2156 -0.6073
   73CHL1  H15B 7828   1.945   1.729   7.758 -0.1370  0.2708  0.8441
   73CHL1   C16 7829   2.020   1.884   7.886 -0.2661 -0.7455 -0.5840
   73CHL1  H16A 7830   1.946   1.944   7.943  0.2090 -1.3897  0.7450
   73CHL1  H16B 7831   2.042   1.800   7.956 -1.4413 -1.2946 -0.8392
   73CHL1   C17 7832   2.132   1.981   7.857 -0.0212 -0.3914 -0.1115
   73CHL1   H17 7833   2.225   1.921   7.848  1.1518  1.1917  0.8482
   73CHL1   C13 7834   2.093   2.038   7.718  0.1918 -0.3212 -0.1564
   73CHL1   C18 7835   1.987   2.151   7.729  0.2412 -0.6122 -0.8958
   73CHL1  H18A 7836   2.005   2.250   7.777  0.1302 -0.6354 -0.8035
   73CHL1  H18B 7837   1.945   2.188   7.634  0.2827 -0.3675 -0.8218
   73CHL1  H18C 7838   1.903   2.121   7.795 -0.2423 -0.1329 -1.2867
   73CHL1   C12 7839   2.210   2.087   7.631 -0.5965 -0.3710 -0.2470
   73CHL1  H12A 7840   2.235   2.186   7.676  0.5133  0.0721 -1.7568
   73CHL1  H12B 7841   2.298   2.018   7.632 -0.3128 -0.0130  0.9190
   73CHL1   C11 7842   2.175   2.107   7.485  0.0848 -0.0576 -0.0018
   73CHL1  H11A 7843   2.115   2.201   7.486  3.2161  2.0683  0.2623
   73CHL1  H11B 7844   2.262   2.132   7.421  0.4874  0.6406  0.7970
   73CHL1    C9 7845   2.096   1.990   7.419 -0.5690  0.2803  0.3084
   73CHL1    H9 7846   2.173   1.909   7.416 -2.1082 -1.3531  1.9950
   73CHL1   C10 7847   2.055   2.014   7.275  0.0432 -0.0146  0.2710
   73CHL1   C19 7848   1.997   2.153   7.258 -0.1900 -0.7648 -0.3340
   73CHL1  H19A 7849   1.944   2.163   7.161 -1.8150 -0.3671  0.5699
   73CHL1  H19B 7850   1.929   2.182   7.341  1.2508  0.4719  0.4820
   73CHL1  H19C 7851   2.078   2.229   7.265 -0.8604 -0.1371  1.1381
   73CHL1    C1 7852   2.192   2.007   7.187  0.0010  0.6704  0.8416
   73CHL1   H1A 7853   2.245   2.101   7.214 -1.4939  1.9686 -0.4705
   73CHL1   H1B 7854   2.257   1.919   7.206 -1.9641 -0.9682  0.3133
   73CHL1    C2 7855   2.165   2.012   7.038 -0.0083  0.8012  0.1765
   73CHL1   H2A 7856   2.262   1.974   7.000  0.1941 -1.5879  2.7442
   73CHL1   H2B 7857   2.149   2.110   6.989  1.1924  0.2471 -1.4045
   73CHL1   C20 7858   2.170   2.075   7.968  0.6305  0.7592 -0.0948
   73CHL1   H20 7859   2.078   2.136   7.982  1.5699  2.0433  0.6662
   73CHL1   C21 7860   2.292   2.160   7.947  0.0597 -0.2625  0.4658
   73CHL1  H21A 7861   2.382   2.095   7.934  0.7592  0.6302  0.7598
   73CHL1  H21B 7862   2.310   2.228   8.033 -0.3029  0.9066 -0.3666
   73CHL1  H21C 7863   2.289   2.225   7.857  1.1615  0.9687  1.2778
   73CHL1   C22 7864   2.182   2.002   8.106  0.7495 -0.2692  0.2165
   73CHL1  H22A 7865   2.104   1.924   8.122 -0.9228  1.2123 -0.4387
   73CHL1  H22B 7866   2.280   1.949   8.109 -0.0376 -1.9315 -1.2801
   73CHL1   C23 7867   2.176   2.093   8.224 -0.9409  0.1522 -0.2832
   73CHL1  H23A 7868   2.181   2.027   8.314  1.2115 -0.6692 -0.9467
   73CHL1  H23B 7869   2.263   2.160   8.237 -0.1612 -0.9274  0.1834
   73CHL1   C24 7870   2.056   2.185   8.241  0.3331  0.3502  0.1727
   73CHL1  H24A 7871   2.019   2.237   8.150  0.6001 -0.2540 -0.2839
   73CHL1  H24B 7872   1.974   2.126   8.285 -0.9381  1.4663 -0.6189
   73CHL1   C25 7873   2.074   2.295   8.357  0.6730 -0.7908  0.3886
   73CHL1   H25 7874   2.121   2.242   8.442  0.2162 -2.5648 -0.4327
   73CHL1   C26 7875   2.170   2.408   8.302 -0.6326  0.5249  0.4613
   73CHL1  H26A 7876   2.126   2.448   8.208 -2.4690 -1.4177  0.4086
   73CHL1  H26B 7877   2.187   2.498   8.364  0.4935 -0.0659  1.0470
   73CHL1  H26C 7878   2.267   2.362   8.271 -0.9326  1.4891 -2.1642
   73CHL1   C27 7879   1.930   2.357   8.398 -0.5944  0.3080 -0.0936
   73CHL1  H27A 7880   1.888   2.399   8.304 -1.0115 -0.2514 -0.1551
   73CHL1  H27B 7881   1.864   2.280   8.443 -1.0265  0.6795 -0.0815
   73CHL1  H27C 7882   1.957   2.438   8.469  2.1320 -0.5239 -0.0629
   74CHL1    C3 7883   0.501   0.063   6.933  0.2623 -0.6380 -0.0283
   74CHL1    H3 7884   0.574   0.146   6.945  2.9331 -2.7867 -0.3986
   74CHL1    O3 7885   0.480   0.059   6.790 -0.3039  0.4076 -0.1458
   74CHL1   H3' 7886   0.416  -0.012   6.777 -0.4863  0.6810 -0.7844
   74CHL1    C4 7887   0.552  -0.063   6.990  0.1681  0.4226 -0.0374
   74CHL1   H4A 7888   0.475  -0.138   6.963 -0.9975  1.4675  0.3199
   74CHL1   H4B 7889   0.647  -0.100   6.944  0.2564  0.9709 -0.3026
   74CHL1    C5 7890   0.569  -0.051   7.140 -0.1275  0.3952  0.0821
   74CHL1    C6 7891   0.690  -0.071   7.191 -0.1417 -0.5514 -0.2440
   74CHL1    H6 7892   0.766  -0.115   7.126 -2.9224 -2.0793 -2.7421
   74CHL1    C7 7893   0.734  -0.046   7.330  1.1012  0.2314 -0.5817
   74CHL1   H7A 7894   0.811  -0.120   7.359  0.8120  0.4913  0.9586
   74CHL1   H7B 7895   0.788   0.051   7.331  0.2954  0.6911 -0.7412
   74CHL1    C8 7896   0.616  -0.040   7.423  0.0961  0.5166 -0.1823
   74CHL1    H8 7897   0.595  -0.148   7.441  1.5150 -0.0715 -1.8199
   74CHL1   C14 7898   0.658   0.011   7.563  0.1368 -0.7283 -0.1180
   74CHL1   H14 7899   0.697   0.114   7.550  0.6670 -0.6447  1.8499
   74CHL1   C15 7900   0.770  -0.069   7.646 -0.2983 -0.0788 -0.2179
   74CHL1  H15A 7901   0.742  -0.177   7.652  0.1410 -0.1349  1.2915
   74CHL1  H15B 7902   0.872  -0.050   7.607 -0.2568  2.1661  0.8168
   74CHL1   C16 7903   0.767  -0.008   7.786 -0.0827  0.6970  0.2659
   74CHL1  H16A 7904   0.767  -0.091   7.859  1.3307 -1.0725 -1.6241
   74CHL1  H16B 7905   0.863   0.044   7.808  0.9989 -1.6054  1.2675
   74CHL1   C17 7906   0.638   0.085   7.791  0.8614  0.2571  0.5693
   74CHL1   H17 7907   0.676   0.186   7.765  0.0218  0.3447 -0.3811
   74CHL1   C13 7908   0.552   0.036   7.671  0.5901  0.1368  0.3558
   74CHL1   C18 7909   0.482  -0.095   7.719  0.2772  0.1053  0.1148
   74CHL1  H18A 7910   0.461  -0.156   7.629  0.7883 -0.8965  0.6624
   74CHL1  H18B 7911   0.540  -0.153   7.794 -0.4738 -0.7237  0.0737
   74CHL1  H18C 7912   0.380  -0.076   7.759  0.6612 -1.1312  1.7829
   74CHL1   C12 7913   0.438   0.123   7.610 -0.2058 -0.0849  0.2754
   74CHL1  H12A 7914   0.347   0.111   7.673 -1.3228 -1.0072 -1.4630
   74CHL1  H12B 7915   0.469   0.229   7.605  1.6464 -0.2171  4.3284
   74CHL1   C11 7916   0.390   0.075   7.469 -0.6707 -0.1912 -0.6189
   74CHL1  H11A 7917   0.336  -0.020   7.489 -1.6794  0.6984  1.1154
   74CHL1  H11B 7918   0.315   0.151   7.441 -2.0013 -0.8865  0.9171
   74CHL1    C9 7919   0.506   0.049   7.366  0.3664 -0.1700  0.1963
   74CHL1    H9 7920   0.559   0.146   7.352 -0.6307  0.3975  0.2782
   74CHL1   C10 7921   0.448   0.004   7.224  0.0813  0.0724  0.5796
   74CHL1   C19 7922   0.341  -0.110   7.232 -0.0282  0.1552  0.2791
   74CHL1  H19A 7923   0.374  -0.212   7.259 -1.7941 -0.7963 -0.9422
   74CHL1  H19B 7924   0.264  -0.083   7.308 -0.1430 -0.5573  0.4182
   74CHL1  H19C 7925   0.292  -0.132   7.135 -0.8883 -0.7128  0.8948
   74CHL1    C1 7926   0.388   0.124   7.153  0.7000  0.2549  0.3317
   74CHL1   H1A 7927   0.290   0.130   7.206  1.2001  2.1895  1.1002
   74CHL1   H1B 7928   0.455   0.210   7.177 -0.2295  0.5552  2.0482
   74CHL1    C2 7929   0.365   0.109   7.000 -0.3685  0.5621 -1.1189
   74CHL1   H2A 7930   0.325   0.208   6.968 -1.9880  0.8582  1.5004
   74CHL1   H2B 7931   0.284   0.037   6.977 -1.3613  1.1937  0.2176
   74CHL1   C20 7932   0.562   0.106   7.920  0.6914 -0.2734  0.2665
   74CHL1   H20 7933   0.504   0.020   7.958  0.7971 -0.6937 -0.5185
   74CHL1   C21 7934   0.452   0.214   7.915  0.0477  0.1305  0.7450
   74CHL1  H21A 7935   0.360   0.186   7.859 -0.4080  0.6088  1.2440
   74CHL1  H21B 7936   0.481   0.307   7.862 -1.1424  0.3757  0.4929
   74CHL1  H21C 7937   0.408   0.242   8.013 -2.2792  0.8777 -0.4442
   74CHL1   C22 7938   0.662   0.137   8.027 -0.1570  0.0142 -0.4379
   74CHL1  H22A 7939   0.739   0.058   8.036 -0.6174 -0.3727  0.1921
   74CHL1  H22B 7940   0.726   0.226   8.010  0.7022 -0.8649 -2.0492
   74CHL1   C23 7941   0.593   0.169   8.166 -0.3031 -0.7217  0.8269
   74CHL1  H23A 7942   0.529   0.260   8.161 -0.7886 -1.0116  1.4942
   74CHL1  H23B 7943   0.533   0.082   8.201  0.6487 -1.9634 -0.4961
   74CHL1   C24 7944   0.697   0.205   8.275  0.7732  0.2954  0.1171
   74CHL1  H24A 7945   0.736   0.111   8.320  2.2749 -0.7084 -3.0334
   74CHL1  H24B 7946   0.782   0.262   8.233  0.2636 -0.3903 -1.9284
   74CHL1   C25 7947   0.647   0.306   8.387 -0.4686 -0.0474 -0.0481
   74CHL1   H25 7948   0.716   0.312   8.475 -0.4079  0.8420 -0.1412
   74CHL1   C26 7949   0.641   0.447   8.328 -0.2315  0.4962  0.0849
   74CHL1  H26A 7950   0.746   0.474   8.304 -0.0254  0.0566  0.4766
   74CHL1  H26B 7951   0.568   0.456   8.244  0.8761 -0.8971 -1.0889
   74CHL1  H26C 7952   0.609   0.533   8.390 -1.0112  0.3060 -0.0442
   74CHL1   C27 7953   0.509   0.262   8.437 -0.9117  0.1007 -0.5830
   74CHL1  H27A 7954   0.494   0.152   8.433  0.4727 -0.1226 -0.1942
   74CHL1  H27B 7955   0.484   0.297   8.540 -1.8011  3.1176 -1.7152
   74CHL1  H27C 7956   0.436   0.323   8.379 -0.5492  0.7241 -0.3925
   75CHL1    C3 7957   3.420   2.615   6.685  0.1525 -0.6241  0.1875
   75CHL1    H3 7958   3.370   2.699   6.739  0.4617 -1.5507  1.9912
   75CHL1    O3 7959   3.397   2.630   6.546  0.4378 -0.1561 -0.3563
   75CHL1   H3' 7960   3.309   2.591   6.543  0.3920 -0.4291  2.1253
   75CHL1    C4 7961   3.573   2.616   6.699 -0.1606  0.9957  0.4131
   75CHL1   H4A 7962   3.612   2.523   6.653 -1.9775  2.3028 -4.3137
   75CHL1   H4B 7963   3.612   2.705   6.646 -0.3422 -0.1968 -1.8359
   75CHL1    C5 7964   3.616   2.603   6.842  0.2176  0.0735 -0.0395
   75CHL1    C6 7965   3.689   2.697   6.894 -0.4418 -0.6078 -0.6290
   75CHL1    H6 7966   3.721   2.788   6.841  0.0770  0.1596  0.9290
   75CHL1    C7 7967   3.751   2.687   7.034 -0.0914 -0.1015  0.5119
   75CHL1   H7A 7968   3.855   2.724   7.047 -0.1918  0.0545  0.8826
   75CHL1   H7B 7969   3.687   2.754   7.095  0.2296 -0.9356  1.8051
   75CHL1    C8 7970   3.732   2.549   7.102 -0.6803 -0.3051  0.7294
   75CHL1    H8 7971   3.807   2.483   7.053  1.6220  1.4674  1.6880
   75CHL1   C14 7972   3.762   2.558   7.253  0.5742  0.5850 -0.3347
   75CHL1   H14 7973   3.681   2.624   7.291 -1.9503 -2.8626  0.7108
   75CHL1   C15 7974   3.889   2.614   7.298  0.5127 -0.0034 -0.2685
   75CHL1  H15A 7975   3.979   2.566   7.253 -0.4688 -1.2821 -0.9198
   75CHL1  H15B 7976   3.895   2.724   7.283 -3.9240  0.0132 -4.3728
   75CHL1   C16 7977   3.896   2.578   7.447  0.0594  0.2566  0.0204
   75CHL1  H16A 7978   3.993   2.542   7.485  1.1203  4.0212  1.2724
   75CHL1  H16B 7979   3.862   2.667   7.503 -1.7159 -0.4523  0.1596
   75CHL1   C17 7980   3.792   2.460   7.473  0.3576  0.0736  0.4260
   75CHL1   H17 7981   3.708   2.510   7.526 -0.2907 -1.4615  0.9166
   75CHL1   C13 7982   3.746   2.431   7.326  0.0804  0.4675 -0.1495
   75CHL1   C18 7983   3.851   2.321   7.282 -0.4206 -0.3072 -1.0981
   75CHL1  H18A 7984   3.958   2.342   7.305 -0.9800 -0.6292  2.2829
   75CHL1  H18B 7985   3.829   2.220   7.321  0.2437 -0.9443 -2.3002
   75CHL1  H18C 7986   3.860   2.319   7.171  0.3529 -3.0386 -1.0525
   75CHL1   C12 7987   3.601   2.381   7.303 -0.4481 -0.3254  0.3079
   75CHL1  H12A 7988   3.577   2.285   7.355 -0.9308 -0.3620  0.0158
   75CHL1  H12B 7989   3.543   2.467   7.341 -1.1536 -0.4036 -0.5648
   75CHL1   C11 7990   3.575   2.365   7.153  0.3644 -0.5418  0.3730
   75CHL1  H11A 7991   3.630   2.275   7.120  0.5222 -0.6133  0.8151
   75CHL1  H11B 7992   3.467   2.343   7.138 -0.1235  1.6001  0.4139
   75CHL1    C9 7993   3.594   2.495   7.066  0.1734  0.1532  0.3551
   75CHL1    H9 7994   3.521   2.567   7.107 -3.1066 -2.8138  0.1951
   75CHL1   C10 7995   3.561   2.481   6.913 -0.3134 -0.7993  0.4972
   75CHL1   C19 7996   3.645   2.357   6.861 -0.2663  0.3571 -0.2893
   75CHL1  H19A 7997   3.624   2.340   6.753 -0.3412  0.0783 -0.2311
   75CHL1  H19B 7998   3.753   2.376   6.875 -0.4865  1.8797 -0.4226
   75CHL1  H19C 7999   3.614   2.264   6.912 -0.9711  0.2559 -0.8884
   75CHL1    C1 8000   3.406   2.453   6.878 -0.5020 -0.2805 -0.6892
   75CHL1   H1A 8001   3.376   2.347   6.898  0.5659 -0.7093 -1.2559
   75CHL1   H1B 8002   3.341   2.527   6.930 -0.3325 -0.3250 -0.4136
   75CHL1    C2 8003   3.369   2.472   6.734  0.4385  0.4043 -0.1069
   75CHL1   H2A 8004   3.260   2.454   6.723  1.0068 -2.0610 -3.2056
   75CHL1   H2B 8005   3.418   2.391   6.676  1.4028  0.6451  0.3455
   75CHL1   C20 8006   3.837   2.347   7.564 -0.2992 -0.1712  0.5008
   75CHL1   H20 8007   3.921   2.296   7.512  0.6795  1.2153  0.6750
   75CHL1   C21 8008   3.730   2.250   7.588  0.6390  0.4550  0.7454
   75CHL1  H21A 8009   3.749   2.181   7.673 -1.6048 -0.1206  0.8669
   75CHL1  H21B 8010   3.722   2.192   7.493  2.8032 -0.4380  1.0591
   75CHL1  H21C 8011   3.631   2.299   7.605  0.9822  2.3754 -2.0423
   75CHL1   C22 8012   3.904   2.394   7.699  0.0342 -0.0063 -0.5662
   75CHL1  H22A 8013   3.927   2.307   7.764 -1.0103 -2.5047 -3.3367
   75CHL1  H22B 8014   4.004   2.438   7.680 -1.0416  2.2130 -1.4182
   75CHL1   C23 8015   3.820   2.492   7.790 -0.6615 -0.7404 -0.2291
   75CHL1  H23A 8016   3.845   2.593   7.749  0.8523 -1.0509 -0.1452
   75CHL1  H23B 8017   3.713   2.466   7.776 -1.1631  0.6627  0.7307
   75CHL1   C24 8018   3.839   2.488   7.937  0.2904  0.5884 -0.3260
   75CHL1  H24A 8019   3.807   2.385   7.962 -2.1477  0.5532 -3.0271
   75CHL1  H24B 8020   3.938   2.513   7.980 -0.0873  1.7788 -0.0950
   75CHL1   C25 8021   3.761   2.594   8.022  0.9864  0.2442 -0.5836
   75CHL1   H25 8022   3.790   2.693   7.981 -2.5635  0.9404 -1.7432
   75CHL1   C26 8023   3.608   2.584   8.010 -0.1626  0.4566  0.2651
   75CHL1  H26A 8024   3.550   2.664   8.061 -2.5722 -0.5019 -0.8063
   75CHL1  H26B 8025   3.588   2.585   7.901 -0.3907  0.7238  0.3097
   75CHL1  H26C 8026   3.577   2.487   8.055 -2.6163  1.1168  0.1018
   75CHL1   C27 8027   3.792   2.597   8.175  0.1745 -0.4840 -0.1037
   75CHL1  H27A 8028   3.730   2.664   8.239 -0.0790 -2.3779  1.7693
   75CHL1  H27B 8029   3.785   2.499   8.228 -4.4559  0.9967  2.6822
   75CHL1  H27C 8030   3.894   2.638   8.189  0.5824 -2.1949  3.1204
   76CHL1    C3 8031   1.843   3.883   7.323 -0.0062 -1.0350  0.4386
   76CHL1    H3 8032   1.949   3.915   7.326 -0.5644  0.8804  1.2890
   76CHL1    O3 8033   1.797   3.835   7.199  0.3974 -0.2938 -0.0741
   76CHL1   H3' 8034   1.715   3.792   7.223  0.0211  0.0339 -0.7481
   76CHL1    C4 8035   1.825   3.775   7.431  0.1029  0.7607 -0.0985
   76CHL1   H4A 8036   1.719   3.743   7.419  0.7237 -1.0390 -1.2039
   76CHL1   H4B 8037   1.889   3.688   7.404 -2.6779 -1.2417 -0.5939
   76CHL1    C5 8038   1.841   3.824   7.579 -0.0889 -1.3003  0.2214
   76CHL1    C6 8039   1.908   3.754   7.672  0.4405  0.7243  0.1084
   76CHL1    H6 8040   1.934   3.653   7.636 -2.0128 -0.0384  0.3251
   76CHL1    C7 8041   1.923   3.789   7.815  0.5777 -0.8121  0.3827
   76CHL1   H7A 8042   1.876   3.701   7.864 -0.0621 -0.4407  0.4480
   76CHL1   H7B 8043   2.027   3.810   7.847  0.9744  0.5381 -1.6394
   76CHL1    C8 8044   1.836   3.903   7.861  0.3087  0.1287  0.0013
   76CHL1    H8 8045   1.732   3.869   7.881  0.3677 -1.5300 -2.1845
   76CHL1   C14 8046   1.892   3.963   7.991 -0.6688  0.9820 -0.3465
   76CHL1   H14 8047   1.994   4.005   7.979  0.2481 -1.1150 -0.3605
   76CHL1   C15 8048   1.907   3.866   8.115  0.2161 -0.1316 -0.9355
   76CHL1  H15A 8049   1.821   3.796   8.121 -0.3774  0.4686 -2.0845
   76CHL1  H15B 8050   2.006   3.816   8.116  0.1347 -0.3033  0.5765
   76CHL1   C16 8051   1.908   3.951   8.241 -0.3518  0.0678  0.6312
   76CHL1  H16A 8052   1.826   3.914   8.306 -1.8920  0.2226 -1.1672
   76CHL1  H16B 8053   1.999   3.952   8.305  0.1591 -1.8838  0.0066
   76CHL1   C17 8054   1.888   4.087   8.182  0.4853 -0.0848 -0.7497
   76CHL1   H17 8055   1.986   4.131   8.156  1.3647 -0.5001  1.6073
   76CHL1   C13 8056   1.815   4.076   8.048  0.7969  0.4982  1.0700
   76CHL1   C18 8057   1.673   4.029   8.079 -0.3078  0.5779  0.1733
   76CHL1  H18A 8058   1.666   3.941   8.147 -1.2174 -0.1964 -0.9056
   76CHL1  H18B 8059   1.612   4.103   8.135 -0.6942 -0.7079  1.5254
   76CHL1  H18C 8060   1.617   4.000   7.988  0.2029  0.3204 -0.0676
   76CHL1   C12 8061   1.819   4.195   7.947 -1.2209 -0.1503 -0.0520
   76CHL1  H12A 8062   1.761   4.285   7.976  0.0161  0.5678  0.2598
   76CHL1  H12B 8063   1.924   4.231   7.945 -1.4539  0.5666  0.2799
   76CHL1   C11 8064   1.772   4.151   7.806 -0.2994  0.2953 -0.3169
   76CHL1  H11A 8065   1.661   4.147   7.800 -0.1829 -0.8403 -4.1448
   76CHL1  H11B 8066   1.800   4.233   7.737 -0.4783 -0.7155 -1.6172
   76CHL1    C9 8067   1.837   4.014   7.753  0.8425 -0.7501 -0.4755
   76CHL1    H9 8068   1.942   4.042   7.729  1.0767 -1.4300 -0.2830
   76CHL1   C10 8069   1.781   3.965   7.614 -0.4443 -0.0869 -0.4919
   76CHL1   C19 8070   1.623   3.956   7.629  0.5399  0.0448  0.2151
   76CHL1  H19A 8071   1.563   3.910   7.548 -1.7016 -0.5610  2.0698
   76CHL1  H19B 8072   1.583   3.895   7.713  0.0716 -1.2006 -0.8860
   76CHL1  H19C 8073   1.582   4.057   7.652  2.4903  1.0010 -0.3312
   76CHL1    C1 8074   1.811   4.062   7.496 -0.3386  0.1199 -0.3005
   76CHL1   H1A 8075   1.756   4.158   7.503 -0.6396 -0.0203 -0.7082
   76CHL1   H1B 8076   1.919   4.086   7.487 -0.1005 -0.5886  0.5313
   76CHL1    C2 8077   1.769   4.009   7.358 -0.2914 -0.2526  0.7775
   76CHL1   H2A 8078   1.794   4.084   7.279  2.3803 -2.0762 -0.2640
   76CHL1   H2B 8079   1.658   4.003   7.361 -0.3729 -0.6837 -1.4153
   76CHL1   C20 8080   1.819   4.194   8.265 -0.7559  0.5243 -0.5040
   76CHL1   H20 8081   1.735   4.253   8.221  0.6044  0.9733 -2.6409
   76CHL1   C21 8082   1.925   4.302   8.298  0.4972  0.3331  0.0849
   76CHL1  H21A 8083   2.018   4.255   8.338  0.1496  1.4342  2.4049
   76CHL1  H21B 8084   1.884   4.378   8.369 -0.7772 -1.4720  1.3879
   76CHL1  H21C 8085   1.941   4.354   8.201  0.1992 -1.8756 -1.2135
   76CHL1   C22 8086   1.762   4.142   8.397  0.4224 -0.4522  0.5740
   76CHL1  H22A 8087   1.668   4.085   8.386 -0.2058  0.5941  0.3254
   76CHL1  H22B 8088   1.842   4.078   8.439  1.5557 -0.8155 -1.9516
   76CHL1   C23 8089   1.720   4.250   8.508  0.6376 -0.3233  0.1650
   76CHL1  H23A 8090   1.814   4.284   8.557  1.0772 -0.6479 -0.4432
   76CHL1  H23B 8091   1.672   4.340   8.463 -0.5859  0.2175  2.4189
   76CHL1   C24 8092   1.631   4.194   8.613  0.2041 -0.5315  0.2109
   76CHL1  H24A 8093   1.613   4.275   8.687  0.8816  0.6505 -0.8690
   76CHL1  H24B 8094   1.535   4.162   8.567 -0.3511  1.3998 -0.0674
   76CHL1   C25 8095   1.677   4.074   8.689  1.4286  0.1108  0.2515
   76CHL1   H25 8096   1.726   4.002   8.620  1.3516  0.3031 -0.0044
   76CHL1   C26 8097   1.784   4.099   8.804 -0.5237 -0.8880 -0.1340
   76CHL1  H26A 8098   1.740   4.185   8.858 -1.2367 -1.7347  0.6520
   76CHL1  H26B 8099   1.795   4.010   8.868  1.1013 -1.1711 -0.7516
   76CHL1  H26C 8100   1.880   4.121   8.752 -1.7174 -0.1876 -2.1936
   76CHL1   C27 8101   1.555   3.998   8.752  0.2132 -0.0382  0.2108
   76CHL1  H27A 8102   1.476   3.957   8.686 -1.5813  1.1500  1.5333
   76CHL1  H27B 8103   1.593   3.914   8.814  1.4571 -0.0488 -0.5317
   76CHL1  H27C 8104   1.503   4.069   8.820 -0.2855  0.8387 -1.0465
   77CHL1    C3 8105   2.781   1.892   6.911  0.4284 -0.1445 -0.6440
   77CHL1    H3 8106   2.697   1.961   6.934  1.2962  1.0827 -1.0758
   77CHL1    O3 8107   2.782   1.878   6.769 -0.2915  0.0952 -0.0659
   77CHL1   H3' 8108   2.730   1.803   6.739  0.5846  0.0133 -1.4810
   77CHL1    C4 8109   2.908   1.974   6.951  0.9155  0.3193  0.1606
   77CHL1   H4A 8110   2.991   1.921   6.901  1.0616  1.8073 -1.2705
   77CHL1   H4B 8111   2.914   2.073   6.902 -1.9428 -0.6495 -2.4050
   77CHL1    C5 8112   2.938   1.978   7.099  0.2085 -0.3500  0.3205
   77CHL1    C6 8113   2.961   2.098   7.153 -0.0816  0.0722 -0.3535
   77CHL1    H6 8114   2.946   2.188   7.090  0.1539  0.1387 -0.3153
   77CHL1    C7 8115   2.975   2.118   7.301 -0.1533  0.4134 -0.2442
   77CHL1   H7A 8116   3.059   2.188   7.320  1.4924 -2.0492  2.2269
   77CHL1   H7B 8117   2.888   2.171   7.347  1.1208  0.9061  1.6981
   77CHL1    C8 8118   3.010   1.983   7.375  0.1324  0.4209  0.0666
   77CHL1    H8 8119   3.110   1.949   7.341 -0.1849 -0.4983  0.0210
   77CHL1   C14 8120   3.001   2.011   7.523 -0.2101 -0.1845 -0.3008
   77CHL1   H14 8121   2.895   2.043   7.533 -0.9593 -1.1338 -3.7622
   77CHL1   C15 8122   3.085   2.127   7.587  0.0063  0.1814  0.5708
   77CHL1  H15A 8123   3.192   2.124   7.556 -0.0677 -1.2634  0.3899
   77CHL1  H15B 8124   3.046   2.229   7.569 -1.0468  0.0571  2.0397
   77CHL1   C16 8125   3.083   2.088   7.740  0.4174 -0.2327  0.5814
   77CHL1  H16A 8126   3.186   2.054   7.766  1.4906  1.5875 -1.0212
   77CHL1  H16B 8127   3.061   2.181   7.796 -0.7433  0.0758 -0.3573
   77CHL1   C17 8128   2.984   1.968   7.756  0.5003  0.1758  0.4629
   77CHL1   H17 8129   2.880   2.006   7.743  0.5981  0.4550  0.4804
   77CHL1   C13 8130   3.014   1.891   7.620  0.8290 -0.1917  0.4262
   77CHL1   C18 8131   3.151   1.828   7.598  0.4366 -0.4133 -0.4012
   77CHL1  H18A 8132   3.155   1.734   7.657 -1.4391 -0.6792 -0.6277
   77CHL1  H18B 8133   3.173   1.806   7.491  2.4689  1.4912 -0.4418
   77CHL1  H18C 8134   3.230   1.894   7.640 -1.3193  0.6253  1.3992
   77CHL1   C12 8135   2.901   1.789   7.573  0.4205  0.0259  0.1370
   77CHL1  H12A 8136   2.901   1.705   7.645  1.6901 -1.2362 -1.2629
   77CHL1  H12B 8137   2.796   1.823   7.581  0.8044  1.9114 -1.8265
   77CHL1   C11 8138   2.905   1.749   7.427 -0.2722  0.5797 -0.1830
   77CHL1  H11A 8139   2.989   1.678   7.421  1.1236  2.0321  1.2205
   77CHL1  H11B 8140   2.809   1.695   7.412 -0.1326  0.5364 -0.9895
   77CHL1    C9 8141   2.912   1.874   7.335  0.1791 -0.5357 -0.4311
   77CHL1    H9 8142   2.813   1.923   7.342  0.7942  0.9979 -1.7445
   77CHL1   C10 8143   2.916   1.849   7.185  0.4202  0.5667  0.5981
   77CHL1   C19 8144   3.027   1.749   7.158  0.3279  0.2068  0.3933
   77CHL1  H19A 8145   3.123   1.779   7.206  1.6330  0.0289 -1.9439
   77CHL1  H19B 8146   2.995   1.651   7.199 -2.5092  0.1678 -1.6492
   77CHL1  H19C 8147   3.035   1.732   7.048 -1.2800  0.8832  0.1459
   77CHL1    C1 8148   2.787   1.776   7.137 -0.4515  0.7088  0.8772
   77CHL1   H1A 8149   2.779   1.672   7.176 -0.0807  0.3451  0.0118
   77CHL1   H1B 8150   2.696   1.836   7.160 -1.3407 -0.2510 -0.0714
   77CHL1    C2 8151   2.777   1.757   6.986  0.5012  0.2402 -0.0977
   77CHL1   H2A 8152   2.683   1.705   6.961  0.4428  0.2056  0.1986
   77CHL1   H2B 8153   2.861   1.699   6.941 -1.1635 -1.2925 -1.3456
   77CHL1   C20 8154   3.001   1.899   7.890  0.1072 -0.4418 -0.1780
   77CHL1   H20 8155   2.940   1.806   7.892  1.7455 -1.5637  0.4487
   77CHL1   C21 8156   2.926   2.005   7.985  0.5788  0.4701 -0.4525
   77CHL1  H21A 8157   2.817   2.011   7.965  0.0432  1.5790  2.3182
   77CHL1  H21B 8158   2.968   2.108   7.980  0.4447  0.5049 -0.9177
   77CHL1  H21C 8159   2.936   1.984   8.094 -3.4022 -3.8228 -0.5914
   77CHL1   C22 8160   3.139   1.880   7.944 -0.3726  0.4721 -0.1518
   77CHL1  H22A 8161   3.210   1.835   7.871  0.9786  0.1444  1.3011
   77CHL1  H22B 8162   3.174   1.982   7.970 -0.7874  1.0199 -1.6266
   77CHL1   C23 8163   3.144   1.792   8.072 -0.1072  0.3458 -0.3563
   77CHL1  H23A 8164   3.091   1.845   8.155 -1.0030 -0.3941 -0.4390
   77CHL1  H23B 8165   3.085   1.699   8.055 -2.2903  1.3968  0.9264
   77CHL1   C24 8166   3.281   1.753   8.135 -0.2271 -0.3115 -0.1014
   77CHL1  H24A 8167   3.331   1.676   8.073 -2.2997 -0.0871 -2.2301
   77CHL1  H24B 8168   3.345   1.844   8.127 -3.2900  1.8927 -2.2412
   77CHL1   C25 8169   3.275   1.712   8.286  0.1599  0.3331 -0.3942
   77CHL1   H25 8170   3.211   1.622   8.298 -1.7246  1.4430 -1.6433
   77CHL1   C26 8171   3.417   1.667   8.320  0.0267 -0.0244 -0.2373
   77CHL1  H26A 8172   3.424   1.628   8.424 -0.2525  2.4775  0.7969
   77CHL1  H26B 8173   3.470   1.604   8.245  2.5374  1.0839  0.4919
   77CHL1  H26C 8174   3.482   1.757   8.327 -2.4955  1.9099 -0.2985
   77CHL1   C27 8175   3.235   1.821   8.389  0.5721  0.2275  0.5693
   77CHL1  H27A 8176   3.250   1.781   8.492  3.1616  0.8184  0.4691
   77CHL1  H27B 8177   3.285   1.916   8.361 -0.3957  0.3288 -0.8801
   77CHL1  H27C 8178   3.130   1.858   8.386  0.5655  0.1637 -0.1034
   78CHL1    C3 8179   4.211   3.466   6.585  0.1855 -0.3008 -0.2044
   78CHL1    H3 8180   4.115   3.514   6.615  0.1678  1.2945 -2.5236
   78CHL1    O3 8181   4.175   3.451   6.452 -0.5200 -0.1208 -0.0992
   78CHL1   H3' 8182   4.200   3.538   6.418  2.0916 -1.2259 -1.3214
   78CHL1    C4 8183   4.333   3.558   6.618 -0.5219 -0.2172  0.1978
   78CHL1   H4A 8184   4.429   3.522   6.576 -0.6178 -0.2346 -0.0093
   78CHL1   H4B 8185   4.329   3.660   6.573  1.5806 -0.1642  0.0511
   78CHL1    C5 8186   4.343   3.569   6.771 -0.3725  0.2064 -0.5109
   78CHL1    C6 8187   4.336   3.694   6.820 -0.2557  0.4378  0.3755
   78CHL1    H6 8188   4.340   3.779   6.751  0.3526  1.5379  1.7119
   78CHL1    C7 8189   4.328   3.718   6.967  0.3853 -1.3748  0.7149
   78CHL1   H7A 8190   4.358   3.821   6.998 -1.2345 -0.3817 -0.7482
   78CHL1   H7B 8191   4.221   3.726   6.998 -0.9571 -3.2795 -2.8118
   78CHL1    C8 8192   4.383   3.599   7.058  0.1156 -0.3310  0.4401
   78CHL1    H8 8193   4.494   3.600   7.047  0.1223  2.1066  0.0255
   78CHL1   C14 8194   4.352   3.619   7.204 -0.6251  0.6138  0.4234
   78CHL1   H14 8195   4.241   3.618   7.211 -0.5196  0.6128  4.9224
   78CHL1   C15 8196   4.395   3.746   7.269  0.6900 -0.7329 -0.3763
   78CHL1  H15A 8197   4.499   3.772   7.242  0.5662  0.0732 -0.1110
   78CHL1  H15B 8198   4.330   3.833   7.241  1.2640 -0.2446 -0.2144
   78CHL1   C16 8199   4.387   3.721   7.419 -0.2910  0.6080  0.1386
   78CHL1  H16A 8200   4.485   3.742   7.466  0.5971  0.3930 -1.5397
   78CHL1  H16B 8201   4.306   3.769   7.478 -0.3211 -1.1346  1.5795
   78CHL1   C17 8202   4.361   3.565   7.428 -0.6017  0.5599 -0.5625
   78CHL1   H17 8203   4.253   3.544   7.446 -0.3330  0.8960  1.6579
   78CHL1   C13 8204   4.394   3.508   7.293  0.1980  0.1041 -0.5072
   78CHL1   C18 8205   4.541   3.487   7.291 -0.0335  0.5642  0.1314
   78CHL1  H18A 8206   4.592   3.581   7.321 -2.0836  2.4435 -1.8879
   78CHL1  H18B 8207   4.586   3.418   7.366  1.6399  2.3648  0.8728
   78CHL1  H18C 8208   4.575   3.458   7.190  1.6733 -0.3192  0.9124
   78CHL1   C12 8209   4.318   3.372   7.248 -1.4295 -0.2510  0.3918
   78CHL1  H12A 8210   4.355   3.281   7.300 -0.9215 -0.1172  0.2733
   78CHL1  H12B 8211   4.208   3.375   7.263 -1.6003 -2.2861 -0.1930
   78CHL1   C11 8212   4.343   3.341   7.099 -0.2130 -0.0277 -0.1559
   78CHL1  H11A 8213   4.447   3.305   7.089 -0.2256 -0.5904  1.4068
   78CHL1  H11B 8214   4.280   3.257   7.065  0.9943 -0.0368 -2.5696
   78CHL1    C9 8215   4.316   3.467   7.007 -0.3058  0.1402  0.4320
   78CHL1    H9 8216   4.206   3.482   7.018 -0.4968 -0.2722 -0.8405
   78CHL1   C10 8217   4.338   3.445   6.852 -1.0122 -0.4216  0.2872
   78CHL1   C19 8218   4.479   3.386   6.828 -0.0306  0.5419 -0.0717
   78CHL1  H19A 8219   4.494   3.346   6.725  2.1029 -0.1890  0.4701
   78CHL1  H19B 8220   4.557   3.462   6.849  0.2885  0.0621  0.5044
   78CHL1  H19C 8221   4.499   3.298   6.893  1.0138  1.8744  1.4745
   78CHL1    C1 8222   4.241   3.335   6.801  0.2809 -0.3150  0.1590
   78CHL1   H1A 8223   4.253   3.238   6.854 -1.5284  0.4812  2.2119
   78CHL1   H1B 8224   4.144   3.367   6.846 -1.0214 -1.6709 -1.5328
   78CHL1    C2 8225   4.223   3.331   6.652  0.0384 -0.4872 -0.4985
   78CHL1   H2A 8226   4.134   3.273   6.620 -0.7319  0.0198  0.6631
   78CHL1   H2B 8227   4.308   3.278   6.604  0.1996 -0.9173  0.2541
   78CHL1   C20 8228   4.430   3.501   7.551  0.0284  0.7261 -0.1225
   78CHL1   H20 8229   4.541   3.505   7.548  0.1656  0.2878  2.1270
   78CHL1   C21 8230   4.402   3.343   7.559 -0.1539 -0.0668  1.3436
   78CHL1  H21A 8231   4.424   3.303   7.661 -1.1843 -1.4528  1.0506
   78CHL1  H21B 8232   4.470   3.303   7.481  0.0188  3.1103 -0.3003
   78CHL1  H21C 8233   4.296   3.315   7.542  0.7854 -3.1098 -0.2764
   78CHL1   C22 8234   4.396   3.576   7.681 -0.7273  0.4981 -0.7134
   78CHL1  H22A 8235   4.392   3.685   7.661 -0.8239  0.9152  1.4027
   78CHL1  H22B 8236   4.288   3.552   7.693 -0.7303 -0.6636 -2.5946
   78CHL1   C23 8237   4.487   3.547   7.804 -0.6123 -0.2838  0.3090
   78CHL1  H23A 8238   4.494   3.444   7.843 -1.0363  0.1148  1.4848
   78CHL1  H23B 8239   4.589   3.586   7.780  0.3003 -3.2737 -1.0710
   78CHL1   C24 8240   4.435   3.626   7.926 -0.3242 -0.1374  0.1735
   78CHL1  H24A 8241   4.439   3.736   7.912  3.3807  0.0165  1.3440
   78CHL1  H24B 8242   4.331   3.593   7.942  0.1451 -0.8922  1.8847
   78CHL1   C25 8243   4.526   3.612   8.056 -0.0018  0.4323  0.3885
   78CHL1   H25 8244   4.531   3.502   8.050  3.1390  0.3885  1.9754
   78CHL1   C26 8245   4.671   3.672   8.046  0.3721  0.3814  0.0331
   78CHL1  H26A 8246   4.736   3.610   8.112  1.5683 -1.7977 -2.9683
   78CHL1  H26B 8247   4.713   3.655   7.945  0.8137  1.0817  0.0942
   78CHL1  H26C 8248   4.659   3.781   8.064 -2.6970  0.3815 -1.3864
   78CHL1   C27 8249   4.461   3.647   8.190 -0.2290  0.2008  1.2252
   78CHL1  H27A 8250   4.359   3.604   8.190  0.0027 -0.7019 -2.7236
   78CHL1  H27B 8251   4.534   3.605   8.263  0.9391 -1.1743 -0.6336
   78CHL1  H27C 8252   4.459   3.757   8.202 -0.0202  0.1770  1.5037
   79CHL1    C3 8253   2.724   3.830   7.260 -1.2332 -0.2672  0.1903
   79CHL1    H3 8254   2.625   3.866   7.293  0.3078  3.6050  1.1352
   79CHL1    O3 8255   2.738   3.859   7.121  0.2920 -0.2216 -0.3572
   79CHL1   H3' 8256   2.813   3.807   7.091  1.2502  1.5462 -1.2106
   79CHL1    C4 8257   2.831   3.916   7.331 -0.4058  0.2959  0.0217
   79CHL1   H4A 8258   2.934   3.897   7.292 -0.0678  0.5073  0.7918
   79CHL1   H4B 8259   2.809   4.024   7.318  0.2393  0.6798  1.8047
   79CHL1    C5 8260   2.839   3.875   7.486  0.6638 -0.6289  0.2922
   79CHL1    C6 8261   2.844   3.977   7.573  0.9485  0.0507 -0.1996
   79CHL1    H6 8262   2.838   4.084   7.548  1.3030  0.8106  2.5877
   79CHL1    C7 8263   2.855   3.955   7.725  0.3938  0.1125 -0.1291
   79CHL1   H7A 8264   2.945   4.009   7.763 -0.3472  1.7631 -0.5904
   79CHL1   H7B 8265   2.766   3.982   7.785  0.1035  0.1602 -0.5759
   79CHL1    C8 8266   2.881   3.807   7.756  0.0694  0.8181 -1.3667
   79CHL1    H8 8267   2.989   3.785   7.745  0.0927 -2.3126  2.7349
   79CHL1   C14 8268   2.852   3.777   7.906  0.0149  0.0811 -0.7525
   79CHL1   H14 8269   2.742   3.786   7.911 -0.0252 -1.0285  1.3621
   79CHL1   C15 8270   2.905   3.868   8.018 -0.2060  0.2923  0.2555
   79CHL1  H15A 8271   3.013   3.876   7.993 -0.1751  0.3048  0.3963
   79CHL1  H15B 8272   2.855   3.967   8.016 -3.1008 -1.0603 -0.1756
   79CHL1   C16 8273   2.887   3.789   8.141 -0.5404 -0.0461  0.1325
   79CHL1  H16A 8274   2.987   3.765   8.182 -0.5383  2.3612  1.7031
   79CHL1  H16B 8275   2.832   3.837   8.224 -0.4054  0.8253 -0.2790
   79CHL1   C17 8276   2.817   3.653   8.095 -0.2093  0.0809  0.3719
   79CHL1   H17 8277   2.708   3.670   8.089 -0.4152 -0.7293  1.5406
   79CHL1   C13 8278   2.873   3.634   7.945  0.6245  0.1996  0.4236
   79CHL1   C18 8279   3.021   3.585   7.957 -0.1991  0.1951 -0.3929
   79CHL1  H18A 8280   3.084   3.642   8.030 -0.1219  0.5299 -0.7164
   79CHL1  H18B 8281   3.022   3.476   7.975 -0.1474 -0.0636 -1.8414
   79CHL1  H18C 8282   3.077   3.611   7.864 -0.4865  0.9634 -0.3586
   79CHL1   C12 8283   2.788   3.540   7.856  0.8641 -0.1351  0.1699
   79CHL1  H12A 8284   2.804   3.441   7.906  1.3126 -0.4464 -0.5698
   79CHL1  H12B 8285   2.683   3.574   7.854  0.5183 -1.1412  0.6323
   79CHL1   C11 8286   2.824   3.550   7.710 -0.3813 -0.6115 -0.2551
   79CHL1  H11A 8287   2.929   3.514   7.702 -0.5285 -1.1887  0.3329
   79CHL1  H11B 8288   2.757   3.489   7.646 -0.3713 -0.4494 -0.4205
   79CHL1    C9 8289   2.810   3.700   7.664  0.1842 -0.7749  0.5340
   79CHL1    H9 8290   2.702   3.722   7.680  0.7816  1.5807  1.7575
   79CHL1   C10 8291   2.839   3.726   7.518  0.6510 -0.1008  0.7730
   79CHL1   C19 8292   2.977   3.673   7.477 -0.3959 -0.2706 -0.2009
   79CHL1  H19A 8293   2.993   3.570   7.514  0.5326 -0.5814 -1.4174
   79CHL1  H19B 8294   2.999   3.674   7.368 -0.9408 -1.7442 -0.3395
   79CHL1  H19C 8295   3.050   3.738   7.531 -2.0341  0.9785  0.5793
   79CHL1    C1 8296   2.731   3.656   7.436 -0.3114 -0.4360  0.5238
   79CHL1   H1A 8297   2.748   3.547   7.449  1.9444 -0.0028  1.6251
   79CHL1   H1B 8298   2.627   3.679   7.466 -1.5626 -2.5027 -1.8430
   79CHL1    C2 8299   2.748   3.679   7.284 -0.1281  0.3096 -0.1348
   79CHL1   H2A 8300   2.665   3.623   7.235  0.1396 -1.7298  1.5945
   79CHL1   H2B 8301   2.830   3.630   7.228  0.3618  0.2661  0.5992
   79CHL1   C20 8302   2.826   3.543   8.202 -0.2840 -0.3565  0.0321
   79CHL1   H20 8303   2.927   3.500   8.183 -0.0842  0.0144  0.2446
   79CHL1   C21 8304   2.717   3.432   8.178 -0.7931 -0.3123 -0.3001
   79CHL1  H21A 8305   2.752   3.380   8.086  0.6818  2.2703 -1.2997
   79CHL1  H21B 8306   2.612   3.469   8.184 -0.8556  0.1514 -3.1736
   79CHL1  H21C 8307   2.732   3.346   8.248  0.0871 -0.3013 -0.4683
   79CHL1   C22 8308   2.811   3.595   8.351 -0.3995 -0.3512  0.6743
   79CHL1  H22A 8309   2.894   3.661   8.383  0.1038 -1.7110  2.3540
   79CHL1  H22B 8310   2.713   3.648   8.353  0.5748  2.0947 -3.7676
   79CHL1   C23 8311   2.831   3.489   8.467  0.3809  0.7444  0.8866
   79CHL1  H23A 8312   2.747   3.417   8.456  2.0103 -1.1203 -0.0064
   79CHL1  H23B 8313   2.915   3.423   8.435  0.2795  2.5154 -3.7933
   79CHL1   C24 8314   2.851   3.553   8.594 -0.1174 -0.4224 -0.3254
   79CHL1  H24A 8315   2.930   3.630   8.608  0.3263 -0.8750 -0.3050
   79CHL1  H24B 8316   2.765   3.623   8.604  2.0156  2.0517  2.4906
   79CHL1   C25 8317   2.867   3.459   8.713  0.8314 -0.0790 -0.4662
   79CHL1   H25 8318   2.960   3.404   8.689  1.6096  1.0722 -0.1532
   79CHL1   C26 8319   2.900   3.524   8.847 -0.4427 -0.6226 -0.7929
   79CHL1  H26A 8320   2.994   3.582   8.849 -2.0045  2.0960  0.0269
   79CHL1  H26B 8321   2.807   3.582   8.868  0.1442  1.0474 -2.4664
   79CHL1  H26C 8322   2.906   3.448   8.928 -2.9047  0.8145  0.8992
   79CHL1   C27 8323   2.756   3.355   8.737  1.1391 -0.0527  0.4652
   79CHL1  H27A 8324   2.661   3.410   8.748  1.7339  1.0061  0.4263
   79CHL1  H27B 8325   2.739   3.288   8.650 -1.0524  1.5367 -0.3950
   79CHL1  H27C 8326   2.781   3.292   8.825 -0.5493 -0.9190  0.3744
   80CHL1    C3 8327   0.999   0.471   7.067 -0.4125  0.4631  0.3531
   80CHL1    H3 8328   1.069   0.391   7.100 -0.4996  0.7562  1.3007
   80CHL1    O3 8329   0.950   0.471   6.934 -0.3732 -0.0421  0.5211
   80CHL1   H3' 8330   0.998   0.535   6.881 -0.4061 -1.3440 -1.1663
   80CHL1    C4 8331   0.872   0.440   7.151  0.1227  0.5776  0.1798
   80CHL1   H4A 8332   0.786   0.498   7.110  2.3547  3.2673 -1.0053
   80CHL1   H4B 8333   0.860   0.330   7.136  2.1387  0.4542 -0.7734
   80CHL1    C5 8334   0.870   0.467   7.306  0.3568  0.1244  0.7007
   80CHL1    C6 8335   0.839   0.366   7.387  0.6301  0.2978 -0.2785
   80CHL1    H6 8336   0.798   0.269   7.355 -0.3083  0.7450 -0.4767
   80CHL1    C7 8337   0.837   0.382   7.537  0.2953  0.5381  0.5737
   80CHL1   H7A 8338   0.751   0.336   7.589 -1.6895  0.2761 -2.6939
   80CHL1   H7B 8339   0.934   0.337   7.566  0.2735  0.2664  0.2249
   80CHL1    C8 8340   0.841   0.533   7.582 -0.5090 -0.3828 -0.2173
   80CHL1    H8 8341   0.742   0.582   7.575 -0.1218  0.3099 -0.8725
   80CHL1   C14 8342   0.889   0.547   7.728  0.0334  0.0800 -0.5554
   80CHL1   H14 8343   0.982   0.487   7.717 -1.3688 -1.7967 -4.3746
   80CHL1   C15 8344   0.799   0.470   7.832 -0.4745  0.2726 -0.1546
   80CHL1  H15A 8345   0.691   0.483   7.806 -0.1885 -0.0955 -1.5904
   80CHL1  H15B 8346   0.833   0.365   7.829  0.1051  0.3891  1.3991
   80CHL1   C16 8347   0.835   0.540   7.962 -0.2802 -0.2497  0.0444
   80CHL1  H16A 8348   0.747   0.595   8.002  1.2112  1.3156  1.3479
   80CHL1  H16B 8349   0.877   0.470   8.037  2.1632  1.3898  0.3298
   80CHL1   C17 8350   0.940   0.644   7.932 -0.7996  0.1255  0.5395
   80CHL1   H17 8351   1.043   0.603   7.919 -0.7310 -0.1565  1.8359
   80CHL1   C13 8352   0.910   0.694   7.790 -0.1320 -0.2061  0.5848
   80CHL1   C18 8353   0.780   0.779   7.785 -0.2660  0.0507  0.6138
   80CHL1  H18A 8354   0.730   0.783   7.686  1.5707  1.6874 -0.3227
   80CHL1  H18B 8355   0.704   0.746   7.859 -1.5617 -1.3417 -1.2541
   80CHL1  H18C 8356   0.803   0.886   7.804 -1.7621  0.2945  1.2040
   80CHL1   C12 8357   1.015   0.759   7.704 -0.3162  0.0460  0.4170
   80CHL1  H12A 8358   1.028   0.865   7.737  2.4706 -0.4428  1.2263
   80CHL1  H12B 8359   1.110   0.704   7.725 -1.2281 -1.7744 -0.0462
   80CHL1   C11 8360   0.985   0.754   7.553  0.3264  1.0113 -0.3225
   80CHL1  H11A 8361   0.895   0.819   7.543 -0.7545 -0.4127 -0.3384
   80CHL1  H11B 8362   1.073   0.788   7.495 -0.2829  0.5166 -1.5846
   80CHL1    C9 8363   0.944   0.611   7.494 -0.1444  0.3494 -0.4679
   80CHL1    H9 8364   1.035   0.552   7.520  0.4577  1.1752 -0.6490
   80CHL1   C10 8365   0.925   0.610   7.344  0.3485  0.6792  0.1686
   80CHL1   C19 8366   0.821   0.722   7.306  0.1993 -0.1912 -0.1599
   80CHL1  H19A 8367   0.874   0.820   7.306 -1.4604  0.7693 -1.5262
   80CHL1  H19B 8368   0.785   0.705   7.203 -0.9581  0.0494  0.1795
   80CHL1  H19C 8369   0.742   0.734   7.384  0.6741 -0.3426  0.3543
   80CHL1    C1 8370   1.058   0.626   7.270 -0.2324 -0.0705 -0.2914
   80CHL1   H1A 8371   1.097   0.729   7.289 -1.3150  0.4253 -0.6449
   80CHL1   H1B 8372   1.132   0.563   7.323 -0.2265  0.3362  0.2001
   80CHL1    C2 8373   1.058   0.604   7.116  0.3170  0.0665 -0.6726
   80CHL1   H2A 8374   1.162   0.625   7.085  0.1254  2.1415 -0.0431
   80CHL1   H2B 8375   0.985   0.672   7.067  0.4468 -0.8047 -2.1501
   80CHL1   C20 8376   0.943   0.757   8.043  0.6274 -0.6515  0.3302
   80CHL1   H20 8377   0.848   0.816   8.039  1.7676  1.2176 -0.9174
   80CHL1   C21 8378   1.056   0.868   8.005  0.1542 -0.5664  0.1393
   80CHL1  H21A 8379   1.090   0.920   8.098 -1.8351  0.5287  0.3140
   80CHL1  H21B 8380   1.031   0.946   7.931  1.8643 -0.8410 -0.7688
   80CHL1  H21C 8381   1.141   0.816   7.957 -1.4602 -1.7477 -1.5910
   80CHL1   C22 8382   0.956   0.719   8.194  0.2563 -0.2115  0.2951
   80CHL1  H22A 8383   0.970   0.807   8.261  2.5052 -0.3702  0.1048
   80CHL1  H22B 8384   0.861   0.672   8.228  0.9507 -0.5526  1.8850
   80CHL1   C23 8385   1.081   0.631   8.231  0.0506 -0.3208 -0.6222
   80CHL1  H23A 8386   1.085   0.536   8.172 -0.3745 -1.9142  1.7583
   80CHL1  H23B 8387   1.171   0.684   8.192  0.3547  0.3375  0.9014
   80CHL1   C24 8388   1.097   0.603   8.382 -0.0593  0.3454 -0.2745
   80CHL1  H24A 8389   1.148   0.691   8.428 -2.8873  0.7890  2.4055
   80CHL1  H24B 8390   0.994   0.587   8.422 -0.1527 -1.8190 -1.2886
   80CHL1   C25 8391   1.201   0.488   8.425  0.6725 -0.1383 -0.5355
   80CHL1   H25 8392   1.304   0.511   8.390  0.6834 -0.0975 -0.4773
   80CHL1   C26 8393   1.202   0.478   8.580  0.0992  0.6619  0.4084
   80CHL1  H26A 8394   1.094   0.476   8.608 -0.3420 -0.1646 -1.1780
   80CHL1  H26B 8395   1.256   0.386   8.609 -1.2450  0.0492  1.0688
   80CHL1  H26C 8396   1.250   0.570   8.620  0.1470  0.8734 -0.1226
   80CHL1   C27 8397   1.152   0.355   8.373  0.0294  0.1061 -0.5657
   80CHL1  H27A 8398   1.173   0.268   8.439 -0.9048  1.4469  1.6093
   80CHL1  H27B 8399   1.041   0.354   8.385  0.1572 -2.4853  1.6462
   80CHL1  H27C 8400   1.181   0.332   8.269  0.4165 -0.9355 -0.2429
   81CHL1    C3 8401   6.784   0.979   6.807  0.1374 -0.3081 -0.1286
   81CHL1    H3 8402   6.888   0.943   6.820 -0.7170 -3.1621 -0.7038
   81CHL1    O3 8403   6.777   0.991   6.665  0.2773  0.6559  0.4222
   81CHL1   H3' 8404   6.830   0.920   6.629 -0.1091  0.7954 -0.4296
   81CHL1    C4 8405   6.693   0.866   6.851 -0.8906 -0.5269  0.3614
   81CHL1   H4A 8406   6.592   0.890   6.812 -0.0711 -0.2792 -1.6981
   81CHL1   H4B 8407   6.724   0.776   6.794  1.5617  0.3688  0.1428
   81CHL1    C5 8408   6.690   0.837   7.003  0.4204 -0.0596  0.5363
   81CHL1    C6 8409   6.697   0.715   7.045  0.4401  0.0793 -0.2591
   81CHL1    H6 8410   6.713   0.636   6.971  1.5759 -1.4463  1.5152
   81CHL1    C7 8411   6.696   0.677   7.193  0.5881 -0.4565 -0.2946
   81CHL1   H7A 8412   6.632   0.589   7.213 -0.1211  0.0091 -0.4500
   81CHL1   H7B 8413   6.799   0.643   7.217 -0.4532 -3.1877  0.6550
   81CHL1    C8 8414   6.654   0.798   7.283 -0.0636 -0.1648  0.7852
   81CHL1    H8 8415   6.542   0.799   7.280 -0.0821  1.5081  0.9819
   81CHL1   C14 8416   6.685   0.770   7.433 -0.1518  0.1785 -0.6377
   81CHL1   H14 8417   6.795   0.756   7.443 -0.4257 -0.3497  2.8026
   81CHL1   C15 8418   6.636   0.642   7.500  0.7391 -0.1760 -0.1348
   81CHL1  H15A 8419   6.537   0.601   7.471  0.3408 -0.5231  1.5794
   81CHL1  H15B 8420   6.714   0.567   7.477  0.2540 -0.4949 -0.7616
   81CHL1   C16 8421   6.657   0.674   7.642  0.6332  0.1718  0.2861
   81CHL1  H16A 8422   6.556   0.678   7.689 -0.5523 -1.0776 -2.0080
   81CHL1  H16B 8423   6.718   0.591   7.685  0.9938  0.6033  0.6223
   81CHL1   C17 8424   6.713   0.819   7.662 -0.3338  0.0012  0.0644
   81CHL1   H17 8425   6.822   0.800   7.651 -0.4980 -0.8553 -0.1962
   81CHL1   C13 8426   6.658   0.889   7.525  0.3066 -0.5169 -0.3753
   81CHL1   C18 8427   6.502   0.904   7.524 -0.2948  0.4028 -0.0841
   81CHL1  H18A 8428   6.481   0.999   7.578 -0.3924 -0.3966  1.3555
   81CHL1  H18B 8429   6.460   0.931   7.425  1.0742  1.3939 -0.4103
   81CHL1  H18C 8430   6.447   0.814   7.560 -1.4946  1.5851  1.1691
   81CHL1   C12 8431   6.731   1.020   7.478 -0.3039  0.0186  0.0069
   81CHL1  H12A 8432   6.703   1.107   7.541  0.6299 -0.5178  1.1900
   81CHL1  H12B 8433   6.840   1.002   7.480 -0.3041  0.0025 -0.1026
   81CHL1   C11 8434   6.699   1.048   7.331  0.0082  0.0993 -0.4279
   81CHL1  H11A 8435   6.597   1.088   7.316  0.0182  0.6157  0.7863
   81CHL1  H11B 8436   6.774   1.121   7.293 -0.3026  0.7183  0.1426
   81CHL1    C9 8437   6.714   0.930   7.233 -0.7767 -0.5151 -0.0994
   81CHL1    H9 8438   6.825   0.922   7.234 -0.4257  2.9059 -0.2403
   81CHL1   C10 8439   6.685   0.962   7.089  0.8881  0.5915 -0.3239
   81CHL1   C19 8440   6.536   1.005   7.080  0.0690  0.1216 -0.3497
   81CHL1  H19A 8441   6.467   0.925   7.116 -0.5473  0.8701  0.1565
   81CHL1  H19B 8442   6.516   1.096   7.140  0.1865 -0.1966  0.1834
   81CHL1  H19C 8443   6.510   1.035   6.976 -2.9093  0.9537  0.5305
   81CHL1    C1 8444   6.780   1.074   7.032  0.4611  0.1186 -0.2999
   81CHL1   H1A 8445   6.761   1.165   7.092 -1.6153  0.2042 -1.0250
   81CHL1   H1B 8446   6.881   1.036   7.059 -0.0216 -0.6564  0.4629
   81CHL1    C2 8447   6.760   1.116   6.882  0.3909 -0.2197  0.4280
   81CHL1   H2A 8448   6.830   1.190   6.837 -1.4033  0.4990 -1.2928
   81CHL1   H2B 8449   6.660   1.156   6.857  0.7281  0.5134  0.2389
   81CHL1   C20 8450   6.682   0.879   7.801  0.0804 -0.0958 -0.4637
   81CHL1   H20 8451   6.574   0.904   7.814  0.3036 -0.2463  2.0511
   81CHL1   C21 8452   6.770   1.010   7.806  1.1281 -0.4648  0.4220
   81CHL1  H21A 8453   6.770   1.045   7.911 -2.6283  1.0818  0.0742
   81CHL1  H21B 8454   6.727   1.088   7.740  3.5739  1.2392  0.7405
   81CHL1  H21C 8455   6.872   0.989   7.766  0.2250 -1.2868 -1.6579
   81CHL1   C22 8456   6.725   0.790   7.916 -0.2937  0.1080 -0.0806
   81CHL1  H22A 8457   6.680   0.690   7.899 -1.3819  0.5348  0.2432
   81CHL1  H22B 8458   6.836   0.797   7.921 -0.1846 -0.6853 -1.0190
   81CHL1   C23 8459   6.679   0.841   8.052  0.0238 -0.1286 -0.5588
   81CHL1  H23A 8460   6.744   0.925   8.083 -1.0902  1.4595 -2.2954
   81CHL1  H23B 8461   6.573   0.874   8.039  0.2339  0.4131 -0.9253
   81CHL1   C24 8462   6.689   0.743   8.167 -0.1330 -0.4121  0.2752
   81CHL1  H24A 8463   6.623   0.656   8.153 -1.4251  0.7273 -1.0308
   81CHL1  H24B 8464   6.793   0.703   8.165 -0.5316 -1.4517 -1.0098
   81CHL1   C25 8465   6.659   0.810   8.307  0.6675 -0.1101  0.3474
   81CHL1   H25 8466   6.732   0.894   8.317  1.8448 -1.0257 -0.2835
   81CHL1   C26 8467   6.512   0.867   8.319 -0.2770 -0.1600 -0.0956
   81CHL1  H26A 8468   6.494   0.921   8.415 -1.0876 -0.8490  0.1531
   81CHL1  H26B 8469   6.486   0.927   8.229  0.5021  0.2848 -0.0337
   81CHL1  H26C 8470   6.437   0.786   8.317 -1.1654  0.6419  0.0156
   81CHL1   C27 8471   6.679   0.717   8.427  0.0364 -0.5839  0.5779
   81CHL1  H27A 8472   6.600   0.640   8.429 -0.9557  0.4268  2.1191
   81CHL1  H27B 8473   6.779   0.669   8.421  0.2099 -0.2774  0.9330
   81CHL1  H27C 8474   6.670   0.770   8.524  0.7991  0.3354  0.1619
   82CHL1    C3 8475   6.558   2.225   6.863 -0.2704 -0.5130 -0.4207
   82CHL1    H3 8476   6.551   2.333   6.889  0.1682 -0.9817  1.8508
   82CHL1    O3 8477   6.560   2.208   6.723  0.1522 -0.3858 -0.4728
   82CHL1   H3' 8478   6.561   2.114   6.704  0.4400 -0.4154 -0.3058
   82CHL1    C4 8479   6.691   2.168   6.924 -0.3642  1.2866 -1.1799
   82CHL1   H4A 8480   6.696   2.061   6.894 -4.1556  0.4964  0.3714
   82CHL1   H4B 8481   6.773   2.222   6.872 -0.9368  1.2481 -2.1581
   82CHL1    C5 8482   6.692   2.175   7.078  0.0621 -0.7361  0.9000
   82CHL1    C6 8483   6.781   2.246   7.149 -0.3587  0.1354 -0.2285
   82CHL1    H6 8484   6.862   2.303   7.101 -0.7744  1.0018  0.0742
   82CHL1    C7 8485   6.787   2.267   7.294  0.1914 -0.0540 -0.0296
   82CHL1   H7A 8486   6.892   2.252   7.328 -0.2637 -3.3331  0.2432
   82CHL1   H7B 8487   6.749   2.369   7.316  2.5799  1.2797 -1.6782
   82CHL1    C8 8488   6.704   2.160   7.367  0.1575  0.6051  1.0459
   82CHL1    H8 8489   6.748   2.061   7.343  1.5701  1.9550 -2.7059
   82CHL1   C14 8490   6.699   2.191   7.514  0.9816 -0.7413 -0.7021
   82CHL1   H14 8491   6.637   2.284   7.515 -1.7339 -2.4359  1.0969
   82CHL1   C15 8492   6.824   2.235   7.594 -0.3024  0.4507 -0.1397
   82CHL1  H15A 8493   6.906   2.172   7.553 -0.4865  0.5534 -0.6640
   82CHL1  H15B 8494   6.852   2.343   7.589  0.6057  0.2580  0.5478
   82CHL1   C16 8495   6.782   2.201   7.742  0.1845  0.0648 -0.2931
   82CHL1  H16A 8496   6.845   2.116   7.774  0.8493  0.4574 -0.5345
   82CHL1  H16B 8497   6.797   2.293   7.802 -1.0564  1.0640 -1.4385
   82CHL1   C17 8498   6.625   2.172   7.735 -0.4858 -0.1816  0.0105
   82CHL1   H17 8499   6.584   2.273   7.713  2.2528  1.3337  1.3231
   82CHL1   C13 8500   6.612   2.096   7.597  1.4431 -1.0181 -0.5498
   82CHL1   C18 8501   6.679   1.960   7.618  0.1076  0.7029  0.5608
   82CHL1  H18A 8502   6.686   1.912   7.518  3.1023  2.2294 -0.0694
   82CHL1  H18B 8503   6.781   1.971   7.660  0.1940 -0.6756  0.7256
   82CHL1  H18C 8504   6.619   1.896   7.685  1.4785 -0.4419  0.7370
   82CHL1   C12 8505   6.476   2.082   7.534  0.1811 -0.0307  0.5492
   82CHL1  H12A 8506   6.420   1.998   7.581 -0.6704 -1.4152 -2.6860
   82CHL1  H12B 8507   6.407   2.169   7.545 -0.2737 -0.0831 -1.4504
   82CHL1   C11 8508   6.484   2.048   7.383 -0.0253 -0.4213  0.2737
   82CHL1  H11A 8509   6.528   1.947   7.369 -0.2263 -0.4594 -0.0958
   82CHL1  H11B 8510   6.385   2.044   7.333 -0.4158  1.8191  0.7903
   82CHL1    C9 8511   6.569   2.145   7.300 -0.8888  0.5169 -0.6465
   82CHL1    H9 8512   6.524   2.247   7.301  1.9272  1.8580  0.1266
   82CHL1   C10 8513   6.574   2.107   7.154 -0.4936 -0.0707 -0.2426
   82CHL1   C19 8514   6.603   1.954   7.138  0.4143  0.4452 -0.3817
   82CHL1  H19A 8515   6.627   1.912   7.037 -2.5621 -1.5631 -0.3903
   82CHL1  H19B 8516   6.687   1.927   7.205 -0.0875 -0.7447 -0.2087
   82CHL1  H19C 8517   6.516   1.896   7.174  0.2714  2.0001  1.9662
   82CHL1    C1 8518   6.443   2.148   7.075 -0.5954  0.4036 -0.0640
   82CHL1   H1A 8519   6.368   2.083   7.126  2.0251 -2.1467  0.8174
   82CHL1   H1B 8520   6.412   2.251   7.102 -2.6596 -0.1374 -0.1448
   82CHL1    C2 8521   6.443   2.151   6.926  0.5688  0.3060  0.9164
   82CHL1   H2A 8522   6.347   2.194   6.890  0.7647 -0.2854 -0.3953
   82CHL1   H2B 8523   6.443   2.047   6.887  0.3896  0.5623  0.2101
   82CHL1   C20 8524   6.566   2.116   7.872  0.5456 -0.7136 -0.1186
   82CHL1   H20 8525   6.600   2.011   7.886 -1.5426 -1.5603 -0.8881
   82CHL1   C21 8526   6.415   2.101   7.843  0.7069  0.1083 -0.2085
   82CHL1  H21A 8527   6.398   2.020   7.770 -0.6105 -0.4185  0.6388
   82CHL1  H21B 8528   6.370   2.191   7.796 -1.3312 -1.1154 -0.6999
   82CHL1  H21C 8529   6.347   2.073   7.926 -0.9753 -1.5056 -2.0347
   82CHL1   C22 8530   6.600   2.211   7.993  0.1310 -0.1014 -0.0894
   82CHL1  H22A 8531   6.711   2.212   8.007  0.5563 -1.0216 -2.9027
   82CHL1  H22B 8532   6.576   2.315   7.962 -1.0042  0.7819  3.3464
   82CHL1   C23 8533   6.537   2.183   8.130 -0.1687  0.4238  0.3020
   82CHL1  H23A 8534   6.428   2.168   8.116 -0.3162  1.8222 -0.2376
   82CHL1  H23B 8535   6.577   2.092   8.180  0.5264 -0.2245 -1.3848
   82CHL1   C24 8536   6.557   2.297   8.234 -0.9740  0.5316 -0.5171
   82CHL1  H24A 8537   6.659   2.339   8.240 -0.6040 -0.4930  1.1458
   82CHL1  H24B 8538   6.486   2.379   8.208 -1.0451  1.2968  1.7818
   82CHL1   C25 8539   6.527   2.254   8.376 -0.7066  0.3139  0.0575
   82CHL1   H25 8540   6.444   2.181   8.365  0.5396 -0.8668 -2.5142
   82CHL1   C26 8541   6.646   2.177   8.436  0.9342  1.3297  0.7965
   82CHL1  H26A 8542   6.652   2.076   8.389  0.3835  2.3111 -1.4874
   82CHL1  H26B 8543   6.742   2.234   8.438  0.9199  1.3517  0.8539
   82CHL1  H26C 8544   6.618   2.147   8.539 -0.7813 -2.3060 -0.5761
   82CHL1   C27 8545   6.493   2.370   8.471  0.5951  0.1192 -0.1236
   82CHL1  H27A 8546   6.401   2.421   8.437 -0.5445 -1.9771 -0.3212
   82CHL1  H27B 8547   6.476   2.339   8.576  0.1992  0.0251 -0.2163
   82CHL1  H27C 8548   6.576   2.444   8.478  0.0272  0.8220 -0.6363
   83CHL1    C3 8549   2.966   2.704   6.967  1.0577  0.3020 -0.1204
   83CHL1    H3 8550   3.057   2.767   6.968 -0.3401  2.4247 -0.3068
   83CHL1    O3 8551   2.924   2.700   6.834 -0.4322  0.2210 -0.0566
   83CHL1   H3' 8552   2.837   2.660   6.842  0.4598 -2.0352 -0.8463
   83CHL1    C4 8553   2.989   2.567   7.016 -0.0873  0.5515  0.4635
   83CHL1   H4A 8554   2.891   2.515   7.007 -0.9167  1.8528  1.6249
   83CHL1   H4B 8555   3.066   2.525   6.948  1.2226  1.2738  1.4679
   83CHL1    C5 8556   3.048   2.568   7.155  0.3626  0.4803 -0.8591
   83CHL1    C6 8557   3.162   2.514   7.182  0.0591 -0.0259 -0.0772
   83CHL1    H6 8558   3.217   2.459   7.104 -0.4163 -1.5753  0.6587
   83CHL1    C7 8559   3.233   2.511   7.312 -0.3498 -0.7046  0.0449
   83CHL1   H7A 8560   3.287   2.416   7.331 -0.2605 -0.7216 -0.2845
   83CHL1   H7B 8561   3.318   2.581   7.302 -0.6226 -0.6206 -2.6437
   83CHL1    C8 8562   3.139   2.544   7.428 -0.0249  0.0715 -0.6382
   83CHL1    H8 8563   3.075   2.454   7.439 -0.3097  0.1961 -1.2231
   83CHL1   C14 8564   3.213   2.573   7.560  0.7894  0.2243 -0.1668
   83CHL1   H14 8565   3.276   2.659   7.527  1.7407 -1.5153 -3.2216
   83CHL1   C15 8566   3.307   2.467   7.620  0.4391  0.0547  0.1948
   83CHL1  H15A 8567   3.251   2.373   7.601 -1.5098  1.0925  0.5842
   83CHL1  H15B 8568   3.402   2.472   7.562  0.1171  0.7372 -0.2924
   83CHL1   C16 8569   3.316   2.503   7.770  0.3064  0.4414  0.5222
   83CHL1  H16A 8570   3.293   2.413   7.832  2.3289  1.1111  2.3760
   83CHL1  H16B 8571   3.419   2.534   7.796 -0.1082  1.9118  0.4722
   83CHL1   C17 8572   3.219   2.617   7.789 -0.0795 -0.0783  0.5465
   83CHL1   H17 8573   3.274   2.709   7.760 -1.2509  0.4682 -0.0113
   83CHL1   C13 8574   3.115   2.609   7.677 -0.5537  0.4019 -0.6581
   83CHL1   C18 8575   3.020   2.495   7.714  0.7074 -0.1990 -0.6396
   83CHL1  H18A 8576   3.078   2.401   7.729  0.9858 -0.3026 -2.2010
   83CHL1  H18B 8577   2.952   2.519   7.799  1.2522 -0.4748 -0.1165
   83CHL1  H18C 8578   2.957   2.465   7.627  0.3985  0.7411 -0.7500
   83CHL1   C12 8579   3.030   2.733   7.639 -0.9706 -0.8772 -0.0182
   83CHL1  H12A 8580   2.972   2.765   7.728  0.1716  0.0290  0.4312
   83CHL1  H12B 8581   3.097   2.820   7.621 -3.3393  0.9690 -0.3140
   83CHL1   C11 8582   2.952   2.705   7.511 -0.1424  0.1825 -0.0223
   83CHL1  H11A 8583   2.877   2.625   7.529  1.2922 -1.2234 -0.1659
   83CHL1  H11B 8584   2.902   2.802   7.487 -1.6651 -0.9345 -1.5878
   83CHL1    C9 8585   3.046   2.667   7.390  0.3957  0.0763  0.0495
   83CHL1    H9 8586   3.121   2.748   7.380 -0.2739  0.7803  0.5843
   83CHL1   C10 8587   2.968   2.646   7.254  0.0153 -0.2761  0.2371
   83CHL1   C19 8588   2.854   2.541   7.284  0.2385  0.1628 -0.8352
   83CHL1  H19A 8589   2.899   2.450   7.328  0.8967  0.1559 -1.5106
   83CHL1  H19B 8590   2.781   2.583   7.357  1.6996 -1.0546  1.4480
   83CHL1  H19C 8591   2.797   2.516   7.192 -0.1506 -0.2049 -0.5010
   83CHL1    C1 8592   2.918   2.785   7.200 -0.4306 -0.1099  0.4516
   83CHL1   H1A 8593   2.826   2.811   7.256  0.1740 -0.9734  1.9180
   83CHL1   H1B 8594   2.988   2.870   7.215  0.3871 -0.8792  1.1233
   83CHL1    C2 8595   2.874   2.789   7.058  0.0663  0.1584 -0.0024
   83CHL1   H2A 8596   2.877   2.896   7.029  2.5642 -0.6737 -3.4186
   83CHL1   H2B 8597   2.769   2.753   7.065 -0.0028  0.4797  0.6834
   83CHL1   C20 8598   3.168   2.644   7.935  0.4897 -0.5721 -0.0378
   83CHL1   H20 8599   3.061   2.673   7.931  1.0200  1.6781  0.6984
   83CHL1   C21 8600   3.247   2.767   7.999 -0.9039  0.0236  0.3955
   83CHL1  H21A 8601   3.200   2.806   8.092 -0.5325  2.4319 -0.3482
   83CHL1  H21B 8602   3.243   2.853   7.929  0.6501  2.3996  3.0170
   83CHL1  H21C 8603   3.353   2.740   8.019 -0.6330  0.1585 -0.8205
   83CHL1   C22 8604   3.174   2.520   8.023  0.8229 -0.2080  0.8791
   83CHL1  H22A 8605   3.129   2.427   7.983 -0.1337  1.5253 -2.3370
   83CHL1  H22B 8606   3.279   2.512   8.059  0.3241  2.0326  3.2076
   83CHL1   C23 8607   3.092   2.549   8.145 -0.1087 -0.0198 -0.0334
   83CHL1  H23A 8608   3.130   2.642   8.194 -1.3220 -0.8875  2.7465
   83CHL1  H23B 8609   2.989   2.561   8.106  0.2640 -1.1003 -1.4331
   83CHL1   C24 8610   3.085   2.432   8.256  0.0874 -0.7665  0.6034
   83CHL1  H24A 8611   3.045   2.351   8.191  0.6868 -0.8062  0.2766
   83CHL1  H24B 8612   3.185   2.400   8.292  0.8990  0.4506 -0.5059
   83CHL1   C25 8613   2.985   2.460   8.376 -0.3082 -0.3667  0.0544
   83CHL1   H25 8614   2.889   2.503   8.340  0.7278  2.7335  0.6980
   83CHL1   C26 8615   2.960   2.330   8.460  0.5976  0.3672 -0.2580
   83CHL1  H26A 8616   2.931   2.245   8.394 -1.5423  0.2752  0.7047
   83CHL1  H26B 8617   3.047   2.304   8.523 -0.4064 -2.5756  0.0789
   83CHL1  H26C 8618   2.874   2.366   8.522  0.0454 -1.8366  0.3614
   83CHL1   C27 8619   3.050   2.561   8.473  0.3337  0.3753 -0.1274
   83CHL1  H27A 8620   2.987   2.578   8.563 -2.3101 -0.5554 -1.6921
   83CHL1  H27B 8621   3.145   2.513   8.504  0.3588 -0.0044 -0.7685
   83CHL1  H27C 8622   3.082   2.657   8.428 -0.4121  0.3866 -0.6655
   84CHL1    C3 8623   4.511   0.051   6.768 -0.3360  0.0561 -0.0624
   84CHL1    H3 8624   4.403   0.036   6.792 -0.0848 -3.4972 -0.6994
   84CHL1    O3 8625   4.535   0.062   6.634  0.0854  0.2382 -0.4141
   84CHL1   H3' 8626   4.630   0.075   6.628 -0.0163  1.4211  0.2891
   84CHL1    C4 8627   4.550   0.187   6.828  0.3643  0.1100 -1.0678
   84CHL1   H4A 8628   4.653   0.214   6.799  0.0659  0.1200 -2.1642
   84CHL1   H4B 8629   4.485   0.268   6.789 -1.4036  0.2279  1.7882
   84CHL1    C5 8630   4.534   0.178   6.984 -0.6232 -0.5320  0.4248
   84CHL1    C6 8631   4.447   0.255   7.052  0.0532  0.0818  0.1088
   84CHL1    H6 8632   4.393   0.335   6.999 -1.1464 -0.8450 -0.1434
   84CHL1    C7 8633   4.425   0.249   7.202 -0.2586 -0.7923 -0.4333
   84CHL1   H7A 8634   4.410   0.352   7.238 -1.1079 -0.5541 -1.3997
   84CHL1   H7B 8635   4.332   0.192   7.224  0.5343 -0.8288  3.5840
   84CHL1    C8 8636   4.548   0.186   7.273  1.2790  0.3494 -0.0557
   84CHL1    H8 8637   4.636   0.253   7.270  1.4950  0.0594 -0.2092
   84CHL1   C14 8638   4.511   0.161   7.426  0.4421 -0.7241  0.1489
   84CHL1   H14 8639   4.423   0.094   7.431  0.3110 -0.4943  1.7074
   84CHL1   C15 8640   4.476   0.288   7.507  0.2882 -0.2864 -0.6049
   84CHL1  H15A 8641   4.557   0.357   7.476 -0.4340 -0.0332 -2.0448
   84CHL1  H15B 8642   4.383   0.346   7.485  1.4961  2.5702  1.2306
   84CHL1   C16 8643   4.483   0.246   7.656  0.4533 -0.2839  0.6439
   84CHL1  H16A 8644   4.536   0.328   7.709  0.7197 -0.3888  0.5405
   84CHL1  H16B 8645   4.386   0.231   7.709 -0.7618 -0.7273 -1.5919
   84CHL1   C17 8646   4.553   0.106   7.652  0.3376 -0.6353 -0.3609
   84CHL1   H17 8647   4.477   0.026   7.658  0.2181 -0.5174 -0.3117
   84CHL1   C13 8648   4.617   0.091   7.510  0.7628 -0.2031  0.4528
   84CHL1   C18 8649   4.746   0.174   7.502 -0.3861 -0.3450 -0.0964
   84CHL1  H18A 8650   4.732   0.276   7.542  0.4124  0.4789 -1.8394
   84CHL1  H18B 8651   4.822   0.135   7.573 -0.7984 -0.1119  0.4820
   84CHL1  H18C 8652   4.795   0.179   7.403  0.4061  2.4193  0.3648
   84CHL1   C12 8653   4.636  -0.045   7.447  0.6024  0.3158 -0.0673
   84CHL1  H12A 8654   4.719  -0.097   7.499  0.2755 -1.5240 -1.2754
   84CHL1  H12B 8655   4.545  -0.107   7.464  1.2009 -0.5930 -0.1028
   84CHL1   C11 8656   4.678  -0.031   7.296  0.1635  0.7302  0.0620
   84CHL1  H11A 8657   4.783   0.003   7.306  0.0103  1.1395  0.3039
   84CHL1  H11B 8658   4.678  -0.132   7.250  2.1238  0.2525  1.0219
   84CHL1    C9 8659   4.587   0.051   7.207  0.1345  0.4632  0.4727
   84CHL1    H9 8660   4.494  -0.010   7.212  0.7980 -0.6747 -0.4914
   84CHL1   C10 8661   4.618   0.064   7.059  1.1023 -0.5095  0.3745
   84CHL1   C19 8662   4.760   0.106   7.039  0.1767  0.2211  0.1482
   84CHL1  H19A 8663   4.817   0.038   7.107  1.0299  2.1550  1.4734
   84CHL1  H19B 8664   4.786   0.088   6.933  0.0447 -0.2245  0.1877
   84CHL1  H19C 8665   4.778   0.208   7.080 -2.0183  0.2653  1.1552
   84CHL1    C1 8666   4.581  -0.066   6.983 -0.2806  0.1677  0.1503
   84CHL1   H1A 8667   4.646  -0.148   7.020  0.0341 -1.0263 -2.7434
   84CHL1   H1B 8668   4.480  -0.089   7.023 -0.2124  1.9191  1.4189
   84CHL1    C2 8669   4.590  -0.066   6.827 -0.1907  0.2249 -0.1593
   84CHL1   H2A 8670   4.554  -0.165   6.792  0.3170 -1.0760  2.7350
   84CHL1   H2B 8671   4.698  -0.052   6.805 -0.2705  3.1550  0.8904
   84CHL1   C20 8672   4.646   0.078   7.779  0.2280  0.0139  0.9030
   84CHL1   H20 8673   4.737   0.140   7.764 -0.1992  0.0685 -2.2341
   84CHL1   C21 8674   4.698  -0.063   7.775 -0.2901 -0.3866  0.3715
   84CHL1  H21A 8675   4.620  -0.134   7.738 -2.4588  1.5413  0.9966
   84CHL1  H21B 8676   4.742  -0.107   7.867  1.7023 -0.6133 -0.6522
   84CHL1  H21C 8677   4.782  -0.054   7.704 -1.5530  2.2533 -0.9108
   84CHL1   C22 8678   4.589   0.120   7.914  0.1356 -0.1858 -0.0956
   84CHL1  H22A 8679   4.550   0.224   7.912  0.3061 -0.1283 -0.4176
   84CHL1  H22B 8680   4.503   0.055   7.940  0.6596 -1.6256 -1.7872
   84CHL1   C23 8681   4.685   0.122   8.034 -0.1463  0.0655  0.5966
   84CHL1  H23A 8682   4.737   0.024   8.037  0.2688  0.0728 -2.8624
   84CHL1  H23B 8683   4.756   0.203   8.007 -0.8296 -0.1384 -2.1316
   84CHL1   C24 8684   4.608   0.162   8.163 -0.6836  0.3563 -0.7382
   84CHL1  H24A 8685   4.541   0.248   8.142 -1.3783  0.2202  0.8344
   84CHL1  H24B 8686   4.525   0.096   8.197  0.6497 -1.3295 -0.6095
   84CHL1   C25 8687   4.707   0.199   8.269  0.5956  0.4561  0.7688
   84CHL1   H25 8688   4.792   0.127   8.269  0.1766 -0.0388  0.1129
   84CHL1   C26 8689   4.758   0.340   8.254  0.2582 -0.0844 -0.1211
   84CHL1  H26A 8690   4.676   0.415   8.251  1.0320  0.7817 -2.8911
   84CHL1  H26B 8691   4.818   0.356   8.347 -2.3585  0.1675  1.6221
   84CHL1  H26C 8692   4.824   0.356   8.166  0.7266 -0.1921  0.2098
   84CHL1   C27 8693   4.640   0.195   8.409  0.1467  0.4191 -0.3225
   84CHL1  H27A 8694   4.577   0.286   8.425  0.0519  0.4965 -1.0764
   84CHL1  H27B 8695   4.577   0.104   8.419  0.1322  0.4573 -0.0774
   84CHL1  H27C 8696   4.724   0.196   8.481  0.2212  2.2877 -0.3905
   85CHL1    C3 8697   4.450   3.015   6.667  0.4601 -0.1568 -1.3597
   85CHL1    H3 8698   4.409   3.107   6.714  1.7173 -0.6683  0.8715
   85CHL1    O3 8699   4.455   3.022   6.528 -0.7451 -0.1696  0.6173
   85CHL1   H3' 8700   4.435   2.934   6.495  2.7331 -1.0004  0.3733
   85CHL1    C4 8701   4.599   3.014   6.719  0.3291  0.0816 -0.7652
   85CHL1   H4A 8702   4.642   2.929   6.661 -1.0563  0.4932 -2.4791
   85CHL1   H4B 8703   4.650   3.107   6.684  1.2898 -0.1222  0.0584
   85CHL1    C5 8704   4.618   3.010   6.866  0.9730  0.6237  0.1522
   85CHL1    C6 8705   4.695   3.102   6.937 -0.5677 -0.0238  0.8658
   85CHL1    H6 8706   4.739   3.184   6.879 -0.8639 -0.8229 -0.5176
   85CHL1    C7 8707   4.714   3.096   7.082 -0.5792  0.2184  0.1992
   85CHL1   H7A 8708   4.821   3.108   7.108 -0.7792  0.2535  1.0236
   85CHL1   H7B 8709   4.661   3.184   7.123  0.1388  1.0436 -0.6033
   85CHL1    C8 8710   4.666   2.965   7.145 -0.1079  1.2863 -0.7037
   85CHL1    H8 8711   4.743   2.889   7.117 -1.4830 -1.3823  2.0942
   85CHL1   C14 8712   4.662   2.970   7.301  0.0521  0.0300 -0.8035
   85CHL1   H14 8713   4.573   3.031   7.326  0.9406  0.7840  0.6412
   85CHL1   C15 8714   4.776   3.040   7.373 -0.2897 -0.3245 -0.1805
   85CHL1  H15A 8715   4.876   3.008   7.336 -0.1582  0.6542 -0.7064
   85CHL1  H15B 8716   4.768   3.150   7.376  1.0583 -0.1999 -0.4163
   85CHL1   C16 8717   4.760   2.986   7.517  0.2935  0.3842 -0.3201
   85CHL1  H16A 8718   4.855   2.930   7.533  1.1371  1.6416 -0.7233
   85CHL1  H16B 8719   4.760   3.070   7.589  2.6295  0.1360  0.0445
   85CHL1   C17 8720   4.639   2.890   7.516  0.0842  0.1008 -0.7409
   85CHL1   H17 8721   4.546   2.948   7.535  0.0856  0.3130 -1.3532
   85CHL1   C13 8722   4.620   2.838   7.368  0.8379 -0.1961 -0.7251
   85CHL1   C18 8723   4.722   2.728   7.328  0.5490  0.1443 -0.3636
   85CHL1  H18A 8724   4.704   2.689   7.226 -2.0689 -0.0576  0.0867
   85CHL1  H18B 8725   4.827   2.764   7.329  0.9051 -0.6435 -3.1431
   85CHL1  H18C 8726   4.715   2.638   7.393  0.8701 -0.1092 -0.6762
   85CHL1   C12 8727   4.476   2.809   7.313 -0.2758 -0.7737 -0.3566
   85CHL1  H12A 8728   4.440   2.715   7.360 -0.6446  0.2028  1.3793
   85CHL1  H12B 8729   4.407   2.893   7.338  1.9503  0.9991  0.1709
   85CHL1   C11 8730   4.484   2.794   7.156  0.1596  0.2366 -0.5396
   85CHL1  H11A 8731   4.542   2.706   7.121 -1.5833 -0.7861 -0.9678
   85CHL1  H11B 8732   4.379   2.770   7.130 -0.5784  2.2692  0.3136
   85CHL1    C9 8733   4.538   2.916   7.081 -0.5878 -0.3537  0.4684
   85CHL1    H9 8734   4.459   2.994   7.093 -0.3893  0.1816 -1.3198
   85CHL1   C10 8735   4.546   2.891   6.923  0.2135  0.5216 -0.0410
   85CHL1   C19 8736   4.608   2.749   6.878  1.0453  0.1270  0.2192
   85CHL1  H19A 8737   4.707   2.724   6.923  1.6726  2.2972  0.1499
   85CHL1  H19B 8738   4.528   2.682   6.918  0.4335  1.5160  1.3879
   85CHL1  H19C 8739   4.601   2.742   6.768  2.8373 -0.5671  0.1273
   85CHL1    C1 8740   4.401   2.878   6.866  0.5852 -0.0712  0.1766
   85CHL1   H1A 8741   4.342   2.789   6.895  0.5109 -0.4721 -1.0997
   85CHL1   H1B 8742   4.341   2.959   6.912 -1.9543 -2.1877  0.7967
   85CHL1    C2 8743   4.372   2.897   6.719 -0.0958 -0.1734  0.4034
   85CHL1   H2A 8744   4.265   2.918   6.697  0.2705  0.7225 -0.6387
   85CHL1   H2B 8745   4.399   2.805   6.662 -1.3820  0.8546 -2.0211
   85CHL1   C20 8746   4.651   2.778   7.624 -0.2424 -0.0985 -0.6521
   85CHL1   H20 8747   4.742   2.719   7.597  0.2682  1.1622 -1.8126
   85CHL1   C21 8748   4.531   2.685   7.621  0.1054 -0.0285  0.1136
   85CHL1  H21A 8749   4.528   2.644   7.518  0.6001 -1.0648  0.5000
   85CHL1  H21B 8750   4.442   2.750   7.637  0.9080  1.6565 -1.7861
   85CHL1  H21C 8751   4.546   2.592   7.679 -0.6410 -0.4857 -0.4109
   85CHL1   C22 8752   4.672   2.833   7.766 -0.8314  0.3991 -0.2361
   85CHL1  H22A 8753   4.754   2.907   7.774 -0.0003 -0.7029  2.5268
   85CHL1  H22B 8754   4.589   2.902   7.792 -0.6832  0.3403  0.4035
   85CHL1   C23 8755   4.693   2.732   7.878 -0.0190  0.1629  0.0958
   85CHL1  H23A 8756   4.609   2.658   7.878 -0.8205  1.0484  0.7102
   85CHL1  H23B 8757   4.781   2.665   7.870 -0.9606 -1.1962  0.6269
   85CHL1   C24 8758   4.683   2.791   8.018  0.4730  0.1203  0.0290
   85CHL1  H24A 8759   4.753   2.877   8.020 -0.0182  0.5507  2.6133
   85CHL1  H24B 8760   4.581   2.830   8.039  1.7089  3.5463  0.1895
   85CHL1   C25 8761   4.721   2.698   8.137  0.2848 -0.1343 -0.0119
   85CHL1   H25 8762   4.820   2.653   8.117  1.7996  2.2916  1.4255
   85CHL1   C26 8763   4.733   2.779   8.266  0.5185 -0.6488  0.0993
   85CHL1  H26A 8764   4.825   2.836   8.292  0.4175 -1.5415  2.6468
   85CHL1  H26B 8765   4.647   2.849   8.274 -0.3238 -1.7828  1.2351
   85CHL1  H26C 8766   4.705   2.725   8.359  1.4113  1.0839  1.4432
   85CHL1   C27 8767   4.613   2.587   8.160  0.2846  0.1396  0.6382
   85CHL1  H27A 8768   4.612   2.523   8.250 -1.2824  0.1349  0.6337
   85CHL1  H27B 8769   4.515   2.639   8.168 -0.1734 -0.7212  0.7162
   85CHL1  H27C 8770   4.608   2.527   8.066  1.5485  1.2229 -0.1711
   86CHL1    C3 8771   6.570   1.442   6.996  0.3112  0.2268 -0.2156
   86CHL1    H3 8772   6.593   1.336   6.973  1.1908  0.8431 -2.4716
   86CHL1    O3 8773   6.543   1.502   6.865  0.2656 -0.1728  0.6523
   86CHL1   H3' 8774   6.507   1.591   6.877  0.8072  0.2879 -0.9145
   86CHL1    C4 8775   6.442   1.448   7.076  0.6676 -0.5227 -1.5017
   86CHL1   H4A 8776   6.397   1.549   7.070 -1.8093 -1.3661  1.0308
   86CHL1   H4B 8777   6.371   1.375   7.033 -0.1671  0.1494 -1.2796
   86CHL1    C5 8778   6.452   1.419   7.227 -0.1862 -0.3444  0.4046
   86CHL1    C6 8779   6.362   1.346   7.296  0.2752  0.1136 -0.7918
   86CHL1    H6 8780   6.276   1.299   7.245  0.4149  1.5330 -2.4097
   86CHL1    C7 8781   6.362   1.324   7.443 -0.0900 -0.0286 -0.2070
   86CHL1   H7A 8782   6.261   1.343   7.484  0.4704  2.1698  0.2969
   86CHL1   H7B 8783   6.378   1.216   7.466 -0.9383 -0.9334 -3.4052
   86CHL1    C8 8784   6.468   1.408   7.524 -0.1366 -0.1193 -0.1640
   86CHL1    H8 8785   6.433   1.513   7.541  1.9452  0.6030 -0.0740
   86CHL1   C14 8786   6.484   1.351   7.669 -0.5024 -0.2466  0.0919
   86CHL1   H14 8787   6.533   1.253   7.655 -1.5702 -1.0978  2.0422
   86CHL1   C15 8788   6.367   1.340   7.762 -0.0249 -0.3354 -0.1997
   86CHL1  H15A 8789   6.319   1.441   7.761 -2.2252 -1.3019 -1.6765
   86CHL1  H15B 8790   6.300   1.258   7.730 -0.3315 -0.2419  0.1873
   86CHL1   C16 8791   6.432   1.321   7.905  0.9886  0.1771  0.4657
   86CHL1  H16A 8792   6.381   1.395   7.970  1.0374  1.1264 -0.5460
   86CHL1  H16B 8793   6.415   1.220   7.946 -0.2711 -0.0860 -0.6480
   86CHL1   C17 8794   6.581   1.345   7.874  0.4476  0.2358  1.0216
   86CHL1   H17 8795   6.627   1.245   7.859 -1.4606 -0.6710  1.0386
   86CHL1   C13 8796   6.584   1.435   7.754 -0.6948  0.2861  1.1241
   86CHL1   C18 8797   6.546   1.578   7.795  0.4121 -0.3019  0.2888
   86CHL1  H18A 8798   6.451   1.594   7.851  0.7295  1.6755  0.3543
   86CHL1  H18B 8799   6.620   1.627   7.861 -1.5577  3.0585  0.2738
   86CHL1  H18C 8800   6.529   1.646   7.709  0.1471  1.8386  1.9490
   86CHL1   C12 8801   6.716   1.434   7.676  0.3198  0.4824 -0.0788
   86CHL1  H12A 8802   6.793   1.489   7.734  0.1218 -0.4811  1.1441
   86CHL1  H12B 8803   6.740   1.326   7.664  0.8035  0.3269  1.9799
   86CHL1   C11 8804   6.701   1.497   7.534 -0.1113  0.1623  0.2221
   86CHL1  H11A 8805   6.686   1.607   7.539 -0.3839  0.2661 -1.9695
   86CHL1  H11B 8806   6.799   1.488   7.482 -0.4329  1.1873 -0.6014
   86CHL1    C9 8807   6.597   1.421   7.444 -0.2361 -0.5672 -0.2846
   86CHL1    H9 8808   6.634   1.319   7.422 -0.0092 -0.3675 -0.8516
   86CHL1   C10 8809   6.574   1.485   7.299  1.1370 -0.0378 -0.1490
   86CHL1   C19 8810   6.538   1.631   7.308 -0.8774 -0.6753 -0.0135
   86CHL1  H19A 8811   6.457   1.658   7.379 -0.0350 -2.2609  1.6151
   86CHL1  H19B 8812   6.628   1.681   7.350 -1.4656 -0.9512  1.6361
   86CHL1  H19C 8813   6.527   1.676   7.207 -1.0141 -2.1558 -0.6963
   86CHL1    C1 8814   6.701   1.460   7.221 -0.5720 -0.2652  0.1715
   86CHL1   H1A 8815   6.785   1.522   7.261 -0.7572  1.8499 -2.3953
   86CHL1   H1B 8816   6.730   1.354   7.233 -1.2845 -0.4087  0.6752
   86CHL1    C2 8817   6.688   1.505   7.070 -0.0034 -0.2554  0.7180
   86CHL1   H2A 8818   6.782   1.483   7.015 -0.6467 -1.9258  0.2274
   86CHL1   H2B 8819   6.672   1.615   7.071  0.3128 -0.0949 -2.2981
   86CHL1   C20 8820   6.653   1.373   8.010  0.5977  0.1963 -0.4788
   86CHL1   H20 8821   6.623   1.476   8.040 -0.5825  0.3954 -2.2406
   86CHL1   C21 8822   6.813   1.374   7.984 -0.3889 -0.6894 -0.2632
   86CHL1  H21A 8823   6.872   1.363   8.077 -2.4972  0.8719  1.3538
   86CHL1  H21B 8824   6.852   1.458   7.922  1.6089 -2.7224 -1.8995
   86CHL1  H21C 8825   6.840   1.290   7.916  1.3893 -1.1499  0.9475
   86CHL1   C22 8826   6.633   1.271   8.122 -0.8321 -0.0673 -0.3541
   86CHL1  H22A 8827   6.527   1.236   8.120 -0.6711 -0.5211 -2.3516
   86CHL1  H22B 8828   6.688   1.178   8.096 -3.2651 -1.3641 -1.1919
   86CHL1   C23 8829   6.666   1.313   8.268 -0.3508 -0.7318  0.9678
   86CHL1  H23A 8830   6.775   1.334   8.273 -0.5901  1.2663 -0.8706
   86CHL1  H23B 8831   6.610   1.409   8.272  0.2579 -0.0213 -3.0337
   86CHL1   C24 8832   6.631   1.206   8.372 -0.0065  0.5435 -0.3948
   86CHL1  H24A 8833   6.525   1.174   8.371 -0.4006  1.7772 -2.3906
   86CHL1  H24B 8834   6.688   1.111   8.362 -1.4347 -0.2919 -0.8421
   86CHL1   C25 8835   6.667   1.251   8.517  0.0980  0.2336  0.1301
   86CHL1   H25 8836   6.774   1.280   8.512  0.3514 -0.4807  1.0063
   86CHL1   C26 8837   6.582   1.376   8.574 -0.2396 -0.0585  0.8148
   86CHL1  H26A 8838   6.477   1.361   8.607  0.0397 -1.4844  1.1364
   86CHL1  H26B 8839   6.646   1.401   8.662  1.5090  1.1629 -0.7231
   86CHL1  H26C 8840   6.594   1.451   8.493  1.7166 -1.0261  0.1385
   86CHL1   C27 8841   6.652   1.137   8.620 -0.8578 -0.4172  0.1787
   86CHL1  H27A 8842   6.545   1.139   8.650 -0.8693  1.1255  0.0993
   86CHL1  H27B 8843   6.675   1.039   8.573  0.1974  0.1807 -0.6026
   86CHL1  H27C 8844   6.723   1.163   8.701  2.3806 -2.3169 -1.8344
   87CHL1    C3 8845   5.722   6.090   6.945 -0.2306 -0.1743  0.0644
   87CHL1    H3 8846   5.832   6.075   6.937  0.0166  1.5190 -0.0355
   87CHL1    O3 8847   5.659   6.085   6.816  0.6724 -0.0440 -0.3885
   87CHL1   H3' 8848   5.705   6.151   6.762 -0.7814  0.1041 -1.5124
   87CHL1    C4 8849   5.656   5.979   7.033 -1.1774  0.1354  0.1942
   87CHL1   H4A 8850   5.549   6.005   7.045 -1.2437 -0.3948  0.7911
   87CHL1   H4B 8851   5.664   5.884   6.977 -0.7059 -0.6775  1.5816
   87CHL1    C5 8852   5.724   5.979   7.170  0.0646  0.8919 -0.1965
   87CHL1    C6 8853   5.764   5.866   7.230  1.1889 -0.7224  0.3323
   87CHL1    H6 8854   5.751   5.771   7.176  0.7372 -0.1142 -0.6400
   87CHL1    C7 8855   5.820   5.852   7.368  0.1954 -0.1461 -0.2275
   87CHL1   H7A 8856   5.779   5.757   7.407  0.1287 -0.1895 -0.4002
   87CHL1   H7B 8857   5.924   5.825   7.339 -0.6672 -0.7941 -3.0339
   87CHL1    C8 8858   5.807   5.983   7.453 -0.1849  0.0242 -0.1127
   87CHL1    H8 8859   5.705   5.986   7.498  0.2104 -0.1989  0.8154
   87CHL1   C14 8860   5.908   5.985   7.571  0.2543 -0.3752 -0.1725
   87CHL1   H14 8861   6.005   5.979   7.516  0.0387  2.1260 -0.9296
   87CHL1   C15 8862   5.905   5.858   7.664  0.0176  0.3781  0.9210
   87CHL1  H15A 8863   5.801   5.851   7.703 -0.8458 -0.7492 -1.3864
   87CHL1  H15B 8864   5.934   5.765   7.611  1.3071  0.5997  1.1951
   87CHL1   C16 8865   6.001   5.902   7.772  0.4105  0.4001  0.4701
   87CHL1  H16A 8866   5.943   5.878   7.863 -2.1083  0.7895 -0.9219
   87CHL1  H16B 8867   6.098   5.847   7.770  0.1250 -0.2314  2.3705
   87CHL1   C17 8868   6.023   6.055   7.755 -0.0256 -0.3111 -0.2515
   87CHL1   H17 8869   6.122   6.073   7.708  0.0868 -0.1902  0.0261
   87CHL1   C13 8870   5.910   6.108   7.660 -0.0976  1.3120 -0.3300
   87CHL1   C18 8871   5.780   6.125   7.736  0.0274 -0.3008 -0.0719
   87CHL1  H18A 8872   5.762   6.041   7.805 -1.6480  1.9739  2.4713
   87CHL1  H18B 8873   5.793   6.207   7.810 -0.3283 -0.5045  0.2153
   87CHL1  H18C 8874   5.691   6.143   7.672  0.0736  0.4527  0.0580
   87CHL1   C12 8875   5.934   6.226   7.571 -0.3394 -0.6472 -0.1322
   87CHL1  H12A 8876   5.937   6.317   7.635 -1.9960 -1.6625  1.4688
   87CHL1  H12B 8877   6.037   6.209   7.532 -0.5009 -0.1569 -0.8061
   87CHL1   C11 8878   5.828   6.231   7.453  0.0431 -0.0511  0.3762
   87CHL1  H11A 8879   5.727   6.248   7.496 -0.3780  2.8020 -1.4636
   87CHL1  H11B 8880   5.834   6.322   7.390 -0.0250  0.4513  1.0759
   87CHL1    C9 8881   5.837   6.107   7.363 -0.2377 -0.0640 -0.4008
   87CHL1    H9 8882   5.942   6.099   7.328  0.0232 -2.5872  0.7820
   87CHL1   C10 8883   5.739   6.112   7.241 -0.4416  0.6082  0.3000
   87CHL1   C19 8884   5.594   6.140   7.286 -0.1521 -0.2020 -0.3886
   87CHL1  H19A 8885   5.518   6.144   7.205  2.8342 -1.8798 -3.5284
   87CHL1  H19B 8886   5.560   6.063   7.358 -0.6868  1.2354  0.9549
   87CHL1  H19C 8887   5.586   6.236   7.340 -1.1291 -0.8298  0.6186
   87CHL1    C1 8888   5.783   6.219   7.138  0.2275  0.1893  0.1783
   87CHL1   H1A 8889   5.760   6.318   7.182  1.6731  1.2040 -1.2281
   87CHL1   H1B 8890   5.889   6.199   7.113  0.2481 -0.1482  0.5350
   87CHL1    C2 8891   5.695   6.228   7.002  0.3263  0.8445 -0.1306
   87CHL1   H2A 8892   5.734   6.310   6.937 -1.4869 -0.6652 -3.3734
   87CHL1   H2B 8893   5.586   6.234   7.026  0.0742 -1.2385 -0.5365
   87CHL1   C20 8894   6.034   6.123   7.894  0.3399  0.7364  0.3299
   87CHL1   H20 8895   5.942   6.094   7.950  0.4376 -1.4431 -0.5400
   87CHL1   C21 8896   6.061   6.270   7.884  0.1587 -0.0659 -0.0977
   87CHL1  H21A 8897   6.080   6.311   7.985  2.8105 -1.1797 -0.0532
   87CHL1  H21B 8898   5.969   6.315   7.842  0.2512 -1.5237 -1.9947
   87CHL1  H21C 8899   6.143   6.296   7.813  1.2469  0.0162  1.1374
   87CHL1   C22 8900   6.155   6.067   7.973 -0.2735  0.0442 -0.3310
   87CHL1  H22A 8901   6.157   5.957   7.961  1.2883 -0.0770  0.6967
   87CHL1  H22B 8902   6.241   6.112   7.919 -2.1946  1.6639 -2.2014
   87CHL1   C23 8903   6.165   6.101   8.130  0.2728  0.5745  0.7407
   87CHL1  H23A 8904   6.254   6.053   8.175  1.3890  0.3763 -1.5358
   87CHL1  H23B 8905   6.196   6.208   8.134 -0.7720  1.2368 -3.6060
   87CHL1   C24 8906   6.040   6.064   8.216 -0.1811 -0.4358  0.3667
   87CHL1  H24A 8907   5.960   6.127   8.173 -0.9480 -0.1314  2.1689
   87CHL1  H24B 8908   6.022   5.955   8.211 -1.8051 -0.1359 -1.2185
   87CHL1   C25 8909   6.061   6.111   8.359 -0.1041 -0.4198  0.1635
   87CHL1   H25 8910   6.170   6.106   8.379  0.1548  2.2518 -0.1955
   87CHL1   C26 8911   6.029   6.262   8.377  0.2098 -0.3594  0.5188
   87CHL1  H26A 8912   6.069   6.312   8.286 -0.5736  1.6960  1.2299
   87CHL1  H26B 8913   5.919   6.280   8.374  0.1341 -0.8483  0.1705
   87CHL1  H26C 8914   6.063   6.300   8.475 -1.9263  2.0891  0.4437
   87CHL1   C27 8915   5.992   6.020   8.469  0.3645 -0.0137  0.0183
   87CHL1  H27A 8916   6.027   5.915   8.458 -0.5972 -0.4522  0.9062
   87CHL1  H27B 8917   6.016   6.039   8.576 -1.3182 -3.3678  1.1495
   87CHL1  H27C 8918   5.881   6.020   8.471  0.3633  0.6561  0.4919
   88CHL1    C3 8919   5.011   4.710   6.773 -0.4054  0.2645  0.5926
   88CHL1    H3 8920   4.991   4.818   6.790 -1.3160 -0.0100  1.3620
   88CHL1    O3 8921   5.034   4.688   6.637 -0.1923 -0.2649 -0.3519
   88CHL1   H3' 8922   5.012   4.599   6.608  1.4436 -0.3949 -1.3793
   88CHL1    C4 8923   5.133   4.669   6.860  0.5613 -0.5012 -0.1330
   88CHL1   H4A 8924   5.176   4.574   6.820  1.5635 -1.1018  2.1387
   88CHL1   H4B 8925   5.207   4.748   6.835 -0.2342 -0.0176 -0.9634
   88CHL1    C5 8926   5.094   4.674   7.006 -0.2609 -0.1694  0.2060
   88CHL1    C6 8927   5.162   4.748   7.096  0.7032  0.5070  0.5464
   88CHL1    H6 8928   5.246   4.810   7.061  0.8290  1.1950  1.9698
   88CHL1    C7 8929   5.143   4.740   7.245 -0.5580  0.3258 -0.5647
   88CHL1   H7A 8930   5.237   4.756   7.300 -0.9553 -1.7336  0.8153
   88CHL1   H7B 8931   5.076   4.825   7.273  1.3505  1.1513  1.8568
   88CHL1    C8 8932   5.067   4.604   7.287  0.4870  0.3686 -0.2467
   88CHL1    H8 8933   5.129   4.513   7.282 -0.2944 -0.1772 -0.1890
   88CHL1   C14 8934   5.029   4.620   7.432 -0.3068 -0.5726 -0.4240
   88CHL1   H14 8935   4.968   4.713   7.430 -1.4148 -1.0923  2.6283
   88CHL1   C15 8936   5.125   4.651   7.550  0.4449 -0.0852  0.6783
   88CHL1  H15A 8937   5.211   4.582   7.539  1.4904  1.1099  1.1144
   88CHL1  H15B 8938   5.158   4.757   7.553 -1.2229  0.4995 -0.5141
   88CHL1   C16 8939   5.055   4.608   7.680  0.4845 -0.3796  0.3283
   88CHL1  H16A 8940   5.105   4.521   7.728 -0.8061 -1.5379 -0.3781
   88CHL1  H16B 8941   5.063   4.689   7.756  0.7921 -1.8846  1.9782
   88CHL1   C17 8942   4.915   4.556   7.644  0.8805  0.1048  0.1129
   88CHL1   H17 8943   4.851   4.647   7.638  1.3174  0.3298 -1.6964
   88CHL1   C13 8944   4.936   4.503   7.497  0.1212  0.1540  0.2741
   88CHL1   C18 8945   5.014   4.373   7.495 -0.0728  0.3564 -0.2034
   88CHL1  H18A 8946   5.117   4.380   7.535 -0.5505  2.7645  0.8035
   88CHL1  H18B 8947   4.955   4.304   7.559 -2.3341 -1.6895 -4.0937
   88CHL1  H18C 8948   5.014   4.314   7.401  1.9987 -1.1759  0.6798
   88CHL1   C12 8949   4.813   4.493   7.404 -0.0852  0.2582 -0.8384
   88CHL1  H12A 8950   4.750   4.404   7.429 -0.3727  0.6615 -0.1120
   88CHL1  H12B 8951   4.761   4.589   7.424  0.3111  0.6500 -1.6586
   88CHL1   C11 8952   4.846   4.482   7.253  0.1387 -0.0612 -0.6107
   88CHL1  H11A 8953   4.888   4.382   7.227  0.3240  0.5069 -2.7250
   88CHL1  H11B 8954   4.748   4.474   7.201  0.4598 -0.0523 -1.2260
   88CHL1    C9 8955   4.939   4.588   7.200 -0.3651 -0.2103  0.3740
   88CHL1    H9 8956   4.884   4.682   7.218 -0.0895  0.1893 -0.7809
   88CHL1   C10 8957   4.974   4.581   7.051  0.4987  0.8225  0.9153
   88CHL1   C19 8958   5.019   4.440   7.015  0.2066  0.4549 -0.4680
   88CHL1  H19A 8959   4.944   4.360   7.031  1.1852 -0.5746 -0.8948
   88CHL1  H19B 8960   5.045   4.424   6.908 -0.6969  0.6793 -0.7351
   88CHL1  H19C 8961   5.107   4.417   7.078  0.5130  2.0149 -0.2864
   88CHL1    C1 8962   4.854   4.633   6.970  0.2980  0.2730  1.3001
   88CHL1   H1A 8963   4.765   4.568   6.979 -0.2505  0.9484  0.8716
   88CHL1   H1B 8964   4.825   4.734   7.008  1.7277  0.7653  1.1628
   88CHL1    C2 8965   4.879   4.632   6.814  0.0435 -0.3726 -0.6492
   88CHL1   H2A 8966   4.796   4.666   6.750  1.0343 -0.7276 -2.1680
   88CHL1   H2B 8967   4.896   4.525   6.791  2.9447 -0.1765  0.1551
   88CHL1   C20 8968   4.859   4.455   7.751 -0.6468  0.4542  0.3555
   88CHL1   H20 8969   4.924   4.365   7.745  1.4210  1.7455  1.8938
   88CHL1   C21 8970   4.718   4.406   7.708  0.1812 -0.1570 -0.1495
   88CHL1  H21A 8971   4.649   4.484   7.668  0.1746 -0.0962 -0.0177
   88CHL1  H21B 8972   4.668   4.359   7.795 -0.2595  0.6177  0.0206
   88CHL1  H21C 8973   4.731   4.326   7.632  2.9491 -1.3190  1.4283
   88CHL1   C22 8974   4.873   4.501   7.901  0.4132  0.2060 -0.8238
   88CHL1  H22A 8975   4.981   4.519   7.922  0.0595  1.5611 -0.0523
   88CHL1  H22B 8976   4.810   4.588   7.926 -0.0369  0.1126 -1.5999
   88CHL1   C23 8977   4.833   4.384   7.995  0.4555 -0.1067  0.6762
   88CHL1  H23A 8978   4.722   4.380   8.001  0.4588  1.1640  2.6915
   88CHL1  H23B 8979   4.871   4.287   7.956 -0.5485 -0.1482 -0.2543
   88CHL1   C24 8980   4.886   4.406   8.136  0.6667  0.1851  0.2081
   88CHL1  H24A 8981   4.992   4.372   8.131  0.3221 -0.7690 -1.2963
   88CHL1  H24B 8982   4.874   4.514   8.157  0.7645  0.2935 -0.2790
   88CHL1   C25 8983   4.811   4.325   8.240  0.6660 -0.2216  0.3696
   88CHL1   H25 8984   4.705   4.323   8.207  1.1647  2.2260 -1.7586
   88CHL1   C26 8985   4.840   4.167   8.235 -0.6527 -0.6361  0.7506
   88CHL1  H26A 8986   4.935   4.155   8.290  0.1237 -1.1763 -0.6621
   88CHL1  H26B 8987   4.756   4.111   8.282 -1.4148  0.2482  0.4728
   88CHL1  H26C 8988   4.856   4.139   8.129  1.7666  1.9532  0.3284
   88CHL1   C27 8989   4.810   4.383   8.379 -0.4738 -0.3233 -0.8049
   88CHL1  H27A 8990   4.746   4.325   8.448 -0.0766  0.5258  0.3030
   88CHL1  H27B 8991   4.909   4.363   8.425 -0.6571  1.0189  0.2240
   88CHL1  H27C 8992   4.801   4.493   8.386 -1.1587 -0.4356  0.1931
   89CHL1    C3 8993   0.223   0.585   6.962  0.2256 -0.2653  0.3297
   89CHL1    H3 8994   0.122   0.627   6.979 -0.3609 -0.4782 -2.2101
   89CHL1    O3 8995   0.241   0.559   6.820  0.0732 -0.1975  0.0707
   89CHL1   H3' 8996   0.317   0.502   6.810  0.9224  1.1675 -1.9862
   89CHL1    C4 8997   0.315   0.690   7.011  0.0109 -0.2701 -0.1836
   89CHL1   H4A 8998   0.419   0.675   6.977  0.9094  0.6774  1.9560
   89CHL1   H4B 8999   0.290   0.782   6.952 -1.8759 -1.8942 -2.1007
   89CHL1    C5 9000   0.323   0.709   7.164  0.0154  0.3023 -0.4874
   89CHL1    C6 9001   0.327   0.827   7.221  0.5468 -0.1241  0.2388
   89CHL1    H6 9002   0.316   0.921   7.165  0.3108 -0.1861  0.1804
   89CHL1    C7 9003   0.322   0.854   7.368 -0.4151 -0.1690  0.0765
   89CHL1   H7A 9004   0.392   0.936   7.395  0.2500 -1.3559  2.2250
   89CHL1   H7B 9005   0.219   0.874   7.405 -0.7786 -2.2058  0.2782
   89CHL1    C8 9006   0.354   0.732   7.456 -0.3812 -0.1746  0.3600
   89CHL1    H8 9007   0.465   0.722   7.456 -0.3258  0.3055  1.1351
   89CHL1   C14 9008   0.305   0.750   7.600  0.2554  0.0187  0.0596
   89CHL1   H14 9009   0.194   0.761   7.596  0.1599 -0.6751  0.5962
   89CHL1   C15 9010   0.360   0.870   7.681  0.5782 -0.5146  0.1665
   89CHL1  H15A 9011   0.465   0.898   7.660  0.0049  0.6579 -1.3339
   89CHL1  H15B 9012   0.307   0.960   7.644  0.5781 -0.5377  0.1084
   89CHL1   C16 9013   0.326   0.836   7.821 -0.5778 -0.6715  0.1108
   89CHL1  H16A 9014   0.419   0.843   7.883 -1.3917  1.7083  1.1723
   89CHL1  H16B 9015   0.253   0.907   7.865 -0.9118 -0.9533  0.0115
   89CHL1   C17 9016   0.270   0.684   7.821  0.5730 -0.2410 -0.1124
   89CHL1   H17 9017   0.161   0.702   7.812  0.0849 -3.0237 -0.6780
   89CHL1   C13 9018   0.321   0.623   7.688  0.0945  0.0414 -0.9205
   89CHL1   C18 9019   0.476   0.592   7.698  0.6845 -0.0830  0.3281
   89CHL1  H18A 9020   0.499   0.510   7.769 -1.2735 -1.7229 -0.8252
   89CHL1  H18B 9021   0.506   0.563   7.595  0.3167  0.6380  0.0082
   89CHL1  H18C 9022   0.524   0.684   7.738 -0.7872  0.2204  1.5214
   89CHL1   C12 9023   0.244   0.505   7.633  0.3565 -0.7340  0.3578
   89CHL1  H12A 9024   0.262   0.408   7.684  1.8945 -0.8554 -0.3400
   89CHL1  H12B 9025   0.138   0.536   7.625  0.8602  0.6092 -1.9569
   89CHL1   C11 9026   0.291   0.477   7.484  0.6567 -0.1599  0.2950
   89CHL1  H11A 9027   0.396   0.443   7.492  0.1778 -1.3303  2.1307
   89CHL1  H11B 9028   0.227   0.396   7.442  1.0678 -1.7975  2.6396
   89CHL1    C9 9029   0.284   0.608   7.395 -0.3267  1.0055  0.6601
   89CHL1    H9 9030   0.177   0.637   7.397 -0.9400 -1.0376 -0.1538
   89CHL1   C10 9031   0.328   0.584   7.251 -0.8217  0.7187 -0.2359
   89CHL1   C19 9032   0.477   0.541   7.253 -0.3856  0.4293 -0.4979
   89CHL1  H19A 9033   0.499   0.451   7.314  1.3538  1.9130  1.1781
   89CHL1  H19B 9034   0.506   0.518   7.149  0.6966  1.5008 -0.4536
   89CHL1  H19C 9035   0.543   0.627   7.276  0.3810 -0.3171  0.1487
   89CHL1    C1 9036   0.239   0.471   7.186  0.3328 -0.7682  0.2734
   89CHL1   H1A 9037   0.254   0.372   7.233 -0.3444 -0.7950  0.4442
   89CHL1   H1B 9038   0.131   0.495   7.201 -0.0632 -0.6753 -2.2983
   89CHL1    C2 9039   0.254   0.453   7.032  0.1250 -0.4591  0.2676
   89CHL1   H2A 9040   0.184   0.379   6.989 -1.3763  1.1859 -0.2299
   89CHL1   H2B 9041   0.361   0.429   7.013  1.0876  1.8155  2.3458
   89CHL1   C20 9042   0.287   0.613   7.956 -0.0999  0.2499  0.3757
   89CHL1   H20 9043   0.392   0.576   7.957 -0.3452 -0.6727 -1.9176
   89CHL1   C21 9044   0.190   0.496   7.958  0.1263  0.0769  0.1687
   89CHL1  H21A 9045   0.084   0.527   7.966 -0.4171 -1.3421 -1.1313
   89CHL1  H21B 9046   0.220   0.429   8.042  3.1129  2.3544  1.0917
   89CHL1  H21C 9047   0.194   0.436   7.865  0.7965 -0.5538  0.5928
   89CHL1   C22 9048   0.260   0.716   8.073  0.3809  0.3188  0.9996
   89CHL1  H22A 9049   0.310   0.815   8.065 -0.0295  0.7043  2.9273
   89CHL1  H22B 9050   0.151   0.737   8.078  0.7836  2.4470  1.6096
   89CHL1   C23 9051   0.298   0.661   8.207  0.3672 -0.0645 -0.1880
   89CHL1  H23A 9052   0.278   0.553   8.220  1.6658 -0.2441  0.5807
   89CHL1  H23B 9053   0.409   0.670   8.206  0.3930 -0.3779 -1.5224
   89CHL1   C24 9054   0.246   0.743   8.320  0.3469  0.3147  0.2280
   89CHL1  H24A 9055   0.272   0.850   8.307 -0.9953  0.8136  1.3354
   89CHL1  H24B 9056   0.135   0.746   8.320  0.3628  1.9934  0.9680
   89CHL1   C25 9057   0.292   0.708   8.463  0.5290  0.2369 -0.3633
   89CHL1   H25 9058   0.403   0.717   8.462  0.5170  0.4939 -1.8119
   89CHL1   C26 9059   0.221   0.808   8.558  0.1694  0.2669  0.1824
   89CHL1  H26A 9060   0.111   0.789   8.559  0.2127  0.0022  0.0739
   89CHL1  H26B 9061   0.263   0.790   8.660  0.0486 -0.1165  0.1656
   89CHL1  H26C 9062   0.226   0.918   8.541 -1.2742  0.5186  1.2108
   89CHL1   C27 9063   0.233   0.566   8.508 -0.1019 -0.1487 -0.3081
   89CHL1  H27A 9064   0.122   0.564   8.505 -0.1487 -0.5970  1.1770
   89CHL1  H27B 9065   0.271   0.481   8.448 -2.6874 -1.3389 -0.3922
   89CHL1  H27C 9066   0.267   0.553   8.613 -0.1298 -0.1725 -0.3018
   90CHL1    C3 9067   0.665   2.585   6.878  0.1341  0.1216  0.4251
   90CHL1    H3 9068   0.581   2.512   6.886 -0.1112  0.5124  1.5744
   90CHL1    O3 9069   0.705   2.602   6.739  0.0107  0.0273  0.1588
   90CHL1   H3' 9070   0.724   2.512   6.710  0.6179  0.8509 -2.2585
   90CHL1    C4 9071   0.641   2.710   6.958 -0.5204  0.1768  0.0618
   90CHL1   H4A 9072   0.730   2.774   6.940 -1.7808  2.2222  0.7269
   90CHL1   H4B 9073   0.558   2.758   6.903 -0.6426 -2.2219 -2.0168
   90CHL1    C5 9074   0.614   2.691   7.107  0.5234 -0.1443  0.0567
   90CHL1    C6 9075   0.496   2.728   7.158  0.1222 -0.3702 -0.2464
   90CHL1    H6 9076   0.424   2.789   7.100  1.3485  1.2136 -0.1661
   90CHL1    C7 9077   0.464   2.716   7.305  0.4542  0.0982 -0.1557
   90CHL1   H7A 9078   0.404   2.804   7.336  0.0540 -0.1368 -0.2605
   90CHL1   H7B 9079   0.400   2.626   7.312  0.8020 -0.2800 -1.4839
   90CHL1    C8 9080   0.593   2.692   7.386 -0.7288 -0.2184  0.0446
   90CHL1    H8 9081   0.646   2.789   7.385 -1.6411  0.3740  2.4907
   90CHL1   C14 9082   0.557   2.655   7.530  0.2216  0.6157  0.7476
   90CHL1   H14 9083   0.506   2.557   7.520 -0.7867  1.1163  0.8512
   90CHL1   C15 9084   0.453   2.744   7.604  0.5173  0.2929  0.1084
   90CHL1  H15A 9085   0.489   2.849   7.590  1.4411  0.0865  0.8391
   90CHL1  H15B 9086   0.352   2.740   7.557  1.1676  2.4659 -1.6813
   90CHL1   C16 9087   0.466   2.694   7.749 -0.5933  0.0538 -0.1926
   90CHL1  H16A 9088   0.479   2.772   7.827  0.2045 -0.4646  0.2055
   90CHL1  H16B 9089   0.380   2.631   7.779  1.1885 -2.7739 -0.5779
   90CHL1   C17 9090   0.597   2.605   7.756  0.4891 -0.1212 -0.3854
   90CHL1   H17 9091   0.568   2.498   7.751 -0.8024  0.2424 -3.7753
   90CHL1   C13 9092   0.672   2.626   7.625  0.1096 -0.7886 -0.0351
   90CHL1   C18 9093   0.748   2.758   7.630 -0.1265 -0.3538 -0.3941
   90CHL1  H18A 9094   0.796   2.800   7.539 -2.2364  1.2147 -0.8526
   90CHL1  H18B 9095   0.700   2.846   7.677  0.5668 -1.1937  2.0372
   90CHL1  H18C 9096   0.832   2.729   7.697 -0.0266 -0.9719 -0.7754
   90CHL1   C12 9097   0.747   2.508   7.560 -0.1371 -1.0469  0.4683
   90CHL1  H12A 9098   0.845   2.499   7.611 -0.6632  0.1075  1.7492
   90CHL1  H12B 9099   0.681   2.419   7.568 -0.0231 -1.3160 -1.1428
   90CHL1   C11 9100   0.797   2.536   7.409 -0.1313 -0.0574  0.2978
   90CHL1  H11A 9101   0.878   2.610   7.419 -1.1218  1.2067 -0.7176
   90CHL1  H11B 9102   0.835   2.438   7.373 -0.3980 -0.0811  0.0779
   90CHL1    C9 9103   0.681   2.578   7.319  0.1730 -0.0110 -0.0377
   90CHL1    H9 9104   0.614   2.489   7.312 -2.4023  1.7210  0.8079
   90CHL1   C10 9105   0.726   2.624   7.183 -0.1233 -0.2852 -0.1359
   90CHL1   C19 9106   0.851   2.726   7.193 -0.0816  0.0077  0.8952
   90CHL1  H19A 9107   0.876   2.756   7.089  2.0587 -0.9808  1.0779
   90CHL1  H19B 9108   0.829   2.812   7.259 -1.4984  0.4252 -0.0825
   90CHL1  H19C 9109   0.941   2.667   7.222  1.2534  0.8920 -1.1966
   90CHL1    C1 9110   0.770   2.496   7.100  0.3281 -0.1953 -0.3933
   90CHL1   H1A 9111   0.866   2.457   7.142 -1.3917 -4.1536  0.3122
   90CHL1   H1B 9112   0.689   2.423   7.120  2.0143 -1.7607  1.2151
   90CHL1    C2 9113   0.786   2.527   6.950  0.2095 -0.9934  0.1315
   90CHL1   H2A 9114   0.805   2.429   6.903  5.1763 -1.2289  2.0953
   90CHL1   H2B 9115   0.871   2.595   6.925 -1.2915  0.3092 -1.7746
   90CHL1   C20 9116   0.680   2.612   7.889  0.4179 -0.3249  0.3560
   90CHL1   H20 9117   0.732   2.709   7.903 -1.7394  0.8811  0.3547
   90CHL1   C21 9118   0.800   2.513   7.900 -0.5417  0.2817 -0.0236
   90CHL1  H21A 9119   0.851   2.522   7.999  1.1370 -2.4313 -0.5238
   90CHL1  H21B 9120   0.870   2.548   7.822 -1.4414 -0.4349 -1.1853
   90CHL1  H21C 9121   0.769   2.408   7.882  0.1283  0.0371  0.2198
   90CHL1   C22 9122   0.593   2.612   8.017  0.0207 -0.0260 -0.2906
   90CHL1  H22A 9123   0.496   2.664   7.999 -0.4472 -0.2740  1.3785
   90CHL1  H22B 9124   0.569   2.508   8.045 -2.0814  0.5532  0.2630
   90CHL1   C23 9125   0.649   2.684   8.143 -0.1682 -0.0940 -0.1448
   90CHL1  H23A 9126   0.756   2.712   8.137  0.2861 -0.7360  2.9315
   90CHL1  H23B 9127   0.590   2.776   8.166 -1.0311 -0.9237  1.1504
   90CHL1   C24 9128   0.630   2.601   8.270 -0.8135 -0.1038 -0.3471
   90CHL1  H24A 9129   0.521   2.578   8.280 -1.2235  1.4795 -0.8854
   90CHL1  H24B 9130   0.686   2.506   8.258 -1.0722 -0.1232 -1.4968
   90CHL1   C25 9131   0.682   2.682   8.388  0.3222  0.3702 -0.6220
   90CHL1   H25 9132   0.645   2.787   8.384  2.4927  1.3574  2.1261
   90CHL1   C26 9133   0.644   2.608   8.516 -0.1468  0.6555  0.2137
   90CHL1  H26A 9134   0.544   2.559   8.516  1.1222 -2.1554  1.0788
   90CHL1  H26B 9135   0.698   2.512   8.520 -0.4509  0.5098  0.9592
   90CHL1  H26C 9136   0.659   2.654   8.616  0.8270 -0.7009  0.7148
   90CHL1   C27 9137   0.834   2.711   8.384  0.5282  0.2530  0.3418
   90CHL1  H27A 9138   0.882   2.612   8.369 -0.9408 -0.4680  0.1695
   90CHL1  H27B 9139   0.854   2.781   8.300  0.1581  1.9663  1.6215
   90CHL1  H27C 9140   0.863   2.761   8.479 -2.3458  1.6921  0.5716
   91CHL1    C3 9141   2.297   3.496   7.166 -0.3382 -0.4540  0.6190
   91CHL1    H3 9142   2.321   3.596   7.206 -2.3231  0.0635  0.5832
   91CHL1    O3 9143   2.314   3.495   7.027 -0.0010 -0.4283 -0.4782
   91CHL1   H3' 9144   2.269   3.415   7.000  0.2696 -0.4184 -0.9699
   91CHL1    C4 9145   2.392   3.386   7.228  0.3450 -0.0112  0.1111
   91CHL1   H4A 9146   2.384   3.295   7.165  0.1221 -0.4602  0.7754
   91CHL1   H4B 9147   2.494   3.421   7.204  0.5789 -1.3745 -1.0176
   91CHL1    C5 9148   2.374   3.366   7.378 -0.3343  0.2319 -0.3926
   91CHL1    C6 9149   2.477   3.376   7.467 -0.0378  0.0690  0.2479
   91CHL1    H6 9150   2.580   3.384   7.431  0.0056 -3.0691 -0.5881
   91CHL1    C7 9151   2.471   3.356   7.615 -0.2302  0.1665  0.1379
   91CHL1   H7A 9152   2.538   3.275   7.651 -0.9572 -0.1221  0.8777
   91CHL1   H7B 9153   2.496   3.454   7.660  0.4629 -0.4161  1.0381
   91CHL1    C8 9154   2.330   3.297   7.655  0.3390  0.1439  0.2164
   91CHL1    H8 9155   2.331   3.189   7.633 -0.4455 -0.0762  1.1506
   91CHL1   C14 9156   2.302   3.323   7.806 -0.6450  0.3062  0.7799
   91CHL1   H14 9157   2.317   3.433   7.814 -0.7313  0.6352 -2.3821
   91CHL1   C15 9158   2.417   3.281   7.902 -0.2443 -0.2701 -0.0315
   91CHL1  H15A 9159   2.458   3.182   7.874  1.0804 -0.4276  2.2469
   91CHL1  H15B 9160   2.504   3.350   7.903  1.2966 -2.1149 -0.2780
   91CHL1   C16 9161   2.347   3.279   8.033  0.2695  0.5752 -0.0602
   91CHL1  H16A 9162   2.349   3.173   8.068  1.6532  1.0708  1.4617
   91CHL1  H16B 9163   2.401   3.341   8.108 -0.0630  1.2892 -0.4002
   91CHL1   C17 9164   2.199   3.316   8.013 -0.2301  0.7268 -0.6521
   91CHL1   H17 9165   2.193   3.427   8.023  0.3788  0.6476  0.8618
   91CHL1   C13 9166   2.175   3.287   7.865 -0.1456  0.7763 -0.0397
   91CHL1   C18 9167   2.154   3.133   7.838  0.3653  0.6364 -0.0511
   91CHL1  H18A 9168   2.152   3.117   7.728 -1.4252 -1.1869  0.1792
   91CHL1  H18B 9169   2.244   3.082   7.879 -1.2404 -1.2586  1.3373
   91CHL1  H18C 9170   2.065   3.092   7.891  1.5776  1.4024  2.7722
   91CHL1   C12 9171   2.068   3.372   7.793 -0.1626 -0.3712 -0.1898
   91CHL1  H12A 9172   1.969   3.348   7.838  0.3566 -1.9103  0.2046
   91CHL1  H12B 9173   2.081   3.479   7.818  2.1104  0.4473 -4.0795
   91CHL1   C11 9174   2.075   3.356   7.641  0.7580  0.6040  0.1342
   91CHL1  H11A 9175   2.040   3.252   7.620  0.2055  0.4055  1.9272
   91CHL1  H11B 9176   2.006   3.425   7.588 -0.8491  0.7944  2.3691
   91CHL1    C9 9177   2.217   3.371   7.582 -0.1058 -0.0566 -0.2980
   91CHL1    H9 9178   2.236   3.478   7.603 -0.6132 -0.1261  0.5737
   91CHL1   C10 9179   2.231   3.355   7.431  0.6162 -0.4892  0.3612
   91CHL1   C19 9180   2.185   3.213   7.403  0.7317  0.1073 -0.2377
   91CHL1  H19A 9181   2.231   3.131   7.462 -0.1893 -0.6647 -0.5757
   91CHL1  H19B 9182   2.075   3.196   7.404  0.4588  1.7803  0.0281
   91CHL1  H19C 9183   2.219   3.179   7.302  1.0064 -3.3141  0.8824
   91CHL1    C1 9184   2.141   3.450   7.363  0.5694 -0.2733 -1.0983
   91CHL1   H1A 9185   2.033   3.423   7.371 -0.5645  3.6636 -1.0106
   91CHL1   H1B 9186   2.163   3.550   7.404 -0.9684  0.0765 -1.0593
   91CHL1    C2 9187   2.158   3.464   7.210  0.5193  0.1277 -0.4336
   91CHL1   H2A 9188   2.083   3.537   7.173 -3.1398 -2.5814  0.9243
   91CHL1   H2B 9189   2.147   3.364   7.162  3.4357  0.0729 -1.1634
   91CHL1   C20 9190   2.110   3.247   8.124  0.6458 -0.6433 -0.3186
   91CHL1   H20 9191   2.141   3.140   8.123 -1.2049 -1.2395 -3.2601
   91CHL1   C21 9192   1.959   3.258   8.100 -0.4511  0.7593  0.0991
   91CHL1  H21A 9193   1.931   3.205   8.006  1.6735  0.1422 -0.2444
   91CHL1  H21B 9194   1.929   3.364   8.114 -2.5505 -0.0434  2.4673
   91CHL1  H21C 9195   1.902   3.202   8.178 -1.8978  1.7923 -0.1687
   91CHL1   C22 9196   2.141   3.295   8.268 -0.5621  0.2403  0.0834
   91CHL1  H22A 9197   2.206   3.385   8.270  0.0505 -0.1965  0.1240
   91CHL1  H22B 9198   2.047   3.334   8.313 -1.2327  0.3537 -1.3632
   91CHL1   C23 9199   2.211   3.191   8.351  1.5496 -0.1854 -0.3067
   91CHL1  H23A 9200   2.167   3.090   8.336  1.9869 -0.3582 -0.4456
   91CHL1  H23B 9201   2.309   3.176   8.300  1.7922  0.8346 -0.1560
   91CHL1   C24 9202   2.212   3.216   8.506 -0.7831 -0.0144 -0.3230
   91CHL1  H24A 9203   2.259   3.314   8.531 -2.4118  0.4294  1.2170
   91CHL1  H24B 9204   2.105   3.229   8.532 -0.1389  0.8484  2.1321
   91CHL1   C25 9205   2.279   3.103   8.587 -0.1904  0.0866 -0.4063
   91CHL1   H25 9206   2.265   3.130   8.694 -2.7396  0.7250 -0.8365
   91CHL1   C26 9207   2.199   2.975   8.563  0.1842  0.0034 -0.2619
   91CHL1  H26A 9208   2.204   2.892   8.636  0.9522  2.1630  2.3060
   91CHL1  H26B 9209   2.091   2.997   8.555  0.1995  0.7666  1.2226
   91CHL1  H26C 9210   2.230   2.926   8.468  1.8923 -1.8761  1.1748
   91CHL1   C27 9211   2.426   3.081   8.552 -1.0029  0.5460  0.1124
   91CHL1  H27A 9212   2.495   3.156   8.595  2.3374 -2.0665 -0.2978
   91CHL1  H27B 9213   2.459   2.987   8.601 -0.5786  0.5917 -0.0906
   91CHL1  H27C 9214   2.447   3.076   8.444 -0.4619  1.9564  0.1340
   92CHL1    C3 9215   4.382   5.753   6.741  0.4367  0.0135 -0.3122
   92CHL1    H3 9216   4.474   5.692   6.737 -0.1192 -0.8430 -0.1361
   92CHL1    O3 9217   4.319   5.750   6.613 -0.6340  0.7911  0.2054
   92CHL1   H3' 9218   4.282   5.835   6.586 -0.8743  0.6894  0.2199
   92CHL1    C4 9219   4.280   5.666   6.827 -0.2718 -0.3275 -0.0825
   92CHL1   H4A 9220   4.185   5.721   6.809 -0.9135 -1.3392  0.1534
   92CHL1   H4B 9221   4.254   5.567   6.784  0.0447  0.8364 -3.2227
   92CHL1    C5 9222   4.315   5.668   6.974 -0.0585 -0.4490  0.3997
   92CHL1    C6 9223   4.327   5.549   7.036  0.3796 -0.2285 -0.0591
   92CHL1    H6 9224   4.284   5.462   6.984 -0.9944 -0.5681  1.5450
   92CHL1    C7 9225   4.378   5.534   7.179  0.4618  0.3041  0.0520
   92CHL1   H7A 9226   4.311   5.461   7.230 -0.6199  1.5415  0.4948
   92CHL1   H7B 9227   4.476   5.483   7.176  0.3827  0.1945 -1.2568
   92CHL1    C8 9228   4.369   5.669   7.254 -0.4179  0.1118  0.2614
   92CHL1    H8 9229   4.266   5.708   7.269 -0.2593  0.2911  0.9132
   92CHL1   C14 9230   4.435   5.661   7.390 -0.5875  0.1259  0.7452
   92CHL1   H14 9231   4.543   5.641   7.373 -0.7478 -1.0971  1.0584
   92CHL1   C15 9232   4.385   5.559   7.494 -0.3918  0.7868  0.3449
   92CHL1  H15A 9233   4.276   5.539   7.489 -0.5030  1.4042  0.2620
   92CHL1  H15B 9234   4.436   5.468   7.453  0.7421  2.5779 -2.5368
   92CHL1   C16 9235   4.427   5.609   7.632  0.4245 -0.3724 -0.1218
   92CHL1  H16A 9236   4.331   5.640   7.679 -0.5555 -1.7276 -1.1339
   92CHL1  H16B 9237   4.482   5.532   7.690 -0.4036 -1.7351 -1.0803
   92CHL1   C17 9238   4.505   5.743   7.598 -0.5269 -0.5575  0.1445
   92CHL1   H17 9239   4.610   5.712   7.579  0.3927  2.2636  0.1214
   92CHL1   C13 9240   4.441   5.793   7.468 -0.1071  0.2470 -0.2752
   92CHL1   C18 9241   4.294   5.843   7.497  0.4898 -0.2591  0.0941
   92CHL1  H18A 9242   4.233   5.782   7.567 -0.7237 -0.4497 -1.0925
   92CHL1  H18B 9243   4.297   5.940   7.550 -3.8748  0.1109  0.0212
   92CHL1  H18C 9244   4.236   5.849   7.402 -0.3675 -3.8151  0.2588
   92CHL1   C12 9245   4.522   5.894   7.385 -0.3944 -0.3010  0.6839
   92CHL1  H12A 9246   4.527   5.988   7.443 -0.5240  0.1222  0.0268
   92CHL1  H12B 9247   4.628   5.859   7.380  1.0661  3.4549  1.7425
   92CHL1   C11 9248   4.478   5.910   7.242 -0.1811 -0.6288 -0.4777
   92CHL1  H11A 9249   4.387   5.972   7.255 -0.8521 -1.7354  0.2132
   92CHL1  H11B 9250   4.559   5.968   7.193 -0.3657 -0.4930 -0.6249
   92CHL1    C9 9251   4.441   5.774   7.170  0.0733 -0.7073 -0.5453
   92CHL1    H9 9252   4.540   5.731   7.143  0.6716 -1.5338  2.6363
   92CHL1   C10 9253   4.367   5.806   7.035  0.6377  0.1130 -0.7318
   92CHL1   C19 9254   4.233   5.890   7.059 -0.1755 -0.0708 -0.3761
   92CHL1  H19A 9255   4.261   5.989   7.101 -0.5352 -0.7994  1.7168
   92CHL1  H19B 9256   4.183   5.894   6.960  0.0170 -1.9427 -0.5993
   92CHL1  H19C 9257   4.162   5.839   7.128  0.4841 -0.5625 -0.0502
   92CHL1    C1 9258   4.459   5.890   6.937  0.6357  0.7780 -0.0818
   92CHL1   H1A 9259   4.468   5.997   6.964 -1.4120  0.6051  1.6281
   92CHL1   H1B 9260   4.561   5.847   6.941 -0.7487 -2.8972  0.4310
   92CHL1    C2 9261   4.410   5.889   6.792 -0.4051  0.6659  0.1879
   92CHL1   H2A 9262   4.486   5.941   6.730  0.6814  1.2819  1.9528
   92CHL1   H2B 9263   4.315   5.946   6.799 -1.2799 -0.9330  2.4017
   92CHL1   C20 9264   4.512   5.841   7.709 -0.0174  0.1323  0.5611
   92CHL1   H20 9265   4.509   5.944   7.667  0.5320  0.3583  1.0652
   92CHL1   C21 9266   4.650   5.826   7.778 -0.1623 -0.6365 -0.0581
   92CHL1  H21A 9267   4.728   5.823   7.698 -2.5136 -1.0281 -2.4886
   92CHL1  H21B 9268   4.655   5.729   7.832 -1.2670 -1.4484 -1.3503
   92CHL1  H21C 9269   4.684   5.914   7.837 -1.4183 -1.6316  2.3009
   92CHL1   C22 9270   4.402   5.825   7.808 -0.1889 -0.2065  0.6711
   92CHL1  H22A 9271   4.309   5.822   7.747  1.5766  0.4860 -2.2763
   92CHL1  H22B 9272   4.412   5.725   7.856 -3.2694 -2.0314 -2.0778
   92CHL1   C23 9273   4.405   5.938   7.907  0.6133 -0.6834 -0.8097
   92CHL1  H23A 9274   4.479   5.928   7.988 -0.1264 -0.0497 -0.0456
   92CHL1  H23B 9275   4.424   6.035   7.857 -0.6122 -0.2871 -0.5392
   92CHL1   C24 9276   4.267   5.933   7.973 -0.0504  0.4750 -0.1923
   92CHL1  H24A 9277   4.186   5.966   7.905 -1.5754  1.2305  1.8646
   92CHL1  H24B 9278   4.242   5.830   8.006  0.4250  0.6975  0.9015
   92CHL1   C25 9279   4.258   6.026   8.096  0.6679 -0.1924  0.0636
   92CHL1   H25 9280   4.338   5.999   8.168 -0.2051  1.7012  1.8131
   92CHL1   C26 9281   4.281   6.165   8.046  0.8927 -0.1802  0.3293
   92CHL1  H26A 9282   4.214   6.190   7.961  1.1446  0.4552  0.3110
   92CHL1  H26B 9283   4.255   6.230   8.132 -0.2214  0.6865 -0.6230
   92CHL1  H26C 9284   4.388   6.184   8.022  0.7888  1.0187  0.7729
   92CHL1   C27 9285   4.122   6.016   8.171  0.5643  0.0293  0.4676
   92CHL1  H27A 9286   4.052   6.070   8.105 -0.2856  0.6473  1.8289
   92CHL1  H27B 9287   4.088   5.911   8.188 -0.5069  0.0793 -1.1954
   92CHL1  H27C 9288   4.128   6.075   8.265  1.0259  2.1864 -0.8624
   93CHL1    C3 9289   3.251   3.106   6.850  0.0079 -0.0420 -0.7253
   93CHL1    H3 9290   3.288   3.211   6.857 -2.9331  1.1106 -0.8287
   93CHL1    O3 9291   3.196   3.105   6.723 -0.0817  0.1321 -0.7021
   93CHL1   H3' 9292   3.239   3.042   6.664  2.5487  0.6176  0.5596
   93CHL1    C4 9293   3.374   3.023   6.867 -0.2062 -0.5536 -0.3326
   93CHL1   H4A 9294   3.343   2.918   6.845 -0.7589 -0.8388  1.6307
   93CHL1   H4B 9295   3.447   3.065   6.794  1.2955  1.3093  2.0708
   93CHL1    C5 9296   3.430   3.010   7.005 -0.4691 -0.4554 -0.7335
   93CHL1    C6 9297   3.561   3.031   7.033  0.2671  0.3824 -0.3924
   93CHL1    H6 9298   3.626   3.052   6.947  1.1034  1.6621  0.5065
   93CHL1    C7 9299   3.626   3.047   7.168 -0.9687  0.4792 -0.0408
   93CHL1   H7A 9300   3.724   2.995   7.175 -0.0091  2.4195  2.7405
   93CHL1   H7B 9301   3.639   3.155   7.189 -3.2296  0.5053  1.6284
   93CHL1    C8 9302   3.534   2.966   7.273  0.2072 -0.5410  0.1430
   93CHL1    H8 9303   3.545   2.856   7.260 -1.7666 -0.8414  0.7711
   93CHL1   C14 9304   3.590   3.005   7.408 -0.0328  0.0519  0.1011
   93CHL1   H14 9305   3.580   3.115   7.414 -1.2024  0.0462 -1.1649
   93CHL1   C15 9306   3.740   2.979   7.443  0.4625 -0.3467  0.8582
   93CHL1  H15A 9307   3.766   2.874   7.418  1.1514 -0.7480  3.0314
   93CHL1  H15B 9308   3.792   3.050   7.374  0.4304  0.6648  1.8349
   93CHL1   C16 9309   3.747   2.991   7.591 -0.6824  0.9433  0.3003
   93CHL1  H16A 9310   3.781   2.895   7.635  0.4068  0.3707 -1.6524
   93CHL1  H16B 9311   3.816   3.073   7.621  0.5737  0.1784 -0.3764
   93CHL1   C17 9312   3.600   3.021   7.636  0.1668  0.2628 -0.1054
   93CHL1   H17 9313   3.602   3.132   7.634  1.9197  0.2704  0.2077
   93CHL1   C13 9314   3.510   2.958   7.526 -0.1762  0.1190  0.3972
   93CHL1   C18 9315   3.521   2.800   7.533 -0.5482 -0.2987  0.2783
   93CHL1  H18A 9316   3.627   2.766   7.538  0.0405  1.5711  2.2327
   93CHL1  H18B 9317   3.476   2.763   7.627  3.1039 -0.1662  2.2652
   93CHL1  H18C 9318   3.471   2.754   7.445 -1.0821 -0.4025  0.6278
   93CHL1   C12 9319   3.361   2.996   7.512 -0.0077  0.1325  0.1639
   93CHL1  H12A 9320   3.301   2.946   7.591  1.2589 -1.2738  0.2877
   93CHL1  H12B 9321   3.358   3.107   7.514  1.7497  0.1935  0.6317
   93CHL1   C11 9322   3.301   2.966   7.373 -0.0955  0.6614 -0.4069
   93CHL1  H11A 9323   3.276   2.858   7.362  0.7918  0.2390  1.2819
   93CHL1  H11B 9324   3.204   3.019   7.368 -0.7935 -0.1181  2.7248
   93CHL1    C9 9325   3.389   3.015   7.261 -0.0737  0.7746 -0.2503
   93CHL1    H9 9326   3.402   3.125   7.269  0.7508  0.9335 -2.9747
   93CHL1   C10 9327   3.324   2.986   7.120 -0.7076  0.5368 -0.1010
   93CHL1   C19 9328   3.299   2.833   7.104  0.4295 -0.1205  0.5834
   93CHL1  H19A 9329   3.379   2.776   7.156  1.5201 -1.7030 -2.5629
   93CHL1  H19B 9330   3.206   2.810   7.160 -1.3349  0.3078 -2.0103
   93CHL1  H19C 9331   3.289   2.790   7.002 -0.9387  0.7119  0.3439
   93CHL1    C1 9332   3.207   3.076   7.101  0.2173 -0.0805  0.2230
   93CHL1   H1A 9333   3.126   3.074   7.178  0.3047  0.8835  0.3615
   93CHL1   H1B 9334   3.241   3.181   7.117  1.0065  0.1486 -2.5946
   93CHL1    C2 9335   3.145   3.080   6.960  0.4764  0.0546 -0.3896
   93CHL1   H2A 9336   3.069   3.160   6.969  2.3866  1.7777  1.6496
   93CHL1   H2B 9337   3.105   2.981   6.930  3.1388 -1.7606  1.5272
   93CHL1   C20 9338   3.582   2.993   7.789  0.4986 -0.3942 -0.1342
   93CHL1   H20 9339   3.596   2.883   7.799  0.8542 -0.3166  0.2733
   93CHL1   C21 9340   3.434   3.027   7.831 -1.0181  0.0221  0.0973
   93CHL1  H21A 9341   3.404   3.134   7.820  2.1070  1.0711  0.7859
   93CHL1  H21B 9342   3.425   2.999   7.938 -1.5817 -0.3035 -0.0334
   93CHL1  H21C 9343   3.369   2.957   7.774 -0.0294 -0.5609 -0.3560
   93CHL1   C22 9344   3.680   3.063   7.885 -0.0576  1.2133 -0.0853
   93CHL1  H22A 9345   3.782   3.048   7.843 -0.7738  1.3426 -1.9856
   93CHL1  H22B 9346   3.656   3.172   7.889  1.0565  1.4919 -0.4828
   93CHL1   C23 9347   3.692   3.010   8.024  0.1817  0.0437  0.3183
   93CHL1  H23A 9348   3.599   3.041   8.076  0.0145  0.2731 -0.1177
   93CHL1  H23B 9349   3.701   2.899   8.021 -1.4441 -0.0969 -0.0782
   93CHL1   C24 9350   3.816   3.066   8.091 -0.4976  0.2362  0.0265
   93CHL1  H24A 9351   3.897   3.058   8.016 -0.2086 -0.7813  0.4367
   93CHL1  H24B 9352   3.801   3.175   8.109  0.7383  0.0178  2.8514
   93CHL1   C25 9353   3.866   2.992   8.215 -0.0053 -0.1866  0.7484
   93CHL1   H25 9354   3.890   2.886   8.193 -1.1961 -0.0246 -1.6515
   93CHL1   C26 9355   4.003   3.043   8.268 -0.2809 -0.4644 -0.1181
   93CHL1  H26A 9356   4.034   2.982   8.356  0.6766  2.0193  1.3683
   93CHL1  H26B 9357   4.070   3.055   8.180 -1.8841 -0.4828 -1.3783
   93CHL1  H26C 9358   3.979   3.146   8.303  0.2197 -0.3771 -0.0245
   93CHL1   C27 9359   3.772   2.995   8.340  0.4016  0.0256 -0.1075
   93CHL1  H27A 9360   3.727   3.097   8.348  0.0919 -0.1215  0.0754
   93CHL1  H27B 9361   3.700   2.912   8.320 -0.1458 -0.0404  1.8881
   93CHL1  H27C 9362   3.830   2.973   8.432 -2.1361  0.1396  1.6388
   94CHL1    C3 9363   5.900   0.471   6.784  0.2887 -0.1514  0.8551
   94CHL1    H3 9364   6.006   0.458   6.813  0.7135 -1.0620 -0.9225
   94CHL1    O3 9365   5.871   0.509   6.650 -0.1610  0.0035 -0.6051
   94CHL1   H3' 9366   5.831   0.596   6.645 -0.7689 -0.3438 -2.2928
   94CHL1    C4 9367   5.819   0.348   6.818  0.2930  0.5155 -1.0413
   94CHL1   H4A 9368   5.713   0.366   6.790  0.6724  0.8751 -2.2917
   94CHL1   H4B 9369   5.865   0.276   6.747 -0.6280 -0.1803 -0.9581
   94CHL1    C5 9370   5.834   0.305   6.965 -0.4214 -0.4549 -0.3575
   94CHL1    C6 9371   5.874   0.181   7.005  0.8927 -0.2218  0.4373
   94CHL1    H6 9372   5.887   0.110   6.922 -2.4609  0.9590 -1.2562
   94CHL1    C7 9373   5.884   0.132   7.143 -0.2027 -0.3026  0.3969
   94CHL1   H7A 9374   5.829   0.037   7.159 -1.8663  0.7014  0.9323
   94CHL1   H7B 9375   5.992   0.117   7.165 -0.1751 -1.8266 -0.6238
   94CHL1    C8 9376   5.832   0.230   7.248  0.1004  0.5818  0.5902
   94CHL1    H8 9377   5.722   0.223   7.257 -0.0749  0.3013 -1.2419
   94CHL1   C14 9378   5.901   0.205   7.383 -0.0629  0.5155  0.6652
   94CHL1   H14 9379   6.007   0.236   7.372  0.6651 -1.5977  1.1059
   94CHL1   C15 9380   5.908   0.064   7.434  0.4401  0.7277  0.0477
   94CHL1  H15A 9381   5.815   0.012   7.402  1.8554 -1.0561 -1.3464
   94CHL1  H15B 9382   5.990   0.001   7.394 -0.5876  0.3863 -1.6222
   94CHL1   C16 9383   5.926   0.078   7.587 -0.1515  0.4500  0.5494
   94CHL1  H16A 9384   5.839   0.022   7.628 -2.5559  4.1007  0.9830
   94CHL1  H16B 9385   6.012   0.016   7.621  2.1009  2.8034 -0.4611
   94CHL1   C17 9386   5.927   0.227   7.611 -0.0195 -0.0620 -0.3348
   94CHL1   H17 9387   6.028   0.271   7.601  0.3046 -0.6400  0.3248
   94CHL1   C13 9388   5.848   0.294   7.495 -0.3842  0.0442 -0.3622
   94CHL1   C18 9389   5.698   0.266   7.516  0.0903 -0.0018  0.0140
   94CHL1  H18A 9390   5.658   0.330   7.598  0.1688 -2.3740  2.0205
   94CHL1  H18B 9391   5.635   0.274   7.424 -0.8568 -0.0010  0.6443
   94CHL1  H18C 9392   5.675   0.166   7.558 -1.2668  0.8008  1.3151
   94CHL1   C12 9393   5.865   0.443   7.458 -0.2271 -0.2607 -0.7182
   94CHL1  H12A 9394   5.812   0.512   7.527  0.7870 -0.3229  0.1588
   94CHL1  H12B 9395   5.972   0.472   7.470 -0.7297  1.0372  0.9327
   94CHL1   C11 9396   5.815   0.475   7.315  0.0859 -0.2040  0.1207
   94CHL1  H11A 9397   5.705   0.481   7.329  0.1043 -1.3994  0.8865
   94CHL1  H11B 9398   5.846   0.577   7.283  1.7568 -0.6998  0.0600
   94CHL1    C9 9399   5.863   0.381   7.206 -0.0362  0.0598 -0.1823
   94CHL1    H9 9400   5.972   0.378   7.189 -0.1595 -0.3641 -0.9451
   94CHL1   C10 9401   5.808   0.412   7.065 -0.1675 -0.4735  0.0219
   94CHL1   C19 9402   5.657   0.423   7.078 -0.7618 -0.7994 -0.9383
   94CHL1  H19A 9403   5.608   0.424   6.977  0.9077 -0.1143 -1.7701
   94CHL1  H19B 9404   5.609   0.335   7.127 -0.8565  0.4546  1.3456
   94CHL1  H19C 9405   5.633   0.520   7.125  0.2408  0.1743 -2.3646
   94CHL1    C1 9406   5.876   0.552   7.025 -0.2837 -0.4736  0.3718
   94CHL1   H1A 9407   5.835   0.634   7.088 -2.7997 -0.7404 -0.8168
   94CHL1   H1B 9408   5.984   0.559   7.050  0.2358 -1.4930 -1.4775
   94CHL1    C2 9409   5.858   0.589   6.873  0.2932  0.2382  0.6410
   94CHL1   H2A 9410   5.911   0.678   6.832  3.7897 -2.2042 -0.6769
   94CHL1   H2B 9411   5.749   0.599   6.854  0.3116 -1.8005 -0.8239
   94CHL1   C20 9412   5.886   0.264   7.752  0.8440 -0.0561 -0.1109
   94CHL1   H20 9413   5.776   0.263   7.760  0.6479 -2.2938 -2.0120
   94CHL1   C21 9414   5.934   0.413   7.781  0.0877  0.9899 -0.3291
   94CHL1  H21A 9415   5.861   0.481   7.733 -0.9828  0.1156  0.0115
   94CHL1  H21B 9416   6.038   0.422   7.743 -0.5536 -0.0744 -2.5742
   94CHL1  H21C 9417   5.920   0.426   7.890 -0.9533  1.0422 -0.4591
   94CHL1   C22 9418   5.939   0.170   7.864 -0.5597  0.2750 -0.2941
   94CHL1  H22A 9419   5.893   0.206   7.959  2.0498 -2.0404  2.0250
   94CHL1  H22B 9420   5.916   0.064   7.839 -0.5982 -0.5619  2.8173
   94CHL1   C23 9421   6.090   0.167   7.880  0.0144 -0.6084 -0.9314
   94CHL1  H23A 9422   6.132   0.129   7.785  0.0830 -0.9503 -0.7651
   94CHL1  H23B 9423   6.127   0.268   7.909  1.0338 -1.6044  1.5359
   94CHL1   C24 9424   6.142   0.083   8.003 -0.6963  0.3616  0.5540
   94CHL1  H24A 9425   6.097   0.137   8.089 -2.1368  0.4679 -0.2250
   94CHL1  H24B 9426   6.086  -0.013   7.998 -3.8002  1.7719  3.5546
   94CHL1   C25 9427   6.294   0.063   8.013 -0.1528 -0.3526  0.1817
   94CHL1   H25 9428   6.334   0.156   8.059  3.3119 -1.1713 -0.8831
   94CHL1   C26 9429   6.321  -0.038   8.128  0.8138  0.1951 -0.3200
   94CHL1  H26A 9430   6.430  -0.041   8.151  0.9085  2.3434 -0.2569
   94CHL1  H26B 9431   6.267  -0.003   8.218  2.5099  2.7002 -0.1679
   94CHL1  H26C 9432   6.293  -0.140   8.094  0.5987  0.6128 -1.4629
   94CHL1   C27 9433   6.354   0.024   7.881 -0.1174  0.5336 -0.0589
   94CHL1  H27A 9434   6.368   0.114   7.817  1.9576 -0.2302 -0.7369
   94CHL1  H27B 9435   6.458  -0.011   7.891 -0.2405 -0.6107 -2.2170
   94CHL1  H27C 9436   6.305  -0.063   7.833  0.6427 -0.1953  0.4717
   95CHL1    C3 9437   5.615   4.206   6.603 -0.5008  0.5384  0.8092
   95CHL1    H3 9438   5.714   4.172   6.641  0.4557  1.7722 -0.4839
   95CHL1    O3 9439   5.590   4.172   6.468 -0.0732 -0.6347 -0.2831
   95CHL1   H3' 9440   5.507   4.211   6.439  0.6711  1.1842 -0.1134
   95CHL1    C4 9441   5.506   4.136   6.689  0.3777  0.1149 -0.5617
   95CHL1   H4A 9442   5.410   4.178   6.652  1.1152  0.3419 -2.3088
   95CHL1   H4B 9443   5.495   4.027   6.667 -0.1796  0.2859 -1.1842
   95CHL1    C5 9444   5.519   4.160   6.839  0.2189 -0.3304 -0.4501
   95CHL1    C6 9445   5.527   4.058   6.930 -0.3221 -0.1656  0.0510
   95CHL1    H6 9446   5.500   3.960   6.887  0.9085  0.3615 -2.0871
   95CHL1    C7 9447   5.536   4.076   7.083 -0.7360  0.5730  0.3988
   95CHL1   H7A 9448   5.455   4.010   7.122  0.1152 -0.0253  1.2044
   95CHL1   H7B 9449   5.632   4.034   7.120 -2.2454 -2.4691  1.2451
   95CHL1    C8 9450   5.522   4.223   7.127 -0.1990 -0.8166 -0.2610
   95CHL1    H8 9451   5.412   4.242   7.120 -0.1480 -0.7186 -0.8947
   95CHL1   C14 9452   5.579   4.242   7.256 -0.6198  0.3697 -0.2363
   95CHL1   H14 9453   5.689   4.243   7.248 -0.6959  1.1216 -1.5681
   95CHL1   C15 9454   5.566   4.142   7.366 -0.8934 -0.3755  0.6984
   95CHL1  H15A 9455   5.470   4.088   7.354  0.5806 -3.1695  0.7138
   95CHL1  H15B 9456   5.642   4.063   7.349 -2.5919 -1.8341 -0.3788
   95CHL1   C16 9457   5.571   4.210   7.502  0.7774  0.0939  0.3975
   95CHL1  H16A 9458   5.475   4.207   7.558  0.5497  0.5934  0.0383
   95CHL1  H16B 9459   5.654   4.172   7.566  0.7099  0.4589  0.7097
   95CHL1   C17 9460   5.589   4.363   7.464  0.3153 -0.2949 -0.7172
   95CHL1   H17 9461   5.699   4.380   7.470  0.0417  1.1413  1.3176
   95CHL1   C13 9462   5.541   4.376   7.317  0.9122  0.2398 -0.1012
   95CHL1   C18 9463   5.383   4.391   7.320 -0.3825 -0.4377  0.6085
   95CHL1  H18A 9464   5.343   4.404   7.217  1.2928  0.2164 -0.0025
   95CHL1  H18B 9465   5.335   4.306   7.374  0.7708 -0.6764  1.2896
   95CHL1  H18C 9466   5.345   4.482   7.372 -0.4386  0.0919 -0.3388
   95CHL1   C12 9467   5.613   4.481   7.230 -0.3620 -0.3251  0.5295
   95CHL1  H12A 9468   5.585   4.581   7.270  1.4593 -0.3672  2.0348
   95CHL1  H12B 9469   5.722   4.463   7.244 -0.5463 -1.8634  0.1272
   95CHL1   C11 9470   5.578   4.476   7.084 -0.0142 -0.6922  0.5158
   95CHL1  H11A 9471   5.473   4.508   7.073  0.2907  0.2133  0.2096
   95CHL1  H11B 9472   5.649   4.538   7.026 -2.1275  0.6055 -0.7826
   95CHL1    C9 9473   5.582   4.330   7.028 -0.2709 -0.4600 -0.4450
   95CHL1    H9 9474   5.691   4.310   7.032 -0.4215 -1.3920 -0.8126
   95CHL1   C10 9475   5.537   4.306   6.878 -0.8264 -0.3527 -0.0187
   95CHL1   C19 9476   5.400   4.377   6.869 -0.3536 -0.6828 -0.0542
   95CHL1  H19A 9477   5.341   4.352   6.779 -1.1645 -1.7660  0.7388
   95CHL1  H19B 9478   5.331   4.345   6.951 -1.4944 -0.0168 -0.7320
   95CHL1  H19C 9479   5.413   4.487   6.870 -1.3086 -0.5611  1.0718
   95CHL1    C1 9480   5.642   4.382   6.783 -0.3101  0.5771  0.0098
   95CHL1   H1A 9481   5.660   4.491   6.797 -0.9443  0.7490 -0.4967
   95CHL1   H1B 9482   5.735   4.328   6.812 -1.6268 -0.8561  1.8793
   95CHL1    C2 9483   5.606   4.355   6.637 -0.5016 -0.9914 -0.4880
   95CHL1   H2A 9484   5.689   4.395   6.575  0.9588 -0.2685  1.8039
   95CHL1   H2B 9485   5.508   4.397   6.607  0.8969  3.5279  0.4497
   95CHL1   C20 9486   5.532   4.456   7.577 -0.1525  0.4707  0.7946
   95CHL1   H20 9487   5.423   4.439   7.590  0.0932  0.6213  3.9688
   95CHL1   C21 9488   5.561   4.608   7.548  0.2032  0.4826 -0.6917
   95CHL1  H21A 9489   5.547   4.668   7.640  0.3747 -0.1947 -0.2160
   95CHL1  H21B 9490   5.489   4.649   7.474 -2.0683 -0.6122  0.8112
   95CHL1  H21C 9491   5.663   4.631   7.511  0.2294  1.1269 -0.2349
   95CHL1   C22 9492   5.587   4.424   7.723  0.5749  0.8541  0.6431
   95CHL1  H22A 9493   5.613   4.316   7.725 -0.8043  0.5027  0.8922
   95CHL1  H22B 9494   5.681   4.480   7.743  1.3495  0.6111 -1.9459
   95CHL1   C23 9495   5.494   4.449   7.840  0.3100 -0.0543 -0.4112
   95CHL1  H23A 9496   5.557   4.441   7.931  0.2028 -0.1968 -0.3494
   95CHL1  H23B 9497   5.459   4.554   7.833  2.4655  0.6827 -1.0948
   95CHL1   C24 9498   5.373   4.355   7.841 -0.9799  0.0865  0.0889
   95CHL1  H24A 9499   5.307   4.380   7.756  2.5461  3.1731 -2.0324
   95CHL1  H24B 9500   5.408   4.249   7.836  2.8599  1.0968  1.6021
   95CHL1   C25 9501   5.306   4.363   7.972  0.2494  0.9881  0.3518
   95CHL1   H25 9502   5.376   4.334   8.054 -1.3307  0.3491  1.5262
   95CHL1   C26 9503   5.273   4.504   8.027  0.5925  0.1475  0.2563
   95CHL1  H26A 9504   5.367   4.563   8.039  1.6211 -0.9256 -1.9178
   95CHL1  H26B 9505   5.202   4.566   7.968  1.3095  0.5699 -0.1778
   95CHL1  H26C 9506   5.224   4.494   8.126 -4.5375  0.4106 -1.9591
   95CHL1   C27 9507   5.187   4.260   7.973 -0.3908 -0.6139 -0.4846
   95CHL1  H27A 9508   5.143   4.263   8.074  1.1533 -0.0454  0.2076
   95CHL1  H27B 9509   5.113   4.294   7.897  1.7970  0.6751 -2.1632
   95CHL1  H27C 9510   5.225   4.160   7.943 -2.7826 -1.8641  0.3741
   96CHL1    C3 9511   6.086   4.479   6.688 -0.0191  0.2643  0.0860
   96CHL1    H3 9512   6.179   4.424   6.664 -0.9808 -1.3740 -0.0402
   96CHL1    O3 9513   6.031   4.512   6.557 -0.0090  0.1592 -0.2054
   96CHL1   H3' 9514   5.963   4.571   6.590  1.9627  1.4426  1.8620
   96CHL1    C4 9515   5.987   4.400   6.769 -0.2980 -0.0212 -1.0654
   96CHL1   H4A 9516   5.895   4.464   6.769  0.5303  1.2029 -1.0494
   96CHL1   H4B 9517   5.979   4.310   6.705 -0.5547  0.6493 -1.9966
   96CHL1    C5 9518   6.039   4.371   6.915 -0.2183 -0.8884  0.5088
   96CHL1    C6 9519   6.080   4.254   6.966 -0.6683  0.3002 -0.9462
   96CHL1    H6 9520   6.072   4.167   6.899  0.2080  0.1387 -0.8527
   96CHL1    C7 9521   6.123   4.222   7.106 -0.3041 -0.5023 -0.0323
   96CHL1   H7A 9522   6.080   4.126   7.144 -2.3128  0.1312 -0.5676
   96CHL1   H7B 9523   6.234   4.221   7.113 -0.4192 -0.8426  2.6325
   96CHL1    C8 9524   6.093   4.345   7.200 -0.0130 -0.0429 -0.9932
   96CHL1    H8 9525   5.984   4.333   7.216  0.1032  0.4407  0.3813
   96CHL1   C14 9526   6.166   4.339   7.330  0.4630 -0.0405 -0.6205
   96CHL1   H14 9527   6.277   4.338   7.318  0.6380 -0.8619  0.8648
   96CHL1   C15 9528   6.165   4.213   7.418  0.2260 -0.2587  0.2393
   96CHL1  H15A 9529   6.062   4.180   7.446  0.3050 -0.5250  0.2216
   96CHL1  H15B 9530   6.221   4.128   7.374  1.5237  1.5990 -1.9063
   96CHL1   C16 9531   6.224   4.264   7.558  0.0536  0.1597 -0.5861
   96CHL1  H16A 9532   6.140   4.233   7.623 -1.2763  2.0289 -1.3555
   96CHL1  H16B 9533   6.322   4.215   7.578 -0.4868 -0.7093  0.0006
   96CHL1   C17 9534   6.226   4.419   7.557 -0.5456  0.3868 -0.5068
   96CHL1   H17 9535   6.329   4.443   7.522 -0.4447  1.0163  0.2129
   96CHL1   C13 9536   6.144   4.455   7.431  0.3167  0.0658 -0.3885
   96CHL1   C18 9537   5.993   4.453   7.460  0.0041 -0.2338 -0.2106
   96CHL1  H18A 9538   5.965   4.354   7.505  1.3155  0.0000  1.1970
   96CHL1  H18B 9539   5.969   4.530   7.537 -0.4865 -1.4003  0.8505
   96CHL1  H18C 9540   5.926   4.469   7.373  1.6945 -0.2438 -1.5440
   96CHL1   C12 9541   6.192   4.580   7.359 -0.0433  0.8399 -0.3153
   96CHL1  H12A 9542   6.189   4.668   7.426 -2.9646 -0.7323  1.8902
   96CHL1  H12B 9543   6.297   4.551   7.337 -0.9658 -0.7626 -3.1258
   96CHL1   C11 9544   6.118   4.596   7.223  0.0229 -0.0938 -0.0008
   96CHL1  H11A 9545   6.013   4.623   7.249 -0.0669 -1.1566  0.8204
   96CHL1  H11B 9546   6.167   4.681   7.171  0.9113 -1.8314 -2.1407
   96CHL1    C9 9547   6.133   4.476   7.130  0.1006  0.2668  0.8061
   96CHL1    H9 9548   6.241   4.463   7.109 -0.8548 -2.7874 -3.5695
   96CHL1   C10 9549   6.065   4.501   6.993 -0.8929 -0.7971 -0.5496
   96CHL1   C19 9550   5.934   4.582   7.012  0.7213 -0.3614  0.2542
   96CHL1  H19A 9551   5.955   4.691   7.025  1.4100 -0.5698  0.9359
   96CHL1  H19B 9552   5.854   4.589   6.936 -0.7032 -1.1389  1.6217
   96CHL1  H19C 9553   5.882   4.541   7.101  0.3395 -1.7827 -0.6038
   96CHL1    C1 9554   6.161   4.596   6.906 -0.5766  0.6012  0.3093
   96CHL1   H1A 9555   6.170   4.695   6.956  0.3051  1.7357 -1.9764
   96CHL1   H1B 9556   6.256   4.539   6.904 -1.6007 -1.1830  0.5957
   96CHL1    C2 9557   6.118   4.613   6.755  0.3011  0.1887  0.1465
   96CHL1   H2A 9558   6.199   4.653   6.691  0.1688 -1.2159 -0.9735
   96CHL1   H2B 9559   6.033   4.684   6.758 -1.1276 -1.4717  0.7665
   96CHL1   C20 9560   6.192   4.499   7.683 -0.1498 -0.0560  0.9594
   96CHL1   H20 9561   6.163   4.601   7.651  1.5409  0.0678 -0.3188
   96CHL1   C21 9562   6.315   4.527   7.765  0.0842 -0.4036  0.3120
   96CHL1  H21A 9563   6.308   4.602   7.846 -1.1135  1.2896 -1.2785
   96CHL1  H21B 9564   6.385   4.577   7.694  1.0298  0.0588  1.5381
   96CHL1  H21C 9565   6.360   4.430   7.796  0.8206 -1.1319 -2.6749
   96CHL1   C22 9566   6.092   4.422   7.778 -0.8896  0.2007 -0.1458
   96CHL1  H22A 9567   6.012   4.391   7.708 -1.1892 -0.0898  0.3173
   96CHL1  H22B 9568   6.149   4.336   7.820  0.6851 -0.0371 -2.5869
   96CHL1   C23 9569   6.031   4.503   7.899 -0.3817  0.8037 -0.0748
   96CHL1  H23A 9570   6.112   4.536   7.968  1.5655 -0.3741 -1.6646
   96CHL1  H23B 9571   5.998   4.602   7.861  0.0600 -0.0697 -2.9533
   96CHL1   C24 9572   5.934   4.404   7.966 -0.0996  0.4226  0.4144
   96CHL1  H24A 9573   5.858   4.353   7.902  0.7146 -0.9711  0.5196
   96CHL1  H24B 9574   5.993   4.335   8.030 -3.9904 -0.4200  3.5011
   96CHL1   C25 9575   5.876   4.485   8.077  0.2534  0.6945 -0.5822
   96CHL1   H25 9576   5.972   4.520   8.119  1.1975  0.2915 -2.3282
   96CHL1   C26 9577   5.808   4.614   8.051  0.4692  0.2575 -0.1399
   96CHL1  H26A 9578   5.887   4.691   8.037  0.9792 -0.3428 -0.6078
   96CHL1  H26B 9579   5.733   4.614   7.970 -0.6157 -0.1856  0.8344
   96CHL1  H26C 9580   5.757   4.641   8.146  1.3077  2.1264 -0.1682
   96CHL1   C27 9581   5.803   4.392   8.169  0.1379 -0.0872  0.0192
   96CHL1  H27A 9582   5.874   4.328   8.225  0.3438  0.6624  0.6416
   96CHL1  H27B 9583   5.736   4.446   8.240 -1.5105  0.7375 -2.0425
   96CHL1  H27C 9584   5.742   4.316   8.116  0.7279  0.3213 -1.2952
   97OSM      N 9585   2.785   5.364  11.366  0.1018 -0.3782 -0.0965
   97OSM    C15 9586   2.903   5.457  11.359  0.3042 -0.5815  0.5785
   97OSM   H15A 9587   2.926   5.498  11.456  0.9796 -0.1893  0.2613
   97OSM   H15B 9588   2.882   5.537  11.290  1.7949  0.7985  1.6394
   97OSM   H15C 9589   2.985   5.398  11.320 -2.6795 -4.1707 -0.8625
   97OSM    C14 9590   2.804   5.277  11.482 -0.0272  0.3399 -0.1632
   97OSM   H14A 9591   2.722   5.210  11.504  1.4200 -1.5081 -0.1919
   97OSM   H14B 9592   2.831   5.332  11.571  1.7911 -0.3112 -0.2840
   97OSM   H14C 9593   2.887   5.214  11.456  0.0903 -0.1385  1.2927
   97OSM    C13 9594   2.668   5.447  11.398 -0.4932 -0.1744  0.6173
   97OSM   H13A 9595   2.649   5.527  11.328 -0.2147 -1.5722 -1.1575
   97OSM   H13B 9596   2.682   5.481  11.499  0.4534 -1.3365  0.9061
   97OSM   H13C 9597   2.575   5.393  11.409 -1.0298  0.7151  0.5398
   97OSM    C12 9598   2.765   5.290  11.238  0.6752 -0.4722 -0.3497
   97OSM   H12A 9599   2.740   5.377  11.180  1.8881 -0.2266 -0.5212
   97OSM   H12B 9600   2.684   5.218  11.227  1.8802 -1.8821 -0.3509
   97OSM    C11 9601   2.888   5.225  11.185 -0.4368  0.7785  0.3474
   97OSM   H11A 9602   2.976   5.293  11.187  0.1253  0.0972 -0.3484
   97OSM   H11B 9603   2.884   5.200  11.077  0.3064  1.5418  0.1296
   97OSM      P 9604   3.042   5.021  11.247 -0.2642 -0.3235  0.0034
   97OSM    O13 9605   3.153   5.107  11.296 -0.2997  0.0616 -0.7251
   97OSM    O14 9606   3.008   4.902  11.323 -0.5058 -0.2307  0.2226
   97OSM    O11 9607   3.073   4.976  11.092 -0.1742 -0.6731  0.1636
   97OSM    O12 9608   2.910   5.107  11.259 -0.4327 -0.3185  0.2679
   97OSM    C1S 9609   2.962   4.946  11.005 -0.8962  0.3182  0.5735
   97OSM    H1S 9610   2.867   4.950  11.063 -1.1405  0.7261  0.1489
   97OSM    H1T 9611   2.974   4.839  10.977  0.9271  0.5277  0.4303
   97OSM     NF 9612   2.850   4.994  10.804  0.0738  0.3975 -0.5231
   97OSM    HNF 9613   2.864   4.933  10.726  3.2739  1.8096 -1.2460
   97OSM    C2S 9614   2.969   5.029  10.876  0.2879 -0.4441 -0.4260
   97OSM    H2S 9615   2.972   5.137  10.903  2.7217 -0.6155  0.2648
   97OSM    C3S 9616   3.099   5.000  10.802  0.1483  0.4453  0.2469
   97OSM    H3S 9617   3.088   4.893  10.774  1.1278  0.0282  1.3877
   97OSM     O3 9618   3.217   4.997  10.882 -0.2170  0.2169 -0.1423
   97OSM    HO3 9619   3.189   5.003  10.974 -0.5498  2.1835 -0.3294
   97OSM    C4S 9620   3.106   5.081  10.671  0.7118  0.6601 -0.2757
   97OSM    H4S 9621   3.080   5.014  10.588  0.9725 -0.1202  0.2528
   97OSM    C5S 9622   3.158   5.201  10.647 -0.4639  0.1716 -0.0284
   97OSM    H5S 9623   3.212   5.253  10.727  1.5887 -0.5625 -0.8787
   97OSM    C6S 9624   3.159   5.251  10.503 -0.5169 -0.0096 -0.2790
   97OSM    H6S 9625   3.266   5.272  10.481 -0.6438 -0.6431 -1.6257
   97OSM    H6T 9626   3.119   5.354  10.511 -0.6557 -0.1786  1.7185
   97OSM    C7S 9627   3.108   5.173  10.386 -0.2274  0.8758 -0.0136
   97OSM    H7S 9628   3.008   5.126  10.401 -0.2910  0.4066 -1.6412
   97OSM    H7T 9629   3.175   5.085  10.382 -0.7180  0.4564  0.8768
   97OSM    C8S 9630   3.101   5.246  10.256  0.2722 -0.9277  0.4240
   97OSM    H8S 9631   3.179   5.325  10.256 -0.4972 -0.1090 -1.7582
   97OSM    H8T 9632   3.009   5.306  10.247  1.8282  1.8285  1.5397
   97OSM    C9S 9633   3.127   5.168  10.129  0.0645  0.2293 -0.2992
   97OSM    H9S 9634   3.226   5.118  10.134 -0.0052  0.1932  0.9691
   97OSM    H9T 9635   3.121   5.239  10.044 -0.8026 -0.2487 -0.6525
   97OSM   C10S 9636   3.037   5.054  10.103  0.5964  0.7086  0.7153
   97OSM   H10S 9637   2.935   5.097  10.090  0.2665 -0.2085  0.1558
   97OSM   H10T 9638   3.029   4.991  10.194 -0.6740 -0.4172 -0.1343
   97OSM   C11S 9639   3.065   4.969   9.984 -0.4503  0.4937  0.0946
   97OSM   H11S 9640   3.020   4.869   9.998  1.2515 -0.2901  0.2411
   97OSM   H11T 9641   3.174   4.954   9.969 -0.9300 -2.7738 -0.8874
   97OSM   C12S 9642   3.005   5.014   9.849  0.6144  0.0198 -0.1493
   97OSM   H12S 9643   3.052   5.112   9.824 -1.5240  0.9849 -0.6058
   97OSM   H12T 9644   2.894   5.024   9.847  0.5289 -0.9604 -0.6797
   97OSM   C13S 9645   3.052   4.918   9.729  0.6546 -0.7157 -0.1763
   97OSM   H13S 9646   2.991   4.829   9.755 -1.2539  0.3073 -0.9655
   97OSM   H13T 9647   3.158   4.891   9.746  0.3103 -0.9674  1.9004
   97OSM   C14S 9648   3.027   4.970   9.590 -0.4862 -0.1819 -0.3684
   97OSM   H14S 9649   3.100   5.054   9.587  0.3172 -0.8540 -0.0634
   97OSM   H14T 9650   2.924   5.012   9.583  0.2444  1.4247 -2.4360
   97OSM   C15S 9651   3.072   4.875   9.475 -0.6489 -0.5695 -0.3342
   97OSM   H15S 9652   3.052   4.773   9.513  1.2315 -1.3708 -1.3723
   97OSM   H15T 9653   3.182   4.878   9.463 -0.6195  0.1314  0.0204
   97OSM   C16S 9654   2.988   4.884   9.350 -0.2024 -0.8073 -0.1206
   97OSM   H16S 9655   2.956   4.985   9.318  1.2875 -0.5029 -0.7384
   97OSM   H16T 9656   2.888   4.839   9.366 -1.0194  1.2952  1.0878
   97OSM   C17S 9657   3.046   4.815   9.230  0.1366 -0.6052 -0.5252
   97OSM   H17S 9658   3.032   4.707   9.252 -2.6230 -0.2575 -0.2481
   97OSM   H17T 9659   3.152   4.845   9.218 -0.1334  0.5885 -0.0755
   97OSM   C18S 9660   2.973   4.856   9.103  0.4224 -0.0361  0.1175
   97OSM   H18S 9661   2.864   4.837   9.114  0.0723 -1.6205 -4.1359
   97OSM   H18T 9662   3.009   4.807   9.010  2.3711  0.5076  0.5463
   97OSM   H18U 9663   2.988   4.965   9.089  1.4231 -0.2071 -0.2063
   97OSM    C1F 9664   2.728   5.024  10.837  0.0794 -0.2121  0.3237
   97OSM     OF 9665   2.708   5.104  10.926 -0.2217 -0.2908  0.0380
   97OSM    C2F 9666   2.621   4.983  10.741  0.4645  0.0100  0.1733
   97OSM    H2F 9667   2.654   4.923  10.654 -0.4549 -1.3419  0.7117
   97OSM    H2G 9668   2.579   5.075  10.694 -1.0793 -0.1053  1.2301
   97OSM    C3F 9669   2.508   4.920  10.830  0.3494 -1.1833 -0.0898
   97OSM    H3F 9670   2.469   4.986  10.909  0.9940 -0.5796 -0.2619
   97OSM    H3G 9671   2.550   4.833  10.885  0.3801  0.5123  2.7513
   97OSM    C4F 9672   2.383   4.875  10.756 -0.1298 -0.5160 -0.2011
   97OSM    H4F 9673   2.338   4.953  10.691 -0.6283 -0.5661  0.0779
   97OSM    H4G 9674   2.306   4.849  10.831  0.8962  2.4284  2.0849
   97OSM    C5F 9675   2.423   4.748  10.681  0.6558  0.2655 -0.3073
   97OSM    H5F 9676   2.478   4.679  10.748 -0.5035  1.3938  1.9203
   97OSM    H5G 9677   2.496   4.786  10.606  1.5039 -1.0361 -0.1673
   97OSM    C6F 9678   2.305   4.675  10.623 -0.0995 -0.0444 -0.2540
   97OSM    H6F 9679   2.238   4.752  10.578 -0.3186 -0.5480 -0.8115
   97OSM    H6G 9680   2.233   4.627  10.693 -0.9007 -1.1298 -1.7487
   97OSM    C7F 9681   2.350   4.566  10.522 -0.2278 -0.2023  0.3620
   97OSM    H7F 9682   2.271   4.489  10.529 -0.8303  0.4464  0.9080
   97OSM    H7G 9683   2.447   4.530  10.563  1.1219  2.9903  0.2560
   97OSM    C8F 9684   2.358   4.628  10.380  0.0905  1.0453  0.7523
   97OSM    H8F 9685   2.421   4.554  10.325 -1.6395 -0.5570  0.8586
   97OSM    H8G 9686   2.409   4.726  10.389  0.2425  0.9499  0.9413
   97OSM    C9F 9687   2.225   4.649  10.310  0.3691  0.4299 -1.0006
   97OSM    H9F 9688   2.160   4.720  10.364  0.9439  0.1455  0.0781
   97OSM   C10F 9689   2.168   4.590  10.201  0.0214 -0.2112 -0.7923
   97OSM   H10F 9690   2.071   4.633  10.168 -0.8275 -1.0985  0.4653
   97OSM   C11F 9691   2.223   4.488  10.114 -0.2887  0.2206 -0.2272
   97OSM   H11F 9692   2.197   4.386  10.151 -1.3706  0.3147 -0.6911
   97OSM   H11G 9693   2.334   4.474  10.113 -0.1939  0.9258 -1.2613
   97OSM   C12F 9694   2.176   4.497   9.973 -0.0802  0.3514 -0.1841
   97OSM   H12F 9695   2.226   4.585   9.927  4.1776 -2.0132 -0.6707
   97OSM   H12G 9696   2.066   4.513   9.971  0.0393  1.1720 -0.6047
   97OSM   C13F 9697   2.211   4.369   9.895  0.1890 -0.1858 -0.3887
   97OSM   H13F 9698   2.165   4.282   9.946  0.3868 -0.4243 -0.6121
   97OSM   H13G 9699   2.320   4.351   9.901  0.2342  0.5713  2.1752
   97OSM   C14F 9700   2.168   4.387   9.743 -0.5256 -0.5505 -0.4419
   97OSM   H14F 9701   2.234   4.460   9.692 -0.3775  0.5715  1.2511
   97OSM   H14G 9702   2.062   4.421   9.740  0.0286  1.3339 -0.1527
   97OSM   C15F 9703   2.181   4.261   9.660  0.1324 -0.0280 -0.2013
   97OSM   H15F 9704   2.114   4.186   9.707 -2.6045  1.5620 -1.2971
   97OSM   H15G 9705   2.279   4.209   9.658 -0.4329 -1.1633  0.6516
   97OSM   C16F 9706   2.139   4.287   9.516  0.0029  0.1797 -0.0243
   97OSM   H16F 9707   2.214   4.355   9.472  1.1433 -0.0622  1.4664
   97OSM   H16G 9708   2.047   4.345   9.493  1.0038  1.2630 -1.4972
   97OSM   C17F 9709   2.120   4.156   9.439 -0.0792 -0.2973  0.1559
   97OSM   H17F 9710   2.069   4.075   9.496  1.9909 -2.5969 -1.0672
   97OSM   H17G 9711   2.219   4.115   9.409 -0.1201  0.4013 -1.0305
   97OSM   C18F 9712   2.038   4.177   9.312  0.8351  0.0472 -0.4833
   97OSM   H18F 9713   2.027   4.086   9.250  0.3820 -0.1259 -0.1498
   97OSM   H18G 9714   2.092   4.254   9.252 -0.5437  0.6122 -1.0546
   97OSM   H18H 9715   1.934   4.211   9.333  1.2492  0.6103  0.7888
   98OSM      N 9716   1.685   4.418  11.050 -0.0571 -0.6610  0.6873
   98OSM    C15 9717   1.579   4.499  11.128  0.1878 -0.4242  0.3862
   98OSM   H15A 9718   1.597   4.489  11.234 -3.5256  0.8859  1.3086
   98OSM   H15B 9719   1.479   4.485  11.090 -0.8619  2.5534  1.7258
   98OSM   H15C 9720   1.596   4.605  11.116  0.3144 -0.5366 -0.5139
   98OSM    C14 9721   1.655   4.275  11.050  0.3992  0.0667  0.0102
   98OSM   H14A 9722   1.731   4.213  11.006  0.6553 -0.4296  1.1161
   98OSM   H14B 9723   1.564   4.258  10.994 -0.0312  0.4045  0.5928
   98OSM   H14C 9724   1.648   4.227  11.147  1.2483 -2.1030 -0.9328
   98OSM    C13 9725   1.699   4.474  10.909  0.4159 -0.3727 -0.3678
   98OSM   H13A 9726   1.760   4.563  10.918 -0.5465  0.2828 -0.2639
   98OSM   H13B 9727   1.605   4.499  10.863  0.6690  1.3497 -0.0247
   98OSM   H13C 9728   1.752   4.407  10.842 -2.7147 -2.1589 -1.2440
   98OSM    C12 9729   1.820   4.424  11.120  0.4270 -0.1108 -0.0106
   98OSM   H12A 9730   1.896   4.378  11.058  0.0005 -0.0033 -0.6202
   98OSM   H12B 9731   1.806   4.369  11.211  0.4525 -0.6013 -0.2994
   98OSM    C11 9732   1.876   4.566  11.160 -0.4402 -0.1914  0.5141
   98OSM   H11A 9733   1.973   4.553  11.212  0.5963  1.0855 -1.0152
   98OSM   H11B 9734   1.804   4.603  11.237  0.9416  0.8921  1.3332
   98OSM      P 9735   1.989   4.672  10.941  0.2012 -0.0410 -0.1652
   98OSM    O13 9736   2.058   4.797  10.975 -0.7936 -1.0974 -0.4357
   98OSM    O14 9737   2.077   4.554  10.941  0.2848  0.4358  0.5980
   98OSM    O11 9738   1.898   4.689  10.807  0.5196  0.3305 -0.1268
   98OSM    O12 9739   1.879   4.662  11.050  0.1481 -0.4462  0.3092
   98OSM    C1S 9740   1.918   4.815  10.730  0.2667 -0.8345 -0.2425
   98OSM    H1S 9741   2.021   4.857  10.738 -0.8128  2.2894 -0.9526
   98OSM    H1T 9742   1.852   4.890  10.778 -0.2398 -0.6457 -1.2167
   98OSM     NF 9743   1.838   4.927  10.527 -0.3621 -0.3974 -0.0983
   98OSM    HNF 9744   1.741   4.948  10.517 -0.6662 -0.9907  1.3843
   98OSM    C2S 9745   1.874   4.799  10.583  0.1828 -0.2852  0.4627
   98OSM    H2S 9746   1.950   4.748  10.521 -1.5351 -3.3817  0.6693
   98OSM    C3S 9747   1.749   4.696  10.574 -0.4487 -0.0772  0.4549
   98OSM    H3S 9748   1.673   4.745  10.638 -2.5939  0.1039 -2.0741
   98OSM     O3 9749   1.773   4.569  10.622 -0.0389 -0.2198 -0.3511
   98OSM    HO3 9750   1.842   4.586  10.686  0.8713 -3.6174 -0.2460
   98OSM    C4S 9751   1.695   4.689  10.442 -0.0823  0.6946  1.1085
   98OSM    H4S 9752   1.602   4.748  10.441 -0.2765  0.3876  0.9354
   98OSM    C5S 9753   1.755   4.622  10.341  0.3116 -0.5088  0.5585
   98OSM    H5S 9754   1.852   4.576  10.367  0.9064  0.0513 -0.5593
   98OSM    C6S 9755   1.690   4.610  10.201  0.9626 -0.8771 -0.5977
   98OSM    H6S 9756   1.724   4.696  10.140 -0.8263 -0.7093 -1.4208
   98OSM    H6T 9757   1.579   4.614  10.205  0.8920  4.2688 -0.2209
   98OSM    C7S 9758   1.731   4.487  10.118  0.0157  0.6668 -0.1998
   98OSM    H7S 9759   1.689   4.394  10.161  1.4375 -0.3522 -0.9405
   98OSM    H7T 9760   1.842   4.486  10.118  0.0770  2.5442  0.0874
   98OSM    C8S 9761   1.682   4.501   9.978 -0.2033 -0.6174 -0.0926
   98OSM    H8S 9762   1.712   4.597   9.930 -1.3421  0.2896  0.9471
   98OSM    H8T 9763   1.572   4.497   9.991  0.0590 -0.1740  3.0108
   98OSM    C9S 9764   1.756   4.406   9.890 -0.2599  0.5882  0.3999
   98OSM    H9S 9765   1.741   4.303   9.930  1.2459  0.6195  1.1472
   98OSM    H9T 9766   1.867   4.410   9.887 -0.2792  0.4429 -1.1075
   98OSM   C10S 9767   1.722   4.419   9.742 -0.6434 -0.4685 -0.4614
   98OSM   H10S 9768   1.757   4.510   9.689 -2.1161 -0.2068 -1.0339
   98OSM   H10T 9769   1.611   4.416   9.741 -0.7496  0.9702  1.2842
   98OSM   C11S 9770   1.774   4.302   9.659 -0.3216  0.5438  0.1462
   98OSM   H11S 9771   1.750   4.203   9.704 -1.8140  0.2564 -1.1880
   98OSM   H11T 9772   1.885   4.302   9.651 -0.1843 -2.3358  0.9582
   98OSM   C12S 9773   1.724   4.309   9.515  0.6644 -0.5366 -0.2577
   98OSM   H12S 9774   1.613   4.304   9.517  0.3183  3.2647 -1.0754
   98OSM   H12T 9775   1.765   4.216   9.469 -0.5836 -1.1644 -0.1480
   98OSM   C13S 9776   1.767   4.434   9.431  0.2424 -0.8307 -0.1575
   98OSM   H13S 9777   1.878   4.444   9.432  0.0642  2.5990 -1.4422
   98OSM   H13T 9778   1.740   4.532   9.475  4.1415 -0.1893  1.2303
   98OSM   C14S 9779   1.733   4.421   9.289  0.6133  0.0408  0.1248
   98OSM   H14S 9780   1.796   4.341   9.244 -0.7756 -0.7920 -0.3853
   98OSM   H14T 9781   1.745   4.522   9.244  0.1300 -1.8137 -4.7060
   98OSM   C15S 9782   1.587   4.370   9.275 -0.4852  0.1629 -0.0520
   98OSM   H15S 9783   1.516   4.434   9.332 -0.4812  1.1289 -1.0867
   98OSM   H15T 9784   1.592   4.263   9.302 -1.5620 -0.4936 -2.1900
   98OSM   C16S 9785   1.545   4.388   9.127 -0.7013  0.3858 -0.3542
   98OSM   H16S 9786   1.614   4.332   9.060 -2.9203 -0.5094 -1.9944
   98OSM   H16T 9787   1.546   4.496   9.102 -1.2409  1.1943  2.6224
   98OSM   C17S 9788   1.411   4.326   9.096  0.3819  0.4762  0.1041
   98OSM   H17S 9789   1.416   4.223   9.136 -2.0519 -0.0005 -0.6405
   98OSM   H17T 9790   1.383   4.315   8.989 -1.4353 -1.4149  0.6919
   98OSM   C18S 9791   1.286   4.402   9.152  0.2236 -0.2015 -0.9608
   98OSM   H18S 9792   1.295   4.411   9.262 -0.6419 -0.5840 -0.8511
   98OSM   H18T 9793   1.190   4.350   9.131  1.1388 -1.2510 -2.8299
   98OSM   H18U 9794   1.267   4.504   9.114 -1.9365  0.2195  1.0357
   98OSM    C1F 9795   1.932   5.017  10.498  0.2173 -0.3434  0.4909
   98OSM     OF 9796   2.051   4.999  10.529 -0.5003  0.4991  0.1923
   98OSM    C2F 9797   1.886   5.144  10.428  0.2898  0.4855 -0.0704
   98OSM    H2F 9798   1.845   5.207  10.510 -2.0521  1.2966 -1.7385
   98OSM    H2G 9799   1.800   5.117  10.362 -0.1301  2.0039 -0.1784
   98OSM    C3F 9800   1.996   5.216  10.346 -0.0246 -0.5172  0.3561
   98OSM    H3F 9801   2.091   5.242  10.399  0.3111  0.6621 -0.7788
   98OSM    H3G 9802   1.954   5.313  10.313 -0.2900  0.1201  2.3880
   98OSM    C4F 9803   2.044   5.130  10.229 -0.4683  0.3902 -0.3027
   98OSM    H4F 9804   2.046   5.025  10.264  0.1449  0.7455  0.7809
   98OSM    H4G 9805   2.146   5.154  10.192 -0.9021  2.3917 -0.3229
   98OSM    C5F 9806   1.946   5.120  10.109 -0.0844 -0.2068 -0.3312
   98OSM    H5F 9807   1.940   5.224  10.071 -0.5626 -1.0350 -2.6233
   98OSM    H5G 9808   1.844   5.097  10.146 -0.2872 -0.0695 -0.7963
   98OSM    C6F 9809   1.991   5.044   9.986 -0.1457  0.4650  0.1253
   98OSM    H6F 9810   2.002   4.937  10.014 -1.2153  0.0134 -1.0664
   98OSM    H6G 9811   2.091   5.085   9.959 -0.5022  0.9353 -0.4921
   98OSM    C7F 9812   1.892   5.047   9.861  0.0624  0.7359  0.7368
   98OSM    H7F 9813   1.847   5.148   9.845  0.0621  0.6275  0.0248
   98OSM    H7G 9814   1.802   4.984   9.878  1.4740 -1.2721  0.9975
   98OSM    C8F 9815   1.949   5.017   9.715 -0.6265 -0.1147 -0.1975
   98OSM    H8F 9816   2.037   5.085   9.712 -0.0643 -0.7562  1.1722
   98OSM    H8G 9817   1.878   5.022   9.629 -0.7253 -1.9470 -0.2631
   98OSM    C9F 9818   1.999   4.878   9.723  0.2689  0.7738  0.4043
   98OSM    H9F 9819   1.915   4.807   9.731  0.2972  0.7568  0.5435
   98OSM   C10F 9820   2.123   4.828   9.717  0.6093 -0.0688 -0.4239
   98OSM   H10F 9821   2.132   4.720   9.734  0.7925 -0.8795 -4.5584
   98OSM   C11F 9822   2.245   4.910   9.690 -0.3042  0.1299  0.4694
   98OSM   H11F 9823   2.230   5.019   9.675 -1.0251 -0.0111  0.1389
   98OSM   H11G 9824   2.301   4.883   9.598  1.4953 -1.0000  1.8263
   98OSM   C12F 9825   2.357   4.880   9.787 -0.8122 -0.3004 -0.3847
   98OSM   H12F 9826   2.452   4.932   9.764 -0.3504 -1.2720 -0.7489
   98OSM   H12G 9827   2.381   4.771   9.792 -0.4913 -0.1865  1.3553
   98OSM   C13F 9828   2.342   4.934   9.929  0.2079 -0.2362 -0.3396
   98OSM   H13F 9829   2.239   4.918   9.967 -0.3404  3.7194  0.2903
   98OSM   H13G 9830   2.355   5.044   9.925 -1.4806  0.0772  1.5737
   98OSM   C14F 9831   2.444   4.870  10.026  0.2080  0.0418 -0.1067
   98OSM   H14F 9832   2.544   4.894   9.984  0.5368 -2.2362 -0.7558
   98OSM   H14G 9833   2.431   4.760  10.017 -1.1434  0.1127  0.6012
   98OSM   C15F 9834   2.428   4.910  10.171 -0.0438 -0.5861  0.1953
   98OSM   H15F 9835   2.504   4.854  10.229  1.4226  0.9898 -0.1111
   98OSM   H15G 9836   2.323   4.883  10.196  0.7073 -3.1171  0.9022
   98OSM   C16F 9837   2.454   5.063  10.202  0.4345 -0.3331 -0.5010
   98OSM   H16F 9838   2.391   5.075  10.293  0.1654  3.3796 -1.0127
   98OSM   H16G 9839   2.405   5.123  10.122  2.5269  1.3437 -0.6300
   98OSM   C17F 9840   2.592   5.095  10.239  0.0496  0.0496 -0.5389
   98OSM   H17F 9841   2.601   5.206  10.238  0.9375 -0.0142 -0.3171
   98OSM   H17G 9842   2.662   5.048  10.167 -1.0507 -0.7993 -1.0900
   98OSM   C18F 9843   2.618   5.054  10.382  0.1074  0.0256 -0.0183
   98OSM   H18F 9844   2.561   5.116  10.455  1.5545 -1.0710  2.1737
   98OSM   H18G 9845   2.725   5.079  10.393 -0.0348  1.1131 -0.9883
   98OSM   H18H 9846   2.597   4.948  10.412 -0.7634  0.1796 -0.0595
   99OSM      N 9847   4.960   5.244  10.890 -0.0311 -0.1979  0.5781
   99OSM    C15 9848   5.108   5.213  10.929 -0.3316 -1.0135 -0.4732
   99OSM   H15A 9849   5.123   5.106  10.917 -1.0653 -0.9441 -2.4435
   99OSM   H15B 9850   5.139   5.251  11.025 -2.6370  0.2358 -0.1602
   99OSM   H15C 9851   5.172   5.257  10.853 -2.7245 -0.5685 -2.3423
   99OSM    C14 9852   4.937   5.381  10.892  0.0321  0.0362 -0.0056
   99OSM   H14A 9853   4.993   5.443  10.823  0.6395  1.0208  1.3402
   99OSM   H14B 9854   4.951   5.429  10.987  0.1283 -1.2735  0.6592
   99OSM   H14C 9855   4.839   5.405  10.854  1.2405  1.4484 -2.5669
   99OSM    C13 9856   4.949   5.197  10.748  0.5035 -0.2335 -0.1447
   99OSM   H13A 9857   4.921   5.093  10.743  1.4104 -0.4906 -0.0981
   99OSM   H13B 9858   5.044   5.207  10.698  1.4578  0.3710  1.6994
   99OSM   H13C 9859   4.876   5.257  10.696  1.8181 -0.5734 -2.5701
   99OSM    C12 9860   4.860   5.169  10.980 -0.6570  0.3044 -0.3964
   99OSM   H12A 9861   4.891   5.187  11.081  0.9721  1.1508 -1.0103
   99OSM   H12B 9862   4.882   5.065  10.961  2.4725  0.4592  1.6172
   99OSM    C11 9863   4.714   5.198  10.964 -0.6571  0.5716 -0.2053
   99OSM   H11A 9864   4.704   5.309  10.968 -3.1373  0.4698 -1.1239
   99OSM   H11B 9865   4.669   5.138  11.046 -1.0023  1.0355 -0.0483
   99OSM      P 9866   4.510   5.200  10.801 -0.2765  0.4938  0.1387
   99OSM    O13 9867   4.430   5.077  10.807 -0.2729 -0.2773 -0.5067
   99OSM    O14 9868   4.459   5.321  10.882 -0.0886  0.6320 -0.0781
   99OSM    O11 9869   4.528   5.241  10.649 -0.1475 -1.0355 -0.5293
   99OSM    O12 9870   4.661   5.159  10.840 -0.2417  0.2423 -0.1465
   99OSM    C1S 9871   4.559   5.141  10.556  0.0407 -0.4147 -0.2410
   99OSM    H1S 9872   4.468   5.078  10.550 -0.0767 -0.7565  3.0994
   99OSM    H1T 9873   4.645   5.079  10.587 -1.5391 -2.5633  0.0922
   99OSM     NF 9874   4.549   5.124  10.312 -0.3802  0.4406 -0.7415
   99OSM    HNF 9875   4.614   5.054  10.283  0.0628  1.2664 -1.8230
   99OSM    C2S 9876   4.593   5.212  10.421  0.4723 -0.3147 -0.2238
   99OSM    H2S 9877   4.531   5.304  10.411  0.0185 -0.5639  0.2128
   99OSM    C3S 9878   4.740   5.250  10.422  0.3361  0.0192  0.1444
   99OSM    H3S 9879   4.797   5.156  10.432 -2.5677 -1.6705  2.1219
   99OSM     O3 9880   4.775   5.342  10.527  0.1870 -0.2235  0.1023
   99OSM    HO3 9881   4.690   5.355  10.569 -0.0073 -1.0341 -0.0074
   99OSM    C4S 9882   4.786   5.317  10.293 -0.4082 -0.1508  0.1075
   99OSM    H4S 9883   4.772   5.425  10.281  3.2983  0.2959 -1.5784
   99OSM    C5S 9884   4.864   5.264  10.201 -0.4443 -0.4657  0.5122
   99OSM    H5S 9885   4.903   5.164  10.225 -0.1075 -0.1166  1.4405
   99OSM    C6S 9886   4.911   5.344  10.077 -0.0384  0.5392 -0.2223
   99OSM    H6S 9887   5.017   5.312  10.064  0.3504  0.9090  1.7344
   99OSM    H6T 9888   4.913   5.454  10.093 -0.3495  0.5320 -0.1366
   99OSM    C7S 9889   4.841   5.329   9.944  0.4126  0.4520 -0.2236
   99OSM    H7S 9890   4.741   5.377   9.960  0.5514  0.0716  2.1110
   99OSM    H7T 9891   4.816   5.223   9.923 -2.0435  0.2739  2.8714
   99OSM    C8S 9892   4.915   5.401   9.828  0.2811  0.3963 -0.3218
   99OSM    H8S 9893   4.938   5.506   9.857  1.2546 -0.1622  1.0124
   99OSM    H8T 9894   4.850   5.402   9.738  1.7336 -0.1522 -1.4274
   99OSM    C9S 9895   5.043   5.327   9.789  0.5087  0.3242 -0.1743
   99OSM    H9S 9896   5.010   5.222   9.775  0.8818  0.2939 -0.9171
   99OSM    H9T 9897   5.126   5.337   9.862  0.1015 -1.3794  0.5660
   99OSM   C10S 9898   5.100   5.383   9.656 -0.2764  0.7465 -1.4236
   99OSM   H10S 9899   5.161   5.306   9.603 -1.8660 -0.6177 -1.3454
   99OSM   H10T 9900   5.159   5.474   9.679 -1.2021  0.7038  1.6598
   99OSM   C11S 9901   4.995   5.435   9.557 -0.7978 -0.0463 -0.2625
   99OSM   H11S 9902   4.943   5.524   9.596  0.0724  0.2524  0.2434
   99OSM   H11T 9903   4.918   5.365   9.518  0.5838 -0.1613 -3.0576
   99OSM   C12S 9904   5.071   5.499   9.440  0.6659  0.1288  0.6359
   99OSM   H12S 9905   5.004   5.578   9.398  0.4398 -0.5802 -0.3737
   99OSM   H12T 9906   5.170   5.543   9.463  1.0555 -0.2201 -0.3345
   99OSM   C13S 9907   5.086   5.399   9.325 -0.3479  0.1868 -0.2154
   99OSM   H13S 9908   4.982   5.371   9.295 -0.3113 -0.4439  0.2245
   99OSM   H13T 9909   5.133   5.303   9.355 -0.6482 -0.1271 -0.7286
   99OSM   C14S 9910   5.153   5.458   9.204 -0.5229 -0.5387 -0.5293
   99OSM   H14S 9911   5.257   5.493   9.222 -0.6977 -1.0778  1.7553
   99OSM   H14T 9912   5.094   5.549   9.179 -0.5659 -0.6977 -1.0192
   99OSM   C15S 9913   5.147   5.362   9.084 -0.3527  0.2054  0.1369
   99OSM   H15S 9914   5.049   5.310   9.093  0.2616 -0.7881  1.6023
   99OSM   H15T 9915   5.232   5.292   9.095 -0.4310  0.0667 -0.1642
   99OSM   C16S 9916   5.155   5.416   8.935 -0.4526 -1.2513 -0.0208
   99OSM   H16S 9917   5.070   5.483   8.909  0.0165 -0.4680  0.4340
   99OSM   H16T 9918   5.142   5.341   8.854  1.4550  1.9513 -3.6523
   99OSM   C17S 9919   5.289   5.488   8.914 -0.5287  0.8534  0.1466
   99OSM   H17S 9920   5.306   5.501   8.805  1.5267  1.5563  0.5016
   99OSM   H17T 9921   5.368   5.418   8.950 -1.7801 -0.5405  0.2882
   99OSM   C18S 9922   5.311   5.629   8.970  0.0304  0.2494 -0.5042
   99OSM   H18S 9923   5.224   5.688   8.933 -0.5221 -1.5418 -2.2894
   99OSM   H18T 9924   5.408   5.673   8.939 -0.1946 -1.0082 -3.2984
   99OSM   H18U 9925   5.310   5.638   9.080 -1.4011  0.7480 -0.5386
   99OSM    C1F 9926   4.429   5.130  10.261 -0.2686 -0.6136  0.7226
   99OSM     OF 9927   4.343   5.212  10.303  0.0111  0.8681 -0.0165
   99OSM    C2F 9928   4.385   5.024  10.157  0.0825  0.3404  0.0779
   99OSM    H2F 9929   4.300   4.968  10.202 -0.3048  1.6094  0.9762
   99OSM    H2G 9930   4.463   4.949  10.134 -1.0462 -0.7715 -0.2288
   99OSM    C3F 9931   4.366   5.091  10.017  0.2437  0.1609  0.2663
   99OSM    H3F 9932   4.326   5.025   9.937 -1.2645  0.3023  0.8770
   99OSM    H3G 9933   4.287   5.168  10.028 -0.0013 -0.3604  2.6983
   99OSM    C4F 9934   4.497   5.162   9.968  0.2051  0.7006 -0.9304
   99OSM    H4F 9935   4.561   5.076   9.940 -1.0043 -0.0967 -1.3531
   99OSM    H4G 9936   4.546   5.218  10.051  1.7577  1.2443 -2.1641
   99OSM    C5F 9937   4.469   5.270   9.866 -0.4027  0.0195  0.8316
   99OSM    H5F 9938   4.543   5.353   9.875 -0.6957  0.3152  0.5478
   99OSM    H5G 9939   4.372   5.322   9.883  0.0028  1.1612 -0.1444
   99OSM    C6F 9940   4.465   5.210   9.730 -0.5874 -0.7948  0.3393
   99OSM    H6F 9941   4.403   5.274   9.664 -1.0335  0.7914  2.1931
   99OSM    H6G 9942   4.411   5.113   9.727 -0.1692 -1.0090 -1.0949
   99OSM    C7F 9943   4.601   5.195   9.661 -0.9317 -0.1003 -0.1069
   99OSM    H7F 9944   4.656   5.126   9.727 -1.1710  0.6186  0.8656
   99OSM    H7G 9945   4.650   5.295   9.659 -0.8588 -0.0770  1.5177
   99OSM    C8F 9946   4.579   5.165   9.513 -0.5323  0.4918  0.1647
   99OSM    H8F 9947   4.509   5.237   9.466 -0.4409  0.2229 -0.3811
   99OSM    H8G 9948   4.536   5.063   9.513  2.6274 -1.0785  3.1207
   99OSM    C9F 9949   4.708   5.154   9.431  0.1701 -0.4629  1.2055
   99OSM    H9F 9950   4.804   5.136   9.481  1.3721 -1.3946 -1.2672
   99OSM   C10F 9951   4.713   5.157   9.297  0.1696  0.4009  0.5554
   99OSM   H10F 9952   4.805   5.137   9.241  0.4035  0.4290  0.9238
   99OSM   C11F 9953   4.584   5.178   9.215  0.5352 -0.1917  0.3033
   99OSM   H11F 9954   4.556   5.283   9.236  2.2417  0.2234  0.5984
   99OSM   H11G 9955   4.497   5.115   9.245 -1.2012  1.3933 -1.0855
   99OSM   C12F 9956   4.600   5.139   9.071  0.3060 -0.1943  0.2401
   99OSM   H12F 9957   4.614   5.029   9.061 -1.3954 -0.4803  0.7138
   99OSM   H12G 9958   4.684   5.198   9.029 -1.1439  2.0112  0.2944
   99OSM   C13F 9959   4.473   5.159   8.995  0.6612  0.3626  0.0800
   99OSM   H13F 9960   4.385   5.108   9.038  1.3495 -1.0914 -0.1540
   99OSM   H13G 9961   4.489   5.119   8.893 -0.7165 -0.5445  0.2013
   99OSM   C14F 9962   4.444   5.311   8.990  0.0023 -0.4099  0.0893
   99OSM   H14F 9963   4.536   5.369   8.972 -0.0174 -0.5449 -0.4389
   99OSM   H14G 9964   4.404   5.338   9.091 -0.7819  1.2344 -0.6296
   99OSM   C15F 9965   4.357   5.349   8.869  0.1717  0.3396  0.2555
   99OSM   H15F 9966   4.264   5.290   8.853  0.3931 -0.8753  2.9280
   99OSM   H15G 9967   4.420   5.349   8.777 -1.6327  2.2198 -1.0818
   99OSM   C16F 9968   4.321   5.504   8.868 -0.2688  0.3622 -0.1719
   99OSM   H16F 9969   4.417   5.556   8.850  0.2928 -0.8319 -0.7459
   99OSM   H16G 9970   4.282   5.536   8.967 -1.2061  0.8099 -0.6743
   99OSM   C17F 9971   4.217   5.543   8.760  0.2463 -0.3571 -0.7881
   99OSM   H17F 9972   4.194   5.651   8.761  2.7282  0.2610 -2.5283
   99OSM   H17G 9973   4.128   5.478   8.780 -1.2444  2.0102  0.8602
   99OSM   C18F 9974   4.254   5.529   8.617 -0.2827  0.0595  0.1367
   99OSM   H18F 9975   4.181   5.583   8.553  1.0857  2.8716  0.7865
   99OSM   H18G 9976   4.251   5.424   8.580  0.7176 -0.4691  1.4622
   99OSM   H18H 9977   4.358   5.559   8.591  1.0299 -3.6189  0.5593
  100OSM      N 9978   4.631   4.692  10.971  0.4609  0.1022  0.3479
  100OSM    C15 9979   4.581   4.728  11.115  0.5367  0.0083  0.0318
  100OSM   H15A 9980   4.493   4.789  11.097  0.7077 -0.3201 -2.1419
  100OSM   H15B 9981   4.654   4.782  11.173 -0.1064 -0.9358  1.7993
  100OSM   H15C 9982   4.551   4.646  11.178 -0.5507  1.2748  1.2404
  100OSM    C14 9983   4.753   4.607  10.982  0.0211 -0.3751  0.3704
  100OSM   H14A 9984   4.737   4.507  11.020  0.4920 -0.0812  1.3901
  100OSM   H14B 9985   4.828   4.652  11.044  1.0636  1.9709 -2.3920
  100OSM   H14C 9986   4.799   4.597  10.885  1.8806 -1.3459  1.2906
  100OSM    C13 9987   4.528   4.601  10.912 -0.3358  0.6914  0.5511
  100OSM   H13A 9988   4.440   4.656  10.882 -0.6143 -0.1288 -0.1750
  100OSM   H13B 9989   4.511   4.530  10.992  1.6140  1.2401  1.5166
  100OSM   H13C 9990   4.562   4.543  10.827 -1.0353 -0.9888  1.3769
  100OSM    C12 9991   4.665   4.814  10.888 -0.2035 -0.7635 -0.2413
  100OSM   H12A 9992   4.751   4.859  10.935 -1.1146  0.6328  0.1277
  100OSM   H12B 9993   4.582   4.882  10.898  1.7386  1.6595  0.5274
  100OSM    C11 9994   4.682   4.798  10.742  0.7670  0.1614  0.1729
  100OSM   H11A 9995   4.689   4.897  10.692  2.8418 -0.1846 -0.3220
  100OSM   H11B 9996   4.599   4.743  10.691  1.1300 -0.7494  0.5552
  100OSM      P 9997   4.934   4.805  10.732 -0.0815  0.2375 -0.4283
  100OSM    O13 9998   4.942   4.870  10.866  0.2508 -0.0760 -0.4229
  100OSM    O14 9999   5.043   4.713  10.704 -0.1381 -0.2186 -0.4260
  100OSM    O1110000   4.930   4.911  10.615 -0.1850  0.5881  0.0106
  100OSM    O1210001   4.802   4.727  10.718  0.1596  0.9645  0.2215
  100OSM    C1S10002   4.923   4.854  10.478 -0.3584  0.1041 -0.0130
  100OSM    H1S10003   4.815   4.839  10.455 -0.1626 -0.5458 -0.5688
  100OSM    H1T10004   4.976   4.757  10.465 -0.0788  0.0845  1.1633
  100OSM     NF10005   4.968   4.893  10.240 -0.4206 -0.0960 -0.3116
  100OSM    HNF10006   5.032   4.823  10.207 -0.0557 -1.4633  2.9157
  100OSM    C2S10007   4.987   4.946  10.370  0.6204  0.1764 -0.6972
  100OSM    H2S10008   4.940   5.047  10.371 -1.8576 -0.8797  2.1359
  100OSM    C3S10009   5.140   4.976  10.406  0.3656  0.6037 -0.7834
  100OSM    H3S10010   5.190   4.880  10.382 -0.9459 -0.4884  0.6298
  100OSM     O310011   5.182   5.000  10.539  0.0672  0.0740  0.2706
  100OSM    HO310012   5.105   4.968  10.587 -0.0118  0.8785  0.6939
  100OSM    C4S10013   5.185   5.092  10.321  0.1820  0.3837 -0.1231
  100OSM    H4S10014   5.124   5.182  10.341 -0.7512 -0.3511  0.4584
  100OSM    C5S10015   5.280   5.091  10.227 -0.2430 -1.1858 -0.7955
  100OSM    H5S10016   5.331   4.995  10.211  1.1113 -0.2421 -2.4388
  100OSM    C6S10017   5.318   5.207  10.141 -0.9437  0.0426  0.5934
  100OSM    H6S10018   5.279   5.304  10.178  1.0541  0.7170  1.0088
  100OSM    H6T10019   5.283   5.202  10.035  1.5746 -0.0201 -0.3157
  100OSM    C7S10020   5.479   5.214  10.124  0.1518  0.3152 -0.7422
  100OSM    H7S10021   5.516   5.121  10.075  0.2355  1.0008 -2.0388
  100OSM    H7T10022   5.532   5.216  10.221  1.2361  4.9816 -1.2363
  100OSM    C8S10023   5.544   5.313  10.031  0.8570 -0.6156 -0.2070
  100OSM    H8S10024   5.645   5.273  10.007  1.1645  0.0636 -0.0623
  100OSM    H8T10025   5.559   5.412  10.080  2.2458 -0.1316 -1.5508
  100OSM    C9S10026   5.464   5.330   9.904  0.3374 -0.1409 -0.7806
  100OSM    H9S10027   5.366   5.381   9.921  0.0056 -0.3712 -1.9283
  100OSM    H9T10028   5.445   5.228   9.866  0.5793 -0.8885  1.0258
  100OSM   C10S10029   5.539   5.421   9.801  0.2911 -0.2864 -0.1417
  100OSM   H10S10030   5.627   5.358   9.773 -0.4023 -0.9711 -0.8469
  100OSM   H10T10031   5.573   5.517   9.845  0.8574 -0.1891 -0.7665
  100OSM   C11S10032   5.461   5.432   9.667 -0.7570  0.5127 -0.2243
  100OSM   H11S10033   5.371   5.496   9.676 -0.2024  1.1601  0.9338
  100OSM   H11T10034   5.439   5.329   9.632  0.3021 -0.2267  1.1982
  100OSM   C12S10035   5.544   5.496   9.557  0.0822 -0.1121  0.4208
  100OSM   H12S10036   5.640   5.451   9.523  0.4552  0.2533  0.9841
  100OSM   H12T10037   5.583   5.590   9.600 -0.3241  0.0879  0.3641
  100OSM   C13S10038   5.453   5.521   9.431  0.1055 -1.0610 -0.5178
  100OSM   H13S10039   5.374   5.593   9.460  0.1937 -1.3599  0.5033
  100OSM   H13T10040   5.411   5.421   9.405  2.1094 -2.1682  0.2663
  100OSM   C14S10041   5.529   5.581   9.312 -0.7206  0.2283 -0.4454
  100OSM   H14S10042   5.455   5.591   9.230 -0.8880 -1.7338 -0.5806
  100OSM   H14T10043   5.598   5.503   9.273  1.0253  1.3279  0.3648
  100OSM   C15S10044   5.593   5.718   9.325  0.0045 -0.6183  0.7346
  100OSM   H15S10045   5.676   5.711   9.398 -0.4041  1.4192  1.4579
  100OSM   H15T10046   5.518   5.792   9.361 -1.4562 -1.8711  0.3807
  100OSM   C16S10047   5.645   5.769   9.190  0.3076  0.3884 -0.0731
  100OSM   H16S10048   5.644   5.880   9.193 -1.2818  0.3890  2.2007
  100OSM   H16T10049   5.576   5.728   9.114 -2.7334 -1.3354  3.3227
  100OSM   C17S10050   5.789   5.733   9.151  0.4025  0.4214 -0.5368
  100OSM   H17S10051   5.793   5.626   9.121 -0.1096 -0.4612  2.2842
  100OSM   H17T10052   5.848   5.747   9.243 -0.1249  2.7822 -0.5104
  100OSM   C18S10053   5.845   5.820   9.049  0.5026 -0.4570 -0.1073
  100OSM   H18S10054   5.856   5.925   9.082  2.0917 -1.2061  2.0093
  100OSM   H18T10055   5.789   5.818   8.953  0.7468  2.9115 -0.4310
  100OSM   H18U10056   5.946   5.784   9.019  1.5006 -0.7528  3.2164
  100OSM    C1F10057   4.849   4.888  10.175  0.0276 -0.2863  0.1242
  100OSM     OF10058   4.762   4.962  10.214  0.1812  0.1975 -0.5586
  100OSM    C2F10059   4.837   4.789  10.068 -0.2713 -0.4182  0.8809
  100OSM    H2F10060   4.739   4.737  10.068  0.4785 -1.9173  0.9768
  100OSM    H2G10061   4.904   4.701  10.053 -2.4539 -1.8762 -1.0373
  100OSM    C3F10062   4.837   4.876   9.932 -0.1598  0.1634 -0.5016
  100OSM    H3F10063   4.916   4.954   9.936  0.8452 -0.8346 -0.2649
  100OSM    H3G10064   4.734   4.916   9.916  0.1725  1.9184  1.3813
  100OSM    C4F10065   4.869   4.787   9.810  0.1616  0.3231 -0.3075
  100OSM    H4F10066   4.972   4.744   9.816 -0.0635 -0.0164  1.8473
  100OSM    H4G10067   4.858   4.850   9.719  2.4917 -0.3819 -1.1723
  100OSM    C5F10068   4.780   4.661   9.806 -0.1324 -0.3226 -0.1683
  100OSM    H5F10069   4.674   4.687   9.824  0.4732  2.3427 -0.0118
  100OSM    H5G10070   4.807   4.594   9.891  1.4991 -0.4885 -0.7846
  100OSM    C6F10071   4.783   4.584   9.675 -0.5825 -0.3769  0.2528
  100OSM    H6F10072   4.734   4.484   9.677 -0.8403 -0.2618 -0.1466
  100OSM    H6G10073   4.886   4.560   9.642 -0.8009 -0.0917 -0.6681
  100OSM    C7F10074   4.720   4.669   9.558 -0.4429  0.7418 -0.4327
  100OSM    H7F10075   4.779   4.763   9.561  0.3372  0.2440  1.1439
  100OSM    H7G10076   4.613   4.687   9.583 -0.4675 -1.1996  1.1233
  100OSM    C8F10077   4.724   4.617   9.411 -0.8604 -0.0044 -0.4478
  100OSM    H8F10078   4.662   4.525   9.406  0.4922 -1.0034  0.6969
  100OSM    H8G10079   4.828   4.585   9.390 -0.6813  0.8691 -0.9570
  100OSM    C9F10080   4.677   4.727   9.317  0.5772  0.2899  0.3113
  100OSM    H9F10081   4.698   4.833   9.339 -0.0164  0.5031 -0.1174
  100OSM   C10F10082   4.624   4.694   9.195  0.1560 -0.4845 -0.2490
  100OSM   H10F10083   4.613   4.775   9.122  1.9649 -0.4708 -0.5703
  100OSM   C11F10084   4.606   4.563   9.138 -0.0495  0.4986 -0.8746
  100OSM   H11F10085   4.503   4.523   9.153  0.1324  1.0975  2.9740
  100OSM   H11G10086   4.672   4.497   9.198 -0.3460  0.5162 -0.5231
  100OSM   C12F10087   4.630   4.543   8.989  0.7286  0.0854 -0.1308
  100OSM   H12F10088   4.729   4.589   8.967  0.4742  0.6974 -0.0243
  100OSM   H12G10089   4.565   4.605   8.923  1.1460  1.2167  0.5006
  100OSM   C13F10090   4.634   4.395   8.944  0.2721 -0.0610 -0.0106
  100OSM   H13F10091   4.530   4.355   8.945 -0.1703  1.0710  0.0535
  100OSM   H13G10092   4.681   4.341   9.029 -2.4757 -1.6791  0.6055
  100OSM   C14F10093   4.707   4.362   8.816  0.1612 -0.4033  0.6736
  100OSM   H14F10094   4.794   4.430   8.802  0.7527 -1.5619 -1.9862
  100OSM   H14G10095   4.634   4.381   8.734 -0.5667  0.3277  1.4759
  100OSM   C15F10096   4.758   4.219   8.811 -0.0678 -0.4911 -0.5217
  100OSM   H15F10097   4.665   4.159   8.818 -1.1725  1.2717  1.0018
  100OSM   H15G10098   4.830   4.206   8.895 -0.7325 -1.9229 -0.1585
  100OSM   C16F10099   4.838   4.180   8.685  1.1710 -0.2502  0.2917
  100OSM   H16F10100   4.884   4.272   8.643 -2.1691  1.1466 -0.6382
  100OSM   H16G10101   4.765   4.141   8.611 -0.2850  0.6426  1.2125
  100OSM   C17F10102   4.932   4.069   8.705 -0.3300 -0.7879  1.0753
  100OSM   H17F10103   4.885   4.000   8.779  2.6538 -1.5905  2.3783
  100OSM   H17G10104   5.031   4.112   8.731 -0.1138 -0.6404  0.0513
  100OSM   C18F10105   4.965   4.003   8.565 -0.6006  0.0602 -0.2532
  100OSM   H18F10106   5.018   4.070   8.495  1.8662 -2.2105 -0.7438
  100OSM   H18G10107   4.882   3.953   8.510 -0.2265  0.3577 -1.0988
  100OSM   H18H10108   5.041   3.922   8.572 -1.2293 -0.4501  1.2310
  101OSM      N10109   2.909   6.080  11.304  0.1693 -0.4934  0.3204
  101OSM    C1510110   2.908   5.933  11.313 -0.5437 -0.1900 -0.2037
  101OSM   H15A10111   2.995   5.898  11.259  0.2031  0.6990  0.4021
  101OSM   H15B10112   2.830   5.886  11.254  0.6828 -1.8718 -0.5564
  101OSM   H15C10113   2.909   5.884  11.409 -1.4311 -1.0815 -0.6346
  101OSM    C1410114   2.785   6.135  11.359 -0.8484 -0.3267 -0.0814
  101OSM   H14A10115   2.777   6.113  11.465 -0.1566  0.8539  0.2335
  101OSM   H14B10116   2.698   6.089  11.313  0.1508 -1.6320 -0.7162
  101OSM   H14C10117   2.775   6.243  11.354  0.2033 -0.2832 -2.5339
  101OSM    C1310118   3.024   6.131  11.389 -0.3256 -0.5947  0.3539
  101OSM   H13A10119   3.023   6.238  11.395 -1.6089 -0.3146 -2.8486
  101OSM   H13B10120   3.121   6.101  11.352 -0.3172 -0.1090 -0.0173
  101OSM   H13C10121   3.000   6.102  11.490  0.2235 -1.8559  0.1439
  101OSM    C1210122   2.930   6.126  11.159 -0.7437 -0.0048  0.1709
  101OSM   H12A10123   3.019   6.084  11.116 -0.1251  0.1517  1.2559
  101OSM   H12B10124   2.945   6.233  11.162 -0.2090 -0.0906  0.9399
  101OSM    C1110125   2.814   6.101  11.052  0.0737 -0.1046 -0.2502
  101OSM   H11A10126   2.821   6.154  10.954 -1.2750 -0.8454 -0.7749
  101OSM   H11B10127   2.723   6.152  11.090 -0.1167 -0.5487 -0.1034
  101OSM      P10128   2.864   5.874  10.936 -0.3545 -0.0906  0.1310
  101OSM    O1310129   2.961   5.963  10.866  0.0947 -0.2467 -0.2175
  101OSM    O1410130   2.919   5.751  10.998  0.3653 -0.1889  0.3559
  101OSM    O1110131   2.746   5.834  10.832  0.3476 -0.1707  0.3299
  101OSM    O1210132   2.783   5.961  11.041  0.0817  0.9038  0.3137
  101OSM    C1S10133   2.652   5.935  10.797  0.3565 -0.3206  0.2829
  101OSM    H1S10134   2.705   6.031  10.783 -0.7230  0.6088  2.1463
  101OSM    H1T10135   2.577   5.935  10.880 -1.2293 -0.0787 -1.1002
  101OSM     NF10136   2.504   5.994  10.600 -0.1910 -0.3929 -0.3733
  101OSM    HNF10137   2.407   5.985  10.620 -0.4262  1.7944 -0.2781
  101OSM    C2S10138   2.584   5.895  10.667 -0.2966  0.8011  0.2136
  101OSM    H2S10139   2.665   5.857  10.601 -0.1198 -1.4129  1.5713
  101OSM    C3S10140   2.499   5.761  10.700 -0.6831  0.3908  0.4011
  101OSM    H3S10141   2.424   5.804  10.770 -2.5969  0.3864 -1.5238
  101OSM     O310142   2.559   5.645  10.762  0.0906 -0.1002 -0.0847
  101OSM    HO310143   2.650   5.674  10.777 -0.0740  1.8839 -2.2643
  101OSM    C4S10144   2.441   5.713  10.576  0.6029  0.0131 -0.3216
  101OSM    H4S10145   2.508   5.728  10.490 -1.6370  0.8297 -2.0431
  101OSM    C5S10146   2.317   5.664  10.556  1.0126 -0.5188 -0.4729
  101OSM    H5S10147   2.251   5.656  10.643 -0.9895 -1.2743 -1.9952
  101OSM    C6S10148   2.252   5.618  10.429  0.2997  0.0291  0.1879
  101OSM    H6S10149   2.147   5.654  10.430  0.3245  0.1608  1.6714
  101OSM    H6T10150   2.258   5.507  10.433 -0.0443 -0.0845 -1.6944
  101OSM    C7S10151   2.325   5.661  10.299 -0.0055  0.1786  0.2412
  101OSM    H7S10152   2.429   5.622  10.309 -0.2220  0.1009  3.0799
  101OSM    H7T10153   2.339   5.771  10.299  2.3597 -0.0508  1.1639
  101OSM    C8S10154   2.264   5.610  10.173  0.5503 -0.6594  0.6365
  101OSM    H8S10155   2.322   5.648  10.086 -0.6517 -0.9068 -0.2991
  101OSM    H8T10156   2.164   5.654  10.153  0.2811 -1.5467 -0.0397
  101OSM    C9S10157   2.251   5.461  10.161  0.1417 -0.3999  0.3475
  101OSM    H9S10158   2.176   5.422  10.233 -1.2682  1.0153 -0.2834
  101OSM    H9T10159   2.348   5.408  10.169  0.6548  0.3004 -0.9294
  101OSM   C10S10160   2.192   5.421  10.021 -0.2438 -0.2610  0.3338
  101OSM   H10S10161   2.089   5.462  10.020 -0.3959 -0.4729  2.3653
  101OSM   H10T10162   2.178   5.311  10.016 -1.7576 -0.0320 -2.1804
  101OSM   C11S10163   2.271   5.461   9.900  0.5377  0.0024 -0.2261
  101OSM   H11S10164   2.373   5.416   9.908  0.5487  0.3668  3.4438
  101OSM   H11T10165   2.281   5.571   9.890 -2.6977  0.4971  0.9949
  101OSM   C12S10166   2.204   5.409   9.775 -0.0169  0.8063 -0.0506
  101OSM   H12S10167   2.179   5.301   9.780  0.0806  0.6179 -2.4013
  101OSM   H12T10168   2.286   5.398   9.701 -0.4352  0.4910 -0.4734
  101OSM   C13S10169   2.086   5.493   9.714 -0.2818  0.3131  0.1120
  101OSM   H13S10170   2.098   5.600   9.740 -1.4630  0.2426  1.0889
  101OSM   H13T10171   1.997   5.450   9.766  1.5416 -0.8880  2.3980
  101OSM   C14S10172   2.062   5.473   9.562  0.5685  0.1865 -0.7048
  101OSM   H14S10173   2.145   5.512   9.499  1.5571  0.8504  0.9376
  101OSM   H14T10174   1.980   5.542   9.532 -0.2109 -0.5455 -0.3208
  101OSM   C15S10175   2.017   5.333   9.527 -0.6397  0.5581 -0.2127
  101OSM   H15S10176   1.927   5.307   9.587  0.0375  0.4669  0.7893
  101OSM   H15T10177   2.098   5.271   9.572 -1.5276 -0.3442  0.1880
  101OSM   C16S10178   2.000   5.324   9.378  0.2208  0.6887  0.7555
  101OSM   H16S10179   2.092   5.355   9.324  0.2850 -0.8226 -0.0521
  101OSM   H16T10180   1.924   5.386   9.326 -2.1870 -1.3829  1.5738
  101OSM   C17S10181   1.972   5.177   9.342 -0.0097  0.0641  0.1150
  101OSM   H17S10182   1.869   5.157   9.379 -0.7149  0.8810 -1.3285
  101OSM   H17T10183   2.046   5.110   9.390 -0.6457  0.5024  1.7782
  101OSM   C18S10184   1.972   5.156   9.192 -0.4146 -0.2356  0.0513
  101OSM   H18S10185   1.934   5.054   9.170  1.1027 -1.3431  2.1710
  101OSM   H18T10186   2.073   5.177   9.152 -0.2910  2.4784  1.5238
  101OSM   H18U10187   1.897   5.219   9.140 -2.3919 -2.2870  0.2422
  101OSM    C1F10188   2.560   6.097  10.537  0.2299  0.1833  0.2057
  101OSM     OF10189   2.683   6.112  10.532 -0.4949  0.5911 -0.0480
  101OSM    C2F10190   2.468   6.191  10.474 -0.3844 -0.1290  0.2570
  101OSM    H2F10191   2.523   6.287  10.473  0.0580 -0.2944  2.6697
  101OSM    H2G10192   2.377   6.214  10.535 -0.9443 -1.2916 -0.1039
  101OSM    C3F10193   2.423   6.151  10.326 -0.5455 -0.1536 -0.0211
  101OSM    H3F10194   2.333   6.211  10.302 -0.2416  0.0361 -0.7013
  101OSM    H3G10195   2.383   6.049  10.347  1.0679 -0.3905  2.3546
  101OSM    C4F10196   2.539   6.150  10.224 -0.3263 -0.0255 -0.3536
  101OSM    H4F10197   2.626   6.095  10.264 -1.8528 -2.7195 -0.5037
  101OSM    H4G10198   2.556   6.258  10.201 -3.4014  1.4044  3.0662
  101OSM    C5F10199   2.497   6.077  10.089  0.3662  0.0915 -1.1342
  101OSM    H5F10200   2.555   6.123  10.007  0.4417  2.4659  0.1441
  101OSM    H5G10201   2.389   6.101  10.080 -0.6092 -2.5299  1.6658
  101OSM    C6F10202   2.528   5.924  10.092 -0.1075 -0.5724 -0.4147
  101OSM    H6F10203   2.605   5.897  10.167 -0.2726 -1.1288 -0.4420
  101OSM    H6G10204   2.441   5.875  10.140  0.3922  1.5282  2.9986
  101OSM    C7F10205   2.567   5.848   9.962  0.7732 -0.6567  0.0627
  101OSM    H7F10206   2.517   5.901   9.878  0.6027 -0.3679  0.3480
  101OSM    H7G10207   2.539   5.741   9.962  0.2256 -0.5494 -1.7549
  101OSM    C8F10208   2.720   5.852   9.940  0.4075  0.4143 -0.7652
  101OSM    H8F10209   2.757   5.764   9.883 -1.4270 -0.3430 -0.8757
  101OSM    H8G10210   2.765   5.842  10.041 -0.0441  0.0953 -0.5908
  101OSM    C9F10211   2.761   5.977   9.880 -0.2714 -0.6603  0.6082
  101OSM    H9F10212   2.739   6.068   9.936  0.1328  0.9774 -1.7459
  101OSM   C10F10213   2.833   5.983   9.762 -0.5585  0.2562 -0.1093
  101OSM   H10F10214   2.860   6.089   9.744  0.9767 -0.0577  0.2411
  101OSM   C11F10215   2.880   5.877   9.663  0.4803 -0.2226 -0.1265
  101OSM   H11F10216   2.892   5.783   9.720 -1.6324 -1.7701 -2.0538
  101OSM   H11G10217   2.985   5.902   9.637  0.7618 -0.3760  0.8377
  101OSM   C12F10218   2.805   5.846   9.535  0.1231 -0.0452  0.6967
  101OSM   H12F10219   2.877   5.801   9.463 -0.3547  0.4539 -0.1024
  101OSM   H12G10220   2.773   5.934   9.477 -0.4984  0.7840  2.2384
  101OSM   C13F10221   2.680   5.759   9.542 -0.3500 -0.2737 -0.2453
  101OSM   H13F10222   2.600   5.809   9.601 -0.3613 -2.2034  1.5028
  101OSM   H13G10223   2.697   5.664   9.597 -0.0078 -1.2117 -1.9219
  101OSM   C14F10224   2.637   5.717   9.397  0.2138 -0.6370 -0.7245
  101OSM   H14F10225   2.718   5.661   9.345 -0.7785 -0.9810 -1.9508
  101OSM   H14G10226   2.612   5.806   9.335  0.2851 -0.4138 -0.4377
  101OSM   C15F10227   2.512   5.631   9.390  0.1333  0.1793 -0.9662
  101OSM   H15F10228   2.434   5.695   9.437  1.0066  0.4312  0.1807
  101OSM   H15G10229   2.517   5.544   9.459 -0.3468  0.7319 -0.2156
  101OSM   C16F10230   2.484   5.571   9.247  0.3634  0.1402  0.5429
  101OSM   H16F10231   2.576   5.516   9.219 -1.3824 -2.1075 -1.2067
  101OSM   H16G10232   2.477   5.662   9.184 -0.0505 -0.2057  0.0818
  101OSM   C17F10233   2.361   5.479   9.237 -0.4214  0.6018  0.1648
  101OSM   H17F10234   2.290   5.546   9.290  1.9272  2.9927  0.5256
  101OSM   H17G10235   2.364   5.394   9.308  0.8406 -0.5328 -1.1824
  101OSM   C18F10236   2.327   5.434   9.094 -0.2672  0.1320  0.8037
  101OSM   H18F10237   2.227   5.385   9.092 -0.3741  0.3763 -0.3792
  101OSM   H18G10238   2.392   5.350   9.064  1.8379  1.5934  1.0506
  101OSM   H18H10239   2.333   5.519   9.023 -0.7093  0.9456  1.7148
  102OSM      N10240   3.025   0.889  10.652  0.1363  0.1837 -0.0004
  102OSM    C1510241   3.082   0.764  10.714 -0.1547 -0.2710  0.3506
  102OSM   H15A10242   3.089   0.682  10.644  0.6654 -1.1833  1.4723
  102OSM   H15B10243   3.021   0.718  10.790 -0.4147  0.1459  0.3960
  102OSM   H15C10244   3.177   0.787  10.760 -0.6407 -1.2564  1.9296
  102OSM    C1410245   2.902   0.844  10.569  1.1330  0.6368 -0.5115
  102OSM   H14A10246   2.839   0.786  10.633 -0.1461  1.1957 -1.2246
  102OSM   H14B10247   2.925   0.782  10.483 -0.3660 -0.4679 -0.1354
  102OSM   H14C10248   2.835   0.925  10.542 -0.4128 -0.8220 -1.2458
  102OSM    C1310249   2.984   0.968  10.780  0.7590  0.7651  0.0373
  102OSM   H13A10250   2.922   0.903  10.841  1.6267 -1.6011 -1.4508
  102OSM   H13B10251   2.941   1.060  10.744  0.7202 -0.3832 -3.1336
  102OSM   H13C10252   3.070   0.978  10.845  0.1302  1.0766  0.8390
  102OSM    C1210253   3.118   0.961  10.564  0.6602  1.0864  0.0268
  102OSM   H12A10254   3.067   1.042  10.515 -0.5125  0.5487  0.3248
  102OSM   H12B10255   3.158   0.899  10.485  0.6297 -1.5977  1.9973
  102OSM    C1110256   3.241   1.022  10.636 -0.1644 -1.0580 -0.3059
  102OSM   H11A10257   3.202   1.097  10.707  1.3134 -0.5642  0.0216
  102OSM   H11B10258   3.299   1.081  10.561  2.5267 -3.4126 -0.2101
  102OSM      P10259   3.428   0.833  10.619 -0.3382  0.4592 -0.0435
  102OSM    O1310260   3.524   0.764  10.704  0.1838  0.6476 -0.7034
  102OSM    O1410261   3.355   0.746  10.526  0.6882  0.1147 -0.2266
  102OSM    O1110262   3.507   0.942  10.538 -0.4523 -0.4263  0.1546
  102OSM    O1210263   3.330   0.930  10.701 -0.1543 -0.0198  0.0391
  102OSM    C1S10264   3.644   0.940  10.500 -0.3031  0.1433  0.0445
  102OSM    H1S10265   3.711   0.899  10.579  1.0063  0.8859 -0.6497
  102OSM    H1T10266   3.683   1.042  10.482  0.4506  0.4653  2.9347
  102OSM     NF10267   3.809   0.843  10.346  0.4069  0.4520 -0.0307
  102OSM    HNF10268   3.841   0.910  10.280  2.0216  0.0051  0.2673
  102OSM    C2S10269   3.664   0.858  10.369  0.0557  0.4746  0.1995
  102OSM    H2S10270   3.610   0.763  10.390  1.0840  0.0317  0.8852
  102OSM    C3S10271   3.579   0.912  10.246  0.1559 -0.4293  0.2897
  102OSM    H3S10272   3.614   1.011  10.211 -2.1205 -0.7862 -3.6447
  102OSM     O310273   3.439   0.931  10.267 -0.1080 -0.0837  0.5413
  102OSM    HO310274   3.424   0.933  10.361  2.6078 -0.1106  1.0432
  102OSM    C4S10275   3.609   0.828  10.135  0.9990  0.4612  0.0916
  102OSM    H4S10276   3.710   0.830  10.092  1.1372 -0.1073  0.3840
  102OSM    C5S10277   3.534   0.735  10.072 -0.1520  0.3484 -0.8919
  102OSM    H5S10278   3.436   0.713  10.117  1.2990  0.4102  2.6098
  102OSM    C6S10279   3.591   0.642   9.965  1.0535  0.3112 -0.0401
  102OSM    H6S10280   3.556   0.537   9.972  0.2320  0.4931 -1.3134
  102OSM    H6T10281   3.702   0.634   9.973  1.0819  0.8620  0.1651
  102OSM    C7S10282   3.564   0.699   9.823 -0.0028  0.0713 -0.4277
  102OSM    H7S10283   3.599   0.803   9.810 -0.0231 -0.1203 -2.2010
  102OSM    H7T10284   3.454   0.694   9.808  0.1112 -1.3537 -0.9317
  102OSM    C8S10285   3.643   0.611   9.723  0.5445  0.0018 -0.1301
  102OSM    H8S10286   3.577   0.522   9.712  2.9717 -1.6805 -2.1728
  102OSM    H8T10287   3.737   0.569   9.763  0.1299 -2.1051 -1.2317
  102OSM    C9S10288   3.668   0.685   9.591  0.1524 -0.2403  0.0606
  102OSM    H9S10289   3.748   0.759   9.613 -2.4788  2.4638  1.1998
  102OSM    H9T10290   3.576   0.732   9.552 -0.7467 -1.5174  0.5766
  102OSM   C10S10291   3.746   0.590   9.495 -0.2294  0.2545  0.4831
  102OSM   H10S10292   3.672   0.513   9.464 -0.7976  1.2848 -0.8303
  102OSM   H10T10293   3.828   0.541   9.551 -0.9001 -1.8274 -0.2625
  102OSM   C11S10294   3.802   0.657   9.373 -0.2369 -0.4533 -0.3136
  102OSM   H11S10295   3.865   0.582   9.319 -1.7252 -1.0703 -1.2600
  102OSM   H11T10296   3.864   0.744   9.404 -1.1317 -0.1013  0.5124
  102OSM   C12S10297   3.701   0.703   9.266  0.2949 -0.2728  0.3383
  102OSM   H12S10298   3.750   0.784   9.209 -1.0225 -0.0389 -0.5275
  102OSM   H12T10299   3.610   0.746   9.314 -1.8732  0.2108 -3.7097
  102OSM   C13S10300   3.648   0.588   9.179 -0.3935  0.0417 -0.5762
  102OSM   H13S10301   3.571   0.531   9.235 -0.8570 -0.1501 -1.3789
  102OSM   H13T10302   3.720   0.507   9.155 -2.0688 -1.8208  0.3970
  102OSM   C14S10303   3.576   0.629   9.050  0.3871  0.6698  0.6373
  102OSM   H14S10304   3.635   0.683   8.973  0.8205 -2.0932 -1.0949
  102OSM   H14T10305   3.492   0.697   9.076 -0.3629  1.5052 -3.3383
  102OSM   C15S10306   3.517   0.502   8.982  0.3425 -0.0639 -0.8720
  102OSM   H15S10307   3.445   0.469   9.060  1.3481  1.6712  0.8899
  102OSM   H15T10308   3.594   0.428   8.954  2.3430  2.4085 -2.3231
  102OSM   C16S10309   3.456   0.529   8.845 -0.1519  0.2379 -0.2185
  102OSM   H16S10310   3.378   0.608   8.851 -0.2235  0.1902 -0.4965
  102OSM   H16T10311   3.393   0.445   8.809 -1.8400  1.5333 -0.4511
  102OSM   C17S10312   3.555   0.561   8.735 -0.7629  0.3208  0.3204
  102OSM   H17S10313   3.600   0.465   8.703 -0.9203  0.5926 -0.7744
  102OSM   H17T10314   3.634   0.629   8.774 -1.5720  1.8122 -0.5154
  102OSM   C18S10315   3.484   0.635   8.617  0.2576 -0.1164  0.3565
  102OSM   H18S10316   3.558   0.627   8.535 -1.6066  1.2487 -1.5603
  102OSM   H18T10317   3.481   0.744   8.636 -0.8124 -0.0832  0.0445
  102OSM   H18U10318   3.383   0.592   8.602  0.4173 -0.1809 -0.5898
  102OSM    C1F10319   3.902   0.764  10.402 -0.6151 -0.1546 -0.1941
  102OSM     OF10320   3.862   0.691  10.492 -0.0597 -0.4435  0.0561
  102OSM    C2F10321   4.049   0.774  10.357  0.1618  0.0200 -0.4986
  102OSM    H2F10322   4.116   0.775  10.446 -2.7860 -1.9711  1.9763
  102OSM    H2G10323   4.060   0.865  10.295 -0.3337  0.1895 -0.3343
  102OSM    C3F10324   4.110   0.645  10.299 -0.2221 -0.3361  0.0230
  102OSM    H3F10325   4.113   0.559  10.370  2.5643 -0.4650 -0.1336
  102OSM    H3G10326   4.209   0.661  10.253 -0.4674  2.0129  0.2340
  102OSM    C4F10327   4.017   0.583  10.187 -0.5981 -0.1517  0.5609
  102OSM    H4F10328   3.912   0.572  10.220 -1.5797 -2.4498 -2.8393
  102OSM    H4G10329   4.054   0.479  10.174  0.2467  0.2467 -0.3514
  102OSM    C5F10330   4.024   0.648  10.054 -0.0219 -0.5603  0.2859
  102OSM    H5F10331   4.116   0.709  10.041  0.0498 -0.6368  0.4330
  102OSM    H5G10332   3.935   0.713  10.064  0.0216 -0.5671  0.7212
  102OSM    C6F10333   4.007   0.562   9.929 -0.2135 -0.1336 -0.4447
  102OSM    H6F10334   3.898   0.540   9.931 -0.5023  1.2483 -0.0550
  102OSM    H6G10335   4.073   0.474   9.938 -2.5727 -1.7988  2.5583
  102OSM    C7F10336   4.039   0.651   9.801 -0.6398 -0.0436 -0.1942
  102OSM    H7F10337   3.991   0.750   9.817  3.0163  1.5188  2.4044
  102OSM    H7G10338   3.998   0.592   9.717 -0.5392 -2.5433  1.4236
  102OSM    C8F10339   4.187   0.689   9.776  0.3823  0.0163  0.0365
  102OSM    H8F10340   4.235   0.590   9.761  2.2471  0.8679  0.0530
  102OSM    H8G10341   4.241   0.722   9.868  0.6066 -2.9013  1.0572
  102OSM    C9F10342   4.213   0.780   9.661 -0.9225 -0.3016  0.2402
  102OSM    H9F10343   4.228   0.887   9.684  0.4101  0.0566 -1.9299
  102OSM   C10F10344   4.206   0.750   9.529 -0.7381 -0.5717 -0.4405
  102OSM   H10F10345   4.218   0.841   9.469  0.2511 -0.0156  0.5466
  102OSM   C11F10346   4.172   0.618   9.469  0.2668 -0.4415 -0.0452
  102OSM   H11F10347   4.062   0.605   9.460 -0.2712  2.5783  0.8250
  102OSM   H11G10348   4.196   0.534   9.538  1.3818  1.7016  2.3516
  102OSM   C12F10349   4.248   0.590   9.343  0.6058  0.2667  0.2749
  102OSM   H12F10350   4.211   0.493   9.305  0.8588  0.8991 -1.7338
  102OSM   H12G10351   4.355   0.565   9.362  0.3006 -0.6527  0.8265
  102OSM   C13F10352   4.251   0.699   9.227 -0.4293 -0.3610 -0.1726
  102OSM   H13F10353   4.328   0.768   9.268 -0.0755 -1.8963  1.9331
  102OSM   H13G10354   4.152   0.749   9.218  0.0866  0.4981 -1.1699
  102OSM   C14F10355   4.294   0.644   9.092  0.4923 -0.1373  0.0233
  102OSM   H14F10356   4.239   0.552   9.063 -1.2548  0.5094  1.1067
  102OSM   H14G10357   4.396   0.602   9.106 -0.1023 -1.1315  1.7451
  102OSM   C15F10358   4.291   0.752   8.981 -0.7955  0.0203 -0.7159
  102OSM   H15F10359   4.369   0.828   9.007 -1.0366 -0.4373  1.5349
  102OSM   H15G10360   4.191   0.799   8.998 -0.0073  1.6752 -0.3818
  102OSM   C16F10361   4.327   0.691   8.850  0.3960  0.2146  0.8975
  102OSM   H16F10362   4.245   0.625   8.815 -2.2699  4.0786 -0.8415
  102OSM   H16G10363   4.426   0.640   8.849  0.8557  0.9140  3.6342
  102OSM   C17F10364   4.324   0.802   8.745 -0.1450  0.3701 -0.0806
  102OSM   H17F10365   4.366   0.899   8.779 -1.1901  0.9117 -0.2874
  102OSM   H17G10366   4.220   0.830   8.717 -0.1750 -0.2324 -0.5995
  102OSM   C18F10367   4.393   0.778   8.610  0.3428  1.0867 -0.6513
  102OSM   H18F10368   4.341   0.703   8.548 -0.5189  0.1175  1.1673
  102OSM   H18G10369   4.499   0.752   8.632 -0.2465  0.3668  1.6287
  102OSM   H18H10370   4.402   0.877   8.560  1.4125  2.2662  1.7167
  103OSM      N10371   3.112   3.806  11.268 -0.2410 -0.2351  0.0230
  103OSM    C1510372   3.208   3.728  11.196 -1.2935 -0.2529  0.5278
  103OSM   H15A10373   3.226   3.777  11.101  0.4048  2.6938  2.2253
  103OSM   H15B10374   3.182   3.624  11.184 -1.3866  0.0631 -3.1246
  103OSM   H15C10375   3.303   3.741  11.246 -0.7401 -1.2889 -0.2109
  103OSM    C1410376   3.066   3.735  11.384  0.3852 -0.1028  0.0828
  103OSM   H14A10377   3.150   3.715  11.449  0.9385 -0.2548 -0.6697
  103OSM   H14B10378   3.005   3.650  11.357  0.5285 -0.4055  0.7078
  103OSM   H14C10379   3.003   3.794  11.449  0.5795  2.3177 -1.7778
  103OSM    C1310380   3.170   3.939  11.305  0.1021  0.0010  0.1033
  103OSM   H13A10381   3.262   3.921  11.359 -0.2832 -1.1290  0.4217
  103OSM   H13B10382   3.101   3.998  11.362 -1.2786 -0.5455 -0.9381
  103OSM   H13C10383   3.203   3.991  11.216  0.2285  0.1353  0.2281
  103OSM    C1210384   2.991   3.833  11.172  0.5031 -0.2480  0.1266
  103OSM   H12A10385   2.922   3.906  11.213 -1.8526 -2.1526 -0.2006
  103OSM   H12B10386   2.937   3.739  11.166  1.2264 -0.9396  3.1760
  103OSM    C1110387   3.029   3.884  11.030  0.2653  0.3919 -0.4301
  103OSM   H11A10388   2.943   3.921  10.970 -0.2781  0.3023  0.2780
  103OSM   H11B10389   3.066   3.793  10.978  2.3019  1.2321 -0.5452
  103OSM      P10390   3.229   4.004  10.917  0.0429  0.2151 -0.0758
  103OSM    O1310391   3.271   4.144  10.917  0.7204 -0.3406 -0.5202
  103OSM    O1410392   3.331   3.903  10.946 -0.3344  0.2700  0.7441
  103OSM    O1110393   3.159   3.965  10.776  0.3147  0.6743  0.5215
  103OSM    O1210394   3.120   3.990  11.029 -0.0811 -0.1049  0.4130
  103OSM    C1S10395   3.046   4.044  10.739 -0.0348 -0.0601 -0.0867
  103OSM    H1S10396   3.075   4.142  10.696 -0.6741 -0.7806 -2.3035
  103OSM    H1T10397   2.980   4.064  10.826  1.7143  0.5614  1.1576
  103OSM     NF10398   2.835   4.075  10.604 -0.6167 -0.1573 -0.2059
  103OSM    HNF10399   2.755   4.051  10.658 -0.1465  1.8484  1.5150
  103OSM    C2S10400   2.947   3.979  10.631 -0.0688 -0.2237  0.0491
  103OSM    H2S10401   3.009   3.969  10.540  0.1415 -0.3203  0.2022
  103OSM    C3S10402   2.893   3.841  10.671  0.4331  0.7752 -0.0859
  103OSM    H3S10403   2.831   3.852  10.762  1.7337  0.2362  0.8924
  103OSM     O310404   2.993   3.757  10.719 -0.0066  0.2148  0.2139
  103OSM    HO310405   3.067   3.813  10.744  0.0603  0.0575  0.3689
  103OSM    C4S10406   2.812   3.778  10.566  0.2601  0.1538 -0.0484
  103OSM    H4S10407   2.710   3.817  10.553 -0.4209 -1.4998  0.0349
  103OSM    C5S10408   2.856   3.683  10.481  0.5469 -0.0747  0.4636
  103OSM    H5S10409   2.965   3.665  10.473  0.6417  1.0026 -1.2891
  103OSM    C6S10410   2.769   3.619  10.376  0.0918 -0.1473  0.3210
  103OSM    H6S10411   2.697   3.546  10.417  1.0991 -0.3316  1.8445
  103OSM    H6T10412   2.834   3.562  10.305  1.6023 -0.4817  1.8832
  103OSM    C7S10413   2.688   3.718  10.291 -1.0715  0.0278  0.7423
  103OSM    H7S10414   2.749   3.795  10.239 -0.7436 -1.0302 -0.4876
  103OSM    H7T10415   2.624   3.770  10.366 -0.1829  0.6160  1.1121
  103OSM    C8S10416   2.599   3.650  10.186 -0.8446 -0.4515  0.3561
  103OSM    H8S10417   2.540   3.730  10.137  0.5802 -0.2625 -1.1272
  103OSM    H8T10418   2.541   3.575  10.244  1.3891 -3.3950 -0.9922
  103OSM    C9S10419   2.666   3.574  10.068  0.9206  0.0429  0.1114
  103OSM    H9S10420   2.721   3.486  10.108 -0.1480  0.6486  3.1171
  103OSM    H9T10421   2.737   3.635  10.007  0.3219 -0.7077 -1.3860
  103OSM   C10S10422   2.567   3.513   9.965  0.0383 -0.7096  0.4876
  103OSM   H10S10423   2.475   3.576   9.961 -1.0411 -1.8062  4.2018
  103OSM   H10T10424   2.522   3.417   9.998 -2.2174 -0.1673 -0.7649
  103OSM   C11S10425   2.637   3.499   9.827 -0.4877 -0.3028  0.0459
  103OSM   H11S10426   2.702   3.409   9.835  1.2674  1.0018  1.0193
  103OSM   H11T10427   2.688   3.592   9.795 -0.6174 -0.5428 -0.8877
  103OSM   C12S10428   2.540   3.452   9.707 -0.5529  0.0053 -0.2457
  103OSM   H12S10429   2.459   3.522   9.681 -0.8422 -0.5840 -0.9486
  103OSM   H12T10430   2.490   3.356   9.733 -0.2722 -0.4860 -1.4486
  103OSM   C13S10431   2.604   3.435   9.574 -0.3290 -0.0071 -0.3651
  103OSM   H13S10432   2.700   3.379   9.583 -1.5226 -1.9669  1.0358
  103OSM   H13T10433   2.637   3.535   9.536  0.9198 -0.4789 -0.5867
  103OSM   C14S10434   2.503   3.378   9.473 -0.4513 -0.7046 -1.0200
  103OSM   H14S10435   2.412   3.442   9.468 -0.1525 -0.3134 -1.6143
  103OSM   H14T10436   2.468   3.279   9.509 -0.8798  0.4613  2.0507
  103OSM   C15S10437   2.562   3.367   9.330 -0.5089  0.1642 -0.8178
  103OSM   H15S10438   2.652   3.304   9.340 -0.2578  0.3713 -1.7233
  103OSM   H15T10439   2.583   3.466   9.285  0.3336  0.1797 -0.4104
  103OSM   C16S10440   2.465   3.298   9.230 -0.2052 -0.0605  0.1617
  103OSM   H16S10441   2.369   3.354   9.233  1.0905  2.3350 -0.4726
  103OSM   H16T10442   2.433   3.197   9.264 -1.5518  0.3485  0.1931
  103OSM   C17S10443   2.523   3.286   9.091 -1.0114 -0.1916 -0.5868
  103OSM   H17S10444   2.590   3.198   9.086 -1.8840 -0.8693 -0.4544
  103OSM   H17T10445   2.578   3.380   9.066 -2.8763  1.0469 -0.2451
  103OSM   C18S10446   2.422   3.273   8.982  0.6265  0.3400  0.0381
  103OSM   H18S10447   2.351   3.188   8.994 -0.1308  0.6691 -1.7366
  103OSM   H18T10448   2.469   3.252   8.884 -1.7509 -0.0677 -1.1062
  103OSM   H18U10449   2.352   3.360   8.974 -0.2952 -0.4615 -0.9674
  103OSM    C1F10450   2.854   4.191  10.532 -0.6682  0.2359  0.8375
  103OSM     OF10451   2.969   4.226  10.497 -0.0410  0.6402  0.5375
  103OSM    C2F10452   2.736   4.277  10.503  0.4196 -0.1584  0.0809
  103OSM    H2F10453   2.771   4.348  10.425  1.0085  0.5773  1.0027
  103OSM    H2G10454   2.714   4.341  10.591  0.6135  1.8092 -1.2440
  103OSM    C3F10455   2.602   4.215  10.452  0.1196  0.4759 -0.3656
  103OSM    H3F10456   2.531   4.300  10.449 -0.2013  0.2928  1.2286
  103OSM    H3G10457   2.565   4.140  10.525 -0.9055  1.9049  0.6224
  103OSM    C4F10458   2.619   4.152  10.314 -0.3053  0.4371 -0.4602
  103OSM    H4F10459   2.704   4.081  10.307 -1.8564 -1.5078 -0.4076
  103OSM    H4G10460   2.646   4.226  10.236  1.0251 -0.2049 -0.6355
  103OSM    C5F10461   2.483   4.081  10.273 -1.1457  0.3790 -0.6970
  103OSM    H5F10462   2.409   4.132  10.337  1.2709  0.9335  1.8345
  103OSM    H5G10463   2.484   3.974  10.306 -1.1590  0.1972 -1.2709
  103OSM    C6F10464   2.449   4.102  10.127 -0.3202  0.3634  0.8006
  103OSM    H6F10465   2.430   4.210  10.114  0.0544  0.6797  2.6591
  103OSM    H6G10466   2.359   4.041  10.102  0.8439 -1.5411  1.0354
  103OSM    C7F10467   2.570   4.050  10.050  0.4473 -0.6908 -0.7790
  103OSM    H7F10468   2.611   3.957  10.095 -1.6277 -1.3778 -0.1844
  103OSM    H7G10469   2.656   4.119  10.060  1.2244 -1.6225 -0.7863
  103OSM    C8F10470   2.540   4.037   9.899  0.0022 -0.0477  0.0278
  103OSM    H8F10471   2.637   4.053   9.848  0.4555  1.9350  1.3633
  103OSM    H8G10472   2.478   4.122   9.863 -0.0564  0.2526  0.8080
  103OSM    C9F10473   2.474   3.905   9.868  0.1730  0.3768 -0.8591
  103OSM    H9F10474   2.412   3.868   9.951 -0.0095 -0.7046 -1.4577
  103OSM   C10F10475   2.463   3.831   9.757 -0.7465  0.4544 -0.0785
  103OSM   H10F10476   2.422   3.729   9.759 -0.0808  0.1590  2.1216
  103OSM   C11F10477   2.529   3.863   9.627  0.7341 -0.0839 -0.4787
  103OSM   H11F10478   2.535   3.782   9.552 -0.9825 -0.1386 -0.5967
  103OSM   H11G10479   2.633   3.898   9.640 -0.3136  3.2134 -0.0444
  103OSM   C12F10480   2.467   3.984   9.547  0.4109  1.0916 -0.0153
  103OSM   H12F10481   2.475   4.063   9.625 -0.2249 -0.2579  1.4726
  103OSM   H12G10482   2.362   3.965   9.515  0.3231  1.3419  0.1199
  103OSM   C13F10483   2.552   4.025   9.428  0.2072  0.2519 -0.1185
  103OSM   H13F10484   2.538   3.946   9.350 -0.3485  2.2261 -2.1100
  103OSM   H13G10485   2.658   4.028   9.462  0.0434 -0.0843  0.4414
  103OSM   C14F10486   2.508   4.149   9.348 -0.4473  0.4448  0.0096
  103OSM   H14F10487   2.538   4.242   9.401  3.3942 -0.2265 -0.7234
  103OSM   H14G10488   2.397   4.160   9.345 -0.3610  1.2383 -0.7363
  103OSM   C15F10489   2.566   4.155   9.206 -0.3462  0.3443 -0.7463
  103OSM   H15F10490   2.548   4.057   9.156  1.2196 -1.0060  1.1419
  103OSM   H15G10491   2.676   4.169   9.211 -0.2965 -0.3161  1.7818
  103OSM   C16F10492   2.520   4.271   9.120 -0.0294  0.1713 -0.0110
  103OSM   H16F10493   2.568   4.364   9.158  3.4890 -1.4056 -0.2622
  103OSM   H16G10494   2.409   4.280   9.124 -0.0525  1.0965 -1.8881
  103OSM   C17F10495   2.549   4.272   8.969 -0.7253 -0.7303 -0.2988
  103OSM   H17F10496   2.510   4.179   8.922  1.1751 -2.2385  0.9208
  103OSM   H17G10497   2.660   4.266   8.969 -0.6287  0.6928 -0.8500
  103OSM   C18F10498   2.492   4.401   8.909 -0.2678 -0.0158  0.5491
  103OSM   H18F10499   2.388   4.428   8.938  0.3090  0.9569  1.8123
  103OSM   H18G10500   2.507   4.397   8.799 -1.4414 -1.9196  0.4002
  103OSM   H18H10501   2.548   4.486   8.951  1.1762  0.0719 -1.4262
  104OSM      N10502   5.233   2.195  11.104  0.4326  0.2160 -0.0505
  104OSM    C1510503   5.315   2.236  11.219  0.0566  0.1127  0.4850
  104OSM   H15A10504   5.410   2.186  11.215 -0.5453 -1.0001 -0.7802
  104OSM   H15B10505   5.266   2.214  11.313 -1.6941 -0.7727 -0.5699
  104OSM   H15C10506   5.338   2.341  11.205  1.2903 -0.3782 -1.7448
  104OSM    C1410507   5.198   2.050  11.114 -0.1831  0.4692 -0.2769
  104OSM   H14A10508   5.169   2.014  11.016 -1.2995 -1.7662  0.7973
  104OSM   H14B10509   5.120   2.031  11.187  0.8319  2.0896  1.3176
  104OSM   H14C10510   5.285   1.991  11.138 -0.1447  1.2140  1.6092
  104OSM    C1310511   5.111   2.277  11.102  0.9172  0.0106  1.0355
  104OSM   H13A10512   5.046   2.264  11.017 -0.2869  1.5026  1.6833
  104OSM   H13B10513   5.136   2.382  11.106  0.0317  0.2231  1.0715
  104OSM   H13C10514   5.054   2.256  11.191 -1.5684 -2.5616 -0.9712
  104OSM    C1210515   5.305   2.228  10.977  0.1878  0.4080  0.0175
  104OSM   H12A10516   5.312   2.334  10.959  0.5286  0.3906  0.0415
  104OSM   H12B10517   5.246   2.196  10.893  1.6893 -0.5303 -0.7082
  104OSM    C1110518   5.440   2.158  10.951 -0.0395 -1.4694  0.0540
  104OSM   H11A10519   5.500   2.176  11.043  1.1753 -1.0506 -0.7906
  104OSM   H11B10520   5.495   2.211  10.870 -1.4969  4.8549  2.6224
  104OSM      P10521   5.345   1.965  10.807 -0.2582 -0.2683 -0.1824
  104OSM    O1310522   5.351   1.816  10.808 -0.9946 -0.6505  0.0489
  104OSM    O1410523   5.209   2.014  10.802  0.1380 -0.1966 -0.4640
  104OSM    O1110524   5.426   2.020  10.680 -0.6687  0.0489 -0.2390
  104OSM    O1210525   5.426   2.014  10.933  0.3837 -0.7949  0.2083
  104OSM    C1S10526   5.349   1.989  10.563 -0.4857 -0.4246  0.4551
  104OSM    H1S10527   5.239   1.976  10.564 -0.4984 -0.3517  1.7123
  104OSM    H1T10528   5.384   1.894  10.518 -1.4065  0.3451 -2.0863
  104OSM     NF10529   5.314   2.077  10.335 -0.1175 -0.1870 -0.0047
  104OSM    HNF10530   5.371   2.056  10.256 -0.9716 -2.2797 -0.1228
  104OSM    C2S10531   5.374   2.106  10.468  0.4199  0.1013  0.2564
  104OSM    H2S10532   5.337   2.201  10.511 -1.2285 -1.1779  1.7727
  104OSM    C3S10533   5.531   2.129  10.454 -0.4359 -0.4514  0.2941
  104OSM    H3S10534   5.572   2.026  10.440 -0.9774 -0.9070  1.7728
  104OSM     O310535   5.599   2.174  10.574 -0.1964  0.1015 -0.3152
  104OSM    HO310536   5.551   2.131  10.645  1.5191 -3.4271 -1.0471
  104OSM    C4S10537   5.568   2.234  10.353 -0.2371  0.2706  0.2240
  104OSM    H4S10538   5.537   2.336  10.380  1.4781  1.0676 -0.6587
  104OSM    C5S10539   5.651   2.221  10.252 -0.1365  0.2754 -0.3260
  104OSM    H5S10540   5.702   2.127  10.227  0.8540  0.8630 -0.5524
  104OSM    C6S10541   5.694   2.341  10.158  0.4404 -0.2809 -0.7737
  104OSM    H6S10542   5.721   2.290  10.063  0.3261  0.5075 -1.2331
  104OSM    H6T10543   5.773   2.406  10.202 -0.9681 -1.6105  4.4853
  104OSM    C7S10544   5.575   2.433  10.115 -0.5735 -0.1552  0.2085
  104OSM    H7S10545   5.525   2.487  10.198 -0.1975  0.5820 -0.0317
  104OSM    H7T10546   5.501   2.365  10.068 -0.4139 -1.3188  1.5905
  104OSM    C8S10547   5.620   2.537  10.011  0.4568  0.7705  0.5640
  104OSM    H8S10548   5.714   2.587  10.043  1.2716  0.0358 -0.5834
  104OSM    H8T10549   5.537   2.610   9.999  0.8137  1.3152  1.3438
  104OSM    C9S10550   5.642   2.482   9.872 -0.5405 -0.1084  0.0575
  104OSM    H9S10551   5.689   2.382   9.873  1.4249  0.7602  1.5296
  104OSM    H9T10552   5.718   2.550   9.829 -0.1153  0.9788  2.3839
  104OSM   C10S10553   5.513   2.487   9.784 -0.0016 -0.0337  0.7025
  104OSM   H10S10554   5.479   2.592   9.798  1.7649  0.4204  2.0935
  104OSM   H10T10555   5.420   2.440   9.823 -0.8249  0.7995 -0.2157
  104OSM   C11S10556   5.542   2.460   9.638  0.5375 -0.5116  0.7977
  104OSM   H11S10557   5.540   2.349   9.639  1.0922 -0.5258  0.7180
  104OSM   H11T10558   5.645   2.491   9.610  0.4581 -1.3481 -0.4670
  104OSM   C12S10559   5.442   2.511   9.541 -0.3852 -0.3719  0.1411
  104OSM   H12S10560   5.419   2.620   9.552  0.3054 -0.1738 -0.3050
  104OSM   H12T10561   5.348   2.454   9.553 -0.4562 -0.3371 -0.2369
  104OSM   C13S10562   5.495   2.500   9.399 -0.3869 -0.2751  0.5639
  104OSM   H13S10563   5.545   2.403   9.377  0.9384  0.6734 -0.8677
  104OSM   H13T10564   5.577   2.574   9.383  0.6940 -1.9033 -2.0625
  104OSM   C14S10565   5.375   2.525   9.301 -0.5187  0.2939  0.0041
  104OSM   H14S10566   5.347   2.632   9.298  0.4663  0.5445 -0.5266
  104OSM   H14T10567   5.278   2.477   9.328  0.0475  0.1964  2.0084
  104OSM   C15S10568   5.417   2.499   9.153 -0.2601  0.3282 -0.8277
  104OSM   H15S10569   5.444   2.393   9.133 -1.0633  0.2946 -1.8567
  104OSM   H15T10570   5.502   2.564   9.123 -0.0599  1.7285  2.3952
  104OSM   C16S10571   5.310   2.530   9.051 -0.1128 -0.9458  0.2468
  104OSM   H16S10572   5.283   2.638   9.050 -0.4648 -1.0023 -2.1976
  104OSM   H16T10573   5.221   2.465   9.065  0.5987 -2.1774 -0.7146
  104OSM   C17S10574   5.353   2.506   8.905 -0.4261 -0.1729  0.0746
  104OSM   H17S10575   5.374   2.397   8.892 -2.7714 -0.4716 -2.0512
  104OSM   H17T10576   5.445   2.566   8.893 -0.7975  0.7584  1.6005
  104OSM   C18S10577   5.254   2.551   8.800 -0.3049  0.8021  0.5308
  104OSM   H18S10578   5.163   2.488   8.794 -0.9207  1.8093 -1.2024
  104OSM   H18T10579   5.300   2.541   8.700 -0.6108  1.1403  0.3538
  104OSM   H18U10580   5.213   2.654   8.807  0.0097  0.9732 -0.0821
  104OSM    C1F10581   5.179   2.068  10.316 -0.3179 -0.2680 -0.3371
  104OSM     OF10582   5.112   2.131  10.396  1.0190  0.0308 -0.1061
  104OSM    C2F10583   5.123   1.985  10.212  0.6425 -0.4175  0.8855
  104OSM    H2F10584   5.059   1.907  10.259 -1.8902  0.3732 -0.9601
  104OSM    H2G10585   5.206   1.925  10.170 -0.9390 -2.2731  0.2088
  104OSM    C3F10586   5.031   2.054  10.108  0.3969 -0.1440  0.0445
  104OSM    H3F10587   4.974   2.137  10.155  1.6400  0.5017  0.4711
  104OSM    H3G10588   4.960   1.977  10.072  1.6523 -1.6045  0.5644
  104OSM    C4F10589   5.119   2.106   9.996  0.1588 -0.1296  0.5844
  104OSM    H4F10590   5.175   2.028   9.942  0.3656  0.5148 -0.1570
  104OSM    H4G10591   5.192   2.164  10.056  1.2224  0.8377 -1.5389
  104OSM    C5F10592   5.030   2.199   9.908  0.8309  0.3720 -0.0067
  104OSM    H5F10593   4.994   2.282   9.971 -0.0894 -0.5138  0.6502
  104OSM    H5G10594   4.943   2.138   9.875 -0.1834  2.1204 -0.7005
  104OSM    C6F10595   5.094   2.252   9.774  0.5198  0.4610 -0.1025
  104OSM    H6F10596   5.179   2.323   9.780  0.4584  1.0148 -3.5971
  104OSM    H6G10597   5.017   2.299   9.709 -1.5054 -4.1788 -1.4395
  104OSM    C7F10598   5.146   2.134   9.692 -0.7042  0.3648  0.1253
  104OSM    H7F10599   5.081   2.046   9.709 -0.2835  0.5314  3.1627
  104OSM    H7G10600   5.241   2.099   9.739 -0.7774  1.0745  0.8168
  104OSM    C8F10601   5.153   2.163   9.541 -0.7211  0.5884 -0.2946
  104OSM    H8F10602   5.222   2.250   9.530  0.2666  0.0314  1.1968
  104OSM    H8G10603   5.053   2.194   9.503 -0.6839  0.4409 -0.5197
  104OSM    C9F10604   5.199   2.043   9.463 -0.0072  0.3697  0.2763
  104OSM    H9F10605   5.172   1.953   9.519 -0.4314  2.1500  3.1265
  104OSM   C10F10606   5.275   2.040   9.354 -0.2580  0.0186 -0.6143
  104OSM   H10F10607   5.304   1.944   9.308 -1.2318 -0.1289 -0.9389
  104OSM   C11F10608   5.328   2.158   9.280 -0.4070 -0.2238  0.1462
  104OSM   H11F10609   5.429   2.181   9.318 -1.8272  2.5906  2.6505
  104OSM   H11G10610   5.273   2.253   9.296  0.8412  0.3731  0.9705
  104OSM   C12F10611   5.316   2.126   9.131 -0.2142 -0.6373  0.1766
  104OSM   H12F10612   5.374   2.037   9.097 -0.0517 -0.1788 -0.7935
  104OSM   H12G10613   5.368   2.208   9.076 -1.3892  0.0601  0.0740
  104OSM   C13F10614   5.170   2.132   9.088  0.2876  1.5080  0.3137
  104OSM   H13F10615   5.120   2.224   9.125  1.0977  1.0150  2.8306
  104OSM   H13G10616   5.105   2.052   9.131 -1.5096  1.3799 -2.3977
  104OSM   C14F10617   5.157   2.127   8.935 -0.3728  0.2771 -0.1304
  104OSM   H14F10618   5.216   2.212   8.895  2.5707  0.2623  3.6863
  104OSM   H14G10619   5.048   2.143   8.916 -0.9036  0.0653  2.4029
  104OSM   C15F10620   5.198   1.990   8.878  0.4966 -0.2102 -0.0083
  104OSM   H15F10621   5.171   1.902   8.940  0.2976  0.8055  1.3960
  104OSM   H15G10622   5.309   1.988   8.870  0.6767  2.4104  0.8207
  104OSM   C16F10623   5.140   1.965   8.732  0.4493  0.5644 -0.3699
  104OSM   H16F10624   5.122   2.059   8.675  0.6688 -0.4229 -2.1401
  104OSM   H16G10625   5.037   1.931   8.753  0.2910  1.7740  0.9940
  104OSM   C17F10626   5.238   1.871   8.655  0.1175  0.3967  0.2955
  104OSM   H17F10627   5.340   1.909   8.631  0.2203 -1.1178 -1.8694
  104OSM   H17G10628   5.194   1.866   8.553 -0.9513  3.1225  0.5409
  104OSM   C18F10629   5.250   1.730   8.714  0.3284  0.2031 -0.0533
  104OSM   H18F10630   5.150   1.690   8.741  0.0661  0.9263  0.0725
  104OSM   H18G10631   5.316   1.736   8.803 -0.7212  0.4995  0.7248
  104OSM   H18H10632   5.303   1.660   8.645  0.4129 -1.7764  1.8886
  105OSM      N10633   1.751   5.518  11.025 -0.3178 -0.8976 -1.0151
  105OSM    C1510634   1.659   5.421  11.095  0.1690 -0.9609  0.0522
  105OSM   H15A10635   1.621   5.348  11.025  3.4945 -2.1388 -0.7204
  105OSM   H15B10636   1.575   5.470  11.142 -0.4385 -0.2807 -1.6389
  105OSM   H15C10637   1.713   5.365  11.170  1.0837 -1.7770 -1.1768
  105OSM    C1410638   1.791   5.627  11.122  0.2342 -0.1358 -0.5483
  105OSM   H14A10639   1.880   5.677  11.087  1.5255 -1.3029  0.9222
  105OSM   H14B10640   1.821   5.597  11.222  0.8852  0.3377 -0.5916
  105OSM   H14C10641   1.716   5.704  11.138  0.5489 -0.3746  2.7582
  105OSM    C1310642   1.867   5.442  10.985 -0.3177  0.3941  0.3326
  105OSM   H13A10643   1.939   5.504  10.933 -1.8119  0.5559 -1.6673
  105OSM   H13B10644   1.839   5.372  10.907 -0.6115 -0.4757  1.2010
  105OSM   H13C10645   1.920   5.384  11.059 -0.6110 -0.6585 -0.2563
  105OSM    C1210646   1.684   5.584  10.906 -0.9092  0.8345 -0.2575
  105OSM   H12A10647   1.746   5.669  10.879  0.8417 -0.2619  0.1547
  105OSM   H12B10648   1.587   5.622  10.934 -0.2065  1.2995  1.6938
  105OSM    C1110649   1.675   5.506  10.770  0.6770  0.3620 -0.2534
  105OSM   H11A10650   1.777   5.492  10.728  1.4018  3.1510  0.3343
  105OSM   H11B10651   1.626   5.572  10.694  1.0509 -1.7617 -2.4532
  105OSM      P10652   1.654   5.246  10.746 -0.0044 -0.1122 -0.3110
  105OSM    O1310653   1.803   5.242  10.759 -0.0412 -0.9380 -0.4683
  105OSM    O1410654   1.581   5.156  10.838 -0.0736  0.2906  0.0757
  105OSM    O1110655   1.601   5.223  10.598  0.5265  0.3080 -0.2251
  105OSM    O1210656   1.597   5.389  10.780  0.1939  0.5750 -0.0322
  105OSM    C1S10657   1.465   5.249  10.576 -0.1269 -0.2194  0.1541
  105OSM    H1S10658   1.455   5.359  10.565  1.7228  0.0960  1.1618
  105OSM    H1T10659   1.406   5.210  10.661  2.7154  0.9076  2.8281
  105OSM     NF10660   1.301   5.236  10.381  0.2449  0.0633  0.2237
  105OSM    HNF10661   1.215   5.188  10.389 -0.6517  1.0030 -2.5373
  105OSM    C2S10662   1.429   5.186  10.432  0.3523  1.1230 -0.4476
  105OSM    H2S10663   1.509   5.219  10.362 -0.5421 -0.9240 -2.5927
  105OSM    C3S10664   1.434   5.032  10.443  0.3261 -0.4002  0.7968
  105OSM    H3S10665   1.342   5.002  10.497 -0.2104 -1.9677 -0.8500
  105OSM     O310666   1.550   4.993  10.504 -0.2216  0.4566  0.3462
  105OSM    HO310667   1.587   5.079  10.525  2.1355 -0.7908  1.7300
  105OSM    C4S10668   1.429   4.988  10.301  0.2367  0.6012 -0.4151
  105OSM    H4S10669   1.326   4.996  10.263 -0.3182 -1.6392  0.4350
  105OSM    C5S10670   1.529   4.953  10.217 -0.1027  0.8719  0.4919
  105OSM    H5S10671   1.631   4.946  10.257  0.6549  1.8748 -1.1583
  105OSM    C6S10672   1.498   4.930  10.068 -0.4183  0.0567  0.3312
  105OSM    H6S10673   1.392   4.898  10.056 -0.3937  0.7277 -2.0823
  105OSM    H6T10674   1.566   4.853  10.026 -0.8322 -0.1948  0.1147
  105OSM    C7S10675   1.518   5.059   9.985 -0.2685  0.0168 -0.2414
  105OSM    H7S10676   1.623   5.091  10.003 -0.2369 -0.1668 -0.0908
  105OSM    H7T10677   1.455   5.143  10.022 -1.8025 -0.7571 -1.0101
  105OSM    C8S10678   1.496   5.024   9.834  0.8088  0.2080  0.1231
  105OSM    H8S10679   1.386   5.016   9.823  0.4139  1.0661  2.8011
  105OSM    H8T10680   1.551   4.932   9.804  1.2238  0.3349  0.4812
  105OSM    C9S10681   1.534   5.136   9.741  0.4497 -0.2378 -0.6835
  105OSM    H9S10682   1.645   5.144   9.741  0.5227 -1.0961 -1.1166
  105OSM    H9T10683   1.496   5.234   9.777 -2.6145 -1.8956  1.0583
  105OSM   C10S10684   1.495   5.121   9.594  0.1530 -0.1813  0.5389
  105OSM   H10S10685   1.384   5.118   9.587  0.2182  0.1716 -1.1215
  105OSM   H10T10686   1.528   5.022   9.557 -0.0393 -0.5205  1.2559
  105OSM   C11S10687   1.540   5.248   9.504  0.2365  0.1586  0.3534
  105OSM   H11S10688   1.649   5.267   9.508  0.4258 -0.3463 -1.4963
  105OSM   H11T10689   1.486   5.339   9.537 -0.1446  0.2695 -0.5342
  105OSM   C12S10690   1.512   5.234   9.352 -0.6318 -0.4549  0.0817
  105OSM   H12S10691   1.408   5.206   9.327 -0.2433 -0.9366 -1.0718
  105OSM   H12T10692   1.568   5.148   9.307  0.1731  0.6543 -1.1103
  105OSM   C13S10693   1.566   5.356   9.272  0.1706 -0.7540 -0.3522
  105OSM   H13S10694   1.676   5.356   9.286  0.1499 -0.8364 -0.1913
  105OSM   H13T10695   1.525   5.453   9.306 -0.1983 -0.8715 -0.4564
  105OSM   C14S10696   1.538   5.343   9.120 -0.2136 -0.3118 -0.4271
  105OSM   H14S10697   1.431   5.328   9.095  0.0200  1.2879 -2.7330
  105OSM   H14T10698   1.599   5.264   9.072 -1.2172 -0.8953 -0.7767
  105OSM   C15S10699   1.575   5.472   9.049  0.4850  0.1895  0.6598
  105OSM   H15S10700   1.682   5.502   9.057  0.6348  1.0911 -2.9115
  105OSM   H15T10701   1.521   5.550   9.107 -1.1151 -1.7114  1.8149
  105OSM   C16S10702   1.533   5.495   8.901  0.0632  0.4745 -0.7325
  105OSM   H16S10703   1.515   5.601   8.878 -2.6789  0.2231 -0.0955
  105OSM   H16T10704   1.432   5.450   8.890  0.7419 -1.3172 -0.1061
  105OSM   C17S10705   1.624   5.413   8.803  0.1520 -0.6109  0.0837
  105OSM   H17S10706   1.631   5.306   8.833  3.0247 -0.5998 -0.3157
  105OSM   H17T10707   1.721   5.466   8.793 -1.3905  2.2862 -0.4956
  105OSM   C18S10708   1.567   5.404   8.659 -0.8678 -0.4960  0.4562
  105OSM   H18S10709   1.484   5.330   8.651  0.2884 -1.9061  1.0367
  105OSM   H18T10710   1.654   5.368   8.599 -0.5237 -0.6170  1.0221
  105OSM   H18U10711   1.533   5.504   8.626 -1.0409 -0.8171 -0.3785
  105OSM    C1F10712   1.287   5.364  10.350 -0.2936 -0.9597  0.6458
  105OSM     OF10713   1.385   5.436  10.338 -0.1495  0.4674  0.3361
  105OSM    C2F10714   1.143   5.420  10.340  0.1269 -0.7451  0.0032
  105OSM    H2F10715   1.109   5.463  10.437 -2.6869  0.7681 -1.4936
  105OSM    H2G10716   1.080   5.332  10.315 -2.3632  1.3148 -1.4475
  105OSM    C3F10717   1.119   5.528  10.232  0.0825 -0.2940  0.0724
  105OSM    H3F10718   1.142   5.490  10.130  0.5912 -3.0902  1.1273
  105OSM    H3G10719   1.175   5.623  10.246  0.4316 -0.4673 -0.1517
  105OSM    C4F10720   0.968   5.558  10.236  0.3916 -0.2233  0.5395
  105OSM    H4F10721   0.947   5.641  10.308 -1.4339  0.6967 -0.9740
  105OSM    H4G10722   0.914   5.464  10.259  0.3370  0.0534  1.6468
  105OSM    C5F10723   0.919   5.599  10.093  0.1183 -0.7656 -0.2668
  105OSM    H5F10724   0.809   5.615  10.099  0.4355  1.4328  0.4980
  105OSM    H5G10725   0.949   5.521  10.020  0.5957 -0.8298 -0.0047
  105OSM    C6F10726   0.975   5.727  10.048 -0.3448  0.0335 -0.9527
  105OSM    H6F10727   1.081   5.706  10.019 -0.7922 -2.3045 -1.1052
  105OSM    H6G10728   0.966   5.805  10.126  0.5415 -0.9597  0.1749
  105OSM    C7F10729   0.910   5.785   9.916  0.0956 -0.4321  0.0825
  105OSM    H7F10730   0.805   5.810   9.940 -0.7795  0.0924 -3.6667
  105OSM    H7G10731   0.916   5.705   9.839  1.8881  1.3355 -1.7344
  105OSM    C8F10732   0.984   5.900   9.862 -0.4285 -0.1212 -0.3856
  105OSM    H8F10733   1.081   5.866   9.820  0.3216  1.6464 -0.1625
  105OSM    H8G10734   1.011   5.960   9.952  1.4029  1.2099 -1.7602
  105OSM    C9F10735   0.908   5.988   9.760  0.6007  0.3602 -0.3978
  105OSM    H9F10736   0.864   6.080   9.800 -0.1408 -0.6930  1.3071
  105OSM   C10F10737   0.911   5.980   9.622  0.2496  0.2462 -0.3927
  105OSM   H10F10738   0.854   6.059   9.571 -2.4465 -0.3173  1.5265
  105OSM   C11F10739   0.991   5.882   9.546 -0.3685 -0.0167 -0.2184
  105OSM   H11F10740   0.932   5.830   9.468 -0.8583 -0.2381  0.2954
  105OSM   H11G10741   1.046   5.807   9.607 -1.7322 -2.2353 -1.5793
  105OSM   C12F10742   1.086   5.964   9.454 -0.1530 -0.0041 -0.2181
  105OSM   H12F10743   1.170   5.896   9.428  1.7627  1.4521  1.7730
  105OSM   H12G10744   1.143   6.043   9.506  0.0335 -1.5026  1.9940
  105OSM   C13F10745   1.030   6.028   9.321  0.5906  0.2614  0.0166
  105OSM   H13F10746   0.957   6.106   9.352 -0.3090 -0.8144  0.6895
  105OSM   H13G10747   0.970   5.950   9.270 -0.1313  1.2731 -0.7102
  105OSM   C14F10748   1.134   6.088   9.232 -0.1533  1.2707 -0.6259
  105OSM   H14F10749   1.194   6.146   9.305  0.9194 -1.7733  1.0969
  105OSM   H14G10750   1.074   6.137   9.153 -0.7178 -1.5544 -2.0997
  105OSM   C15F10751   1.218   5.979   9.165  0.1597 -0.1608  0.0068
  105OSM   H15F10752   1.148   5.897   9.141 -2.4758  1.6755  1.0316
  105OSM   H15G10753   1.293   5.944   9.240  0.2778  2.6082  1.3010
  105OSM   C16F10754   1.286   6.029   9.042 -0.4614 -0.0744  0.5539
  105OSM   H16F10755   1.362   6.104   9.072 -2.2381  2.8751 -1.7837
  105OSM   H16G10756   1.210   6.089   8.987  0.8049 -0.6683 -1.9607
  105OSM   C17F10757   1.333   5.912   8.954  0.4890  0.4510 -0.9458
  105OSM   H17F10758   1.248   5.842   8.938 -0.5810  1.6239 -0.5136
  105OSM   H17G10759   1.407   5.852   9.011  0.0852 -1.2291 -2.1188
  105OSM   C18F10760   1.387   5.955   8.816  0.0249 -0.0348  0.3143
  105OSM   H18F10761   1.303   5.981   8.748 -0.7951 -2.0565  0.4587
  105OSM   H18G10762   1.442   5.872   8.765 -1.1606 -0.0349 -1.0453
  105OSM   H18H10763   1.464   6.034   8.828  1.2152 -1.0112 -0.5805
  106OSM      N10764   6.742   5.969  10.930 -0.8389 -0.3328  0.2844
  106OSM    C1510765   6.629   5.943  10.842 -0.4047  0.2608  0.2560
  106OSM   H15A10766   6.554   5.890  10.898  0.6001 -2.0528 -0.4642
  106OSM   H15B10767   6.662   5.873  10.766  1.5952 -1.1642  2.3134
  106OSM   H15C10768   6.595   6.036  10.798 -0.4993 -0.3017 -0.9114
  106OSM    C1410769   6.861   6.029  10.856  0.1117 -0.4064 -0.4010
  106OSM   H14A10770   6.841   6.121  10.803  0.5265  0.0531  0.2138
  106OSM   H14B10771   6.912   5.965  10.786 -1.7653 -1.0485 -1.2395
  106OSM   H14C10772   6.932   6.058  10.932 -0.6463  2.4018 -0.6533
  106OSM    C1310773   6.681   6.069  11.026 -0.5428 -0.4567  0.5609
  106OSM   H13A10774   6.648   6.164  10.986  1.9966  0.1534 -0.2858
  106OSM   H13B10775   6.758   6.098  11.095 -2.8521 -1.9996  4.1035
  106OSM   H13C10776   6.608   6.032  11.096 -2.4811  1.7342 -0.1563
  106OSM    C1210777   6.781   5.835  10.991 -0.4255  0.2494  0.0883
  106OSM   H12A10778   6.688   5.800  11.035  1.3504 -1.3005  2.8692
  106OSM   H12B10779   6.842   5.855  11.078 -1.3190  1.2659  0.5119
  106OSM    C1110780   6.840   5.724  10.899 -0.3275  0.4622  0.2700
  106OSM   H11A10781   6.865   5.634  10.960  0.7720 -0.5612 -1.5660
  106OSM   H11B10782   6.931   5.772  10.856 -0.0551  0.7941  1.2123
  106OSM      P10783   6.664   5.569  10.778 -0.0870  0.4245  0.0373
  106OSM    O1310784   6.748   5.447  10.766  0.2447  0.3705 -0.0678
  106OSM    O1410785   6.571   5.565  10.891  0.0550  0.2005 -0.1469
  106OSM    O1110786   6.583   5.592  10.641  0.2206 -0.2288  0.0369
  106OSM    O1210787   6.759   5.689  10.787  0.4341 -0.1587 -0.2414
  106OSM    C1S10788   6.635   5.544  10.517  0.6271 -0.2130  0.1848
  106OSM    H1S10789   6.633   5.433  10.513  0.4405 -0.1994 -0.1761
  106OSM    H1T10790   6.736   5.580  10.490 -0.4493  0.9150 -2.7693
  106OSM     NF10791   6.589   5.561  10.270 -0.5785 -0.1229 -0.1440
  106OSM    HNF10792   6.651   5.618  10.217  2.2186 -3.3824 -0.7556
  106OSM    C2S10793   6.535   5.600  10.401 -0.8075  0.6890  0.3463
  106OSM    H2S10794   6.436   5.553  10.421  0.7839 -2.4659  1.4067
  106OSM    C3S10795   6.511   5.755  10.410 -0.4292  0.7595 -0.4511
  106OSM    H3S10796   6.606   5.812  10.398 -1.1365  1.5928 -2.4507
  106OSM     O310797   6.479   5.798  10.539  0.2961 -0.4570 -0.0227
  106OSM    HO310798   6.521   5.731  10.593  0.3881 -0.5644 -0.2258
  106OSM    C4S10799   6.411   5.794  10.311 -0.5534 -0.2794 -0.3742
  106OSM    H4S10800   6.322   5.729  10.316 -0.0848 -0.8500  0.9848
  106OSM    C5S10801   6.425   5.884  10.217  0.4409 -0.0643  0.4948
  106OSM    H5S10802   6.520   5.935  10.196  0.3800 -0.8962 -2.1707
  106OSM    C6S10803   6.315   5.922  10.119 -0.2156  0.2690  0.2816
  106OSM    H6S10804   6.298   6.031  10.133 -1.1840  0.3016 -0.9822
  106OSM    H6T10805   6.218   5.873  10.141 -0.3924  0.9797  1.1473
  106OSM    C7S10806   6.360   5.889   9.977  0.6471 -0.3406 -0.1076
  106OSM    H7S10807   6.372   5.780   9.963 -0.6795 -0.4868 -0.1775
  106OSM    H7T10808   6.451   5.950   9.957  1.7862 -2.0556 -0.3897
  106OSM    C8S10809   6.245   5.933   9.882  0.1140 -0.2493  0.5685
  106OSM    H8S10810   6.216   6.039   9.899 -0.1713 -0.3083  0.4541
  106OSM    H8T10811   6.150   5.876   9.889 -1.1487  1.0313 -3.1749
  106OSM    C9S10812   6.270   5.921   9.726  0.1927 -0.6750 -0.2007
  106OSM    H9S10813   6.310   5.820   9.699  3.6718  0.2984  0.8354
  106OSM    H9T10814   6.357   5.988   9.711  0.0416  0.2194  2.3445
  106OSM   C10S10815   6.149   5.949   9.638 -0.1183  0.3564  0.3736
  106OSM   H10S10816   6.124   6.057   9.649 -1.9919  0.1410 -1.3580
  106OSM   H10T10817   6.065   5.887   9.674 -1.4813  2.4185  0.9154
  106OSM   C11S10818   6.178   5.924   9.484  0.3628  0.3626 -0.1252
  106OSM   H11S10819   6.085   5.941   9.426 -0.7497 -1.6120  0.9941
  106OSM   H11T10820   6.209   5.819   9.465  0.7861  0.1043  1.7279
  106OSM   C12S10821   6.291   6.015   9.430 -0.0475 -0.1397  0.1866
  106OSM   H12S10822   6.391   5.968   9.446  1.5173  2.4863 -1.1856
  106OSM   H12T10823   6.276   6.104   9.494 -1.6533  0.2335 -0.6483
  106OSM   C13S10824   6.268   6.070   9.288  0.3818  0.2720  0.0410
  106OSM   H13S10825   6.346   6.146   9.268 -0.6385  1.6616  1.1651
  106OSM   H13T10826   6.174   6.130   9.284  0.0311  0.1065  3.3645
  106OSM   C14S10827   6.261   5.957   9.177  0.1840  0.1679 -0.1278
  106OSM   H14S10828   6.158   5.915   9.177  0.6754 -1.0808  1.0131
  106OSM   H14T10829   6.338   5.880   9.193  2.0825  2.0209  0.0657
  106OSM   C15S10830   6.306   6.006   9.027  0.2271  0.1660 -0.1120
  106OSM   H15S10831   6.412   6.038   9.034 -0.3011  2.6736 -2.1351
  106OSM   H15T10832   6.253   6.102   9.011  1.2403  1.3566  2.8332
  106OSM   C16S10833   6.280   5.903   8.917 -0.1045 -0.3104  0.6887
  106OSM   H16S10834   6.182   5.862   8.951 -0.3033  1.0176  1.8314
  106OSM   H16T10835   6.358   5.824   8.914  0.5706  0.3800 -0.2740
  106OSM   C17S10836   6.272   5.968   8.780  0.1007  0.3468  0.8716
  106OSM   H17S10837   6.377   5.991   8.754  0.6141  0.7547  3.0917
  106OSM   H17T10838   6.214   6.062   8.794 -1.2364 -0.5689  1.6796
  106OSM   C18S10839   6.219   5.874   8.670 -0.4064 -0.0288  0.1758
  106OSM   H18S10840   6.231   5.917   8.568  0.3736  1.0590  0.7198
  106OSM   H18T10841   6.110   5.872   8.690 -0.1086  1.9667  2.3150
  106OSM   H18U10842   6.264   5.772   8.675  0.5833  0.4528  4.0665
  106OSM    C1F10843   6.580   5.436  10.226  0.0200  0.0902  0.6932
  106OSM     OF10844   6.504   5.360  10.275  0.6179  0.5762  0.3437
  106OSM    C2F10845   6.665   5.416  10.098  0.9458 -0.1678  0.3635
  106OSM    H2F10846   6.774   5.422  10.117  1.0210 -0.0076 -0.1084
  106OSM    H2G10847   6.625   5.481  10.018  3.8488  1.9631  0.4723
  106OSM    C3F10848   6.635   5.264  10.052 -0.2796  0.0602  0.5278
  106OSM    H3F10849   6.526   5.247  10.041 -0.3685 -0.4371  1.9577
  106OSM    H3G10850   6.680   5.194  10.126  1.2991  0.7637  0.2715
  106OSM    C4F10851   6.705   5.239   9.913  0.3669  0.0768 -0.3712
  106OSM    H4F10852   6.686   5.135   9.878  2.1625  0.1537 -1.7154
  106OSM    H4G10853   6.815   5.254   9.915  1.0073 -3.3811 -1.8138
  106OSM    C5F10854   6.665   5.323   9.797 -0.0239  0.1726  0.2527
  106OSM    H5F10855   6.683   5.430   9.819  1.2144 -0.4339  2.4563
  106OSM    H5G10856   6.555   5.313   9.786 -0.6265  0.3130  4.4186
  106OSM    C6F10857   6.730   5.291   9.672  0.0086  0.7386  0.0841
  106OSM    H6F10858   6.737   5.181   9.670  0.2114  0.7517 -1.2714
  106OSM    H6G10859   6.837   5.322   9.672 -0.2076  1.5284 -0.1012
  106OSM    C7F10860   6.658   5.344   9.548  0.0176 -0.1881  0.0000
  106OSM    H7F10861   6.613   5.444   9.566 -1.5556 -1.1541  1.7961
  106OSM    H7G10862   6.573   5.274   9.537  1.0528 -1.5359  0.3957
  106OSM    C8F10863   6.752   5.348   9.430  0.1624 -0.6063  0.2703
  106OSM    H8F10864   6.812   5.255   9.432  0.5739 -0.4527 -2.2011
  106OSM    H8G10865   6.818   5.437   9.439 -1.6270  0.6506  2.0469
  106OSM    C9F10866   6.668   5.358   9.310  0.2779  0.0502  0.4009
  106OSM    H9F10867   6.572   5.411   9.320 -0.8864 -1.9582  0.5466
  106OSM   C10F10868   6.685   5.321   9.184 -0.2572 -0.4919 -0.2675
  106OSM   H10F10869   6.606   5.341   9.111  0.8938  0.5878 -1.2469
  106OSM   C11F10870   6.803   5.254   9.111  0.2835  0.0257  0.2892
  106OSM   H11F10871   6.772   5.152   9.081 -0.7188  0.9908 -2.2086
  106OSM   H11G10872   6.898   5.258   9.170  0.0411  0.8818  0.6400
  106OSM   C12F10873   6.832   5.331   8.979  0.0004 -0.6479  0.5451
  106OSM   H12F10874   6.861   5.256   8.902 -1.3609 -0.3606 -0.2772
  106OSM   H12G10875   6.917   5.402   8.988 -1.7671  1.4665  1.3774
  106OSM   C13F10876   6.719   5.411   8.906 -0.4963 -0.5928  0.1122
  106OSM   H13F10877   6.670   5.488   8.970  0.2698  0.5364 -0.6281
  106OSM   H13G10878   6.639   5.341   8.872 -2.1295  2.0045 -1.7904
  106OSM   C14F10879   6.764   5.495   8.779 -0.1681  0.5995 -0.1339
  106OSM   H14F10880   6.780   5.422   8.697  1.7119 -0.1357  0.8176
  106OSM   H14G10881   6.866   5.538   8.790 -0.7242  1.9848 -0.1500
  106OSM   C15F10882   6.673   5.614   8.739 -0.6164 -0.1097 -0.1916
  106OSM   H15F10883   6.676   5.682   8.827  3.7413 -1.1390  0.7102
  106OSM   H15G10884   6.577   5.563   8.719  0.8044 -2.4639 -1.4254
  106OSM   C16F10885   6.706   5.688   8.612  0.1040 -0.2923  0.9559
  106OSM   H16F10886   6.736   5.626   8.524  0.8535 -0.7841  1.5401
  106OSM   H16G10887   6.791   5.757   8.631  1.2526 -1.3389 -0.1456
  106OSM   C17F10888   6.591   5.768   8.553  0.2732  0.3180 -0.0393
  106OSM   H17F10889   6.553   5.826   8.641  0.1570 -2.1070  1.6234
  106OSM   H17G10890   6.507   5.700   8.527  0.5412  0.1321 -0.4253
  106OSM   C18F10891   6.623   5.847   8.424  0.1796 -0.1180 -0.1033
  106OSM   H18F10892   6.528   5.901   8.403  0.8489  1.3145  0.4244
  106OSM   H18G10893   6.654   5.773   8.348 -1.0285 -1.3102  0.5303
  106OSM   H18H10894   6.704   5.923   8.433 -1.7975  2.3275 -1.6017
  107OSM      N10895   3.290   2.979  11.067 -0.1366 -0.4289 -0.6868
  107OSM    C1510896   3.139   2.990  11.037 -1.1567 -0.2370 -0.3684
  107OSM   H15A10897   3.125   3.087  10.992  1.9382 -0.4408 -2.0130
  107OSM   H15B10898   3.078   2.977  11.126 -0.0861  1.1923  0.6189
  107OSM   H15C10899   3.109   2.913  10.968 -0.6331  0.5381 -1.4822
  107OSM    C1410900   3.329   3.071  11.180  0.2665 -0.6184  0.3485
  107OSM   H14A10901   3.435   3.055  11.198  0.7804  0.7261 -1.2231
  107OSM   H14B10902   3.269   3.076  11.269  1.0398 -0.7937  0.8849
  107OSM   H14C10903   3.335   3.167  11.130  1.1038 -0.7911  0.1026
  107OSM    C1310904   3.307   2.840  11.125  0.3112  0.0011 -0.1836
  107OSM   H13A10905   3.405   2.808  11.159  0.1114  0.2807  0.6789
  107OSM   H13B10906   3.272   2.764  11.057 -0.9698 -1.0279  1.5363
  107OSM   H13C10907   3.234   2.835  11.205  0.1073  2.0351 -0.1747
  107OSM    C1210908   3.379   3.007  10.942  0.3273 -0.0589 -0.3065
  107OSM   H12A10909   3.394   2.921  10.878  1.1479 -1.3213  1.5060
  107OSM   H12B10910   3.479   3.032  10.972  0.7494  0.5937 -2.1321
  107OSM    C1110911   3.345   3.141  10.870  0.3825  0.6685  0.5775
  107OSM   H11A10912   3.237   3.144  10.841 -0.0434  0.6323  2.0602
  107OSM   H11B10913   3.415   3.153  10.785 -0.0748  0.1832  0.1210
  107OSM      P10914   3.298   3.380  10.963 -0.0875  0.2470 -0.4679
  107OSM    O1310915   3.187   3.367  11.056 -0.1889 -0.5655  0.2487
  107OSM    O1410916   3.410   3.472  10.998  0.1135  0.9175  0.4168
  107OSM    O1110917   3.260   3.406  10.817 -0.1113 -0.0328  0.0295
  107OSM    O1210918   3.375   3.245  10.956 -0.2056  0.1050  0.3178
  107OSM    C1S10919   3.353   3.473  10.724  0.6958 -1.0276 -0.1401
  107OSM    H1S10920   3.459   3.455  10.751  0.4970 -2.5267 -0.2803
  107OSM    H1T10921   3.324   3.580  10.729 -1.4673 -1.6178  1.3244
  107OSM     NF10922   3.389   3.523  10.483  0.4498  0.1590  0.0701
  107OSM    HNF10923   3.320   3.567  10.426  1.4602 -0.1611 -1.4795
  107OSM    C2S10924   3.333   3.426  10.576 -0.2769 -0.3610  0.5590
  107OSM    H2S10925   3.385   3.329  10.561 -0.5916 -0.1184 -3.0149
  107OSM    C3S10926   3.182   3.398  10.545 -0.5013 -0.2916 -0.6935
  107OSM    H3S10927   3.122   3.489  10.561  2.2389  1.4745  0.2185
  107OSM     O310928   3.132   3.296  10.634 -0.2739  0.0020 -0.0344
  107OSM    HO310929   3.192   3.302  10.708  0.0871  3.4718 -0.4386
  107OSM    C4S10930   3.163   3.360  10.402 -0.3525  0.2556 -0.2587
  107OSM    H4S10931   3.162   3.449  10.337  0.7970  0.7819  0.4194
  107OSM    C5S10932   3.134   3.238  10.349 -0.1185 -0.4646  0.0732
  107OSM    H5S10933   3.123   3.157  10.422 -2.4910 -1.1735 -0.9864
  107OSM    C6S10934   3.127   3.205  10.197  0.5638  0.2496  0.8792
  107OSM    H6S10935   3.043   3.137  10.175  2.2395 -1.0797 -2.0370
  107OSM    H6T10936   3.227   3.173  10.159  0.0496 -0.5771  0.2118
  107OSM    C7S10937   3.099   3.337  10.121  0.7000 -1.0077  1.3327
  107OSM    H7S10938   3.197   3.390  10.120 -0.4133  1.1789  1.0827
  107OSM    H7T10939   3.022   3.398  10.174  1.8204  0.5099  1.2930
  107OSM    C8S10940   3.051   3.306   9.978  0.1065 -0.1992 -0.9670
  107OSM    H8S10941   2.955   3.250   9.974  0.7938 -1.7834  1.7571
  107OSM    H8T10942   3.128   3.243   9.929  0.8670  0.9073 -1.2450
  107OSM    C9S10943   3.037   3.438   9.900  1.1950  0.2685 -0.1958
  107OSM    H9S10944   3.120   3.511   9.913 -0.0539  1.4763  1.3141
  107OSM    H9T10945   2.946   3.484   9.943 -0.2614 -1.0746 -1.7295
  107OSM   C10S10946   3.008   3.417   9.750  0.0105 -0.8055 -0.3920
  107OSM   H10S10947   2.914   3.363   9.726 -1.3877  1.6881 -0.8740
  107OSM   H10T10948   3.095   3.363   9.707 -0.1395  0.5459 -2.5706
  107OSM   C11S10949   2.998   3.554   9.678  0.3698 -0.2103  0.2005
  107OSM   H11S10950   3.097   3.603   9.696 -0.1251  0.1193  2.3083
  107OSM   H11T10951   2.921   3.628   9.707  2.8098  1.9088  1.7824
  107OSM   C12S10952   2.995   3.523   9.528  0.0341 -0.1004 -0.0559
  107OSM   H12S10953   2.917   3.449   9.502  2.1639 -1.7541 -2.1624
  107OSM   H12T10954   3.092   3.475   9.504 -0.6705 -1.2507 -0.6607
  107OSM   C13S10955   2.992   3.648   9.434  0.3060 -0.1265 -0.7421
  107OSM   H13S10956   3.083   3.710   9.449 -1.3672  2.5301 -0.8761
  107OSM   H13T10957   2.905   3.714   9.457  1.1643  0.4897  0.8780
  107OSM   C14S10958   2.979   3.599   9.290  0.4101  0.8580 -0.1087
  107OSM   H14S10959   2.913   3.510   9.284 -1.2459  1.9891  0.6411
  107OSM   H14T10960   3.074   3.560   9.248 -0.9756 -2.5598 -0.3654
  107OSM   C15S10961   2.939   3.705   9.184 -0.0621 -0.5701  0.2752
  107OSM   H15S10962   2.956   3.672   9.080 -2.2222  0.7363 -0.5489
  107OSM   H15T10963   2.994   3.799   9.206 -1.2942 -0.1440  1.7544
  107OSM   C16S10964   2.788   3.747   9.185  0.9802 -0.8802  0.3349
  107OSM   H16S10965   2.758   3.791   9.282 -0.8136 -1.1444 -0.0701
  107OSM   H16T10966   2.729   3.654   9.175  1.7164 -1.4527  1.2281
  107OSM   C17S10967   2.743   3.835   9.063  0.0192 -0.7572  0.4589
  107OSM   H17S10968   2.637   3.862   9.084 -0.0684  1.0030 -1.8342
  107OSM   H17T10969   2.732   3.757   8.984 -0.4814 -2.5988  2.2748
  107OSM   C18S10970   2.822   3.967   9.022  0.2226 -0.1922 -0.2060
  107OSM   H18S10971   2.755   4.029   8.959 -0.8915 -0.8801  0.2668
  107OSM   H18T10972   2.911   3.945   8.960  0.1609 -1.9164  0.2407
  107OSM   H18U10973   2.846   4.026   9.113  1.2703  0.4151 -0.8618
  107OSM    C1F10974   3.513   3.554  10.473  0.0798  0.3016 -0.6090
  107OSM     OF10975   3.597   3.484  10.535 -0.7655  0.0230 -0.0038
  107OSM    C2F10976   3.560   3.655  10.375  0.6018 -0.0180 -0.1704
  107OSM    H2F10977   3.625   3.718  10.439  0.2356 -0.2887  0.4703
  107OSM    H2G10978   3.474   3.717  10.343  0.8338  1.2600  1.5491
  107OSM    C3F10979   3.630   3.608  10.251  0.4644 -0.3539  0.2411
  107OSM    H3F10980   3.575   3.532  10.192 -0.9085 -1.1586  2.4293
  107OSM    H3G10981   3.725   3.558  10.281  0.1786 -0.9735  0.1331
  107OSM    C4F10982   3.661   3.723  10.154  0.3785 -0.1274 -0.1670
  107OSM    H4F10983   3.715   3.675  10.070  1.6719 -0.5235  0.8591
  107OSM    H4G10984   3.735   3.789  10.204 -1.1915  1.9748 -0.4957
  107OSM    C5F10985   3.552   3.816  10.098  0.5004 -0.2823  0.5193
  107OSM    H5F10986   3.511   3.882  10.177  1.4660  1.6600 -0.5433
  107OSM    H5G10987   3.468   3.755  10.056  0.5096  0.7730 -1.1159
  107OSM    C6F10988   3.610   3.909   9.992  0.7314 -0.0353  0.4120
  107OSM    H6F10989   3.664   3.857   9.910 -1.5144 -0.3192 -0.9962
  107OSM    H6G10990   3.674   3.975  10.054  1.9211  0.5753 -1.3870
  107OSM    C7F10991   3.509   4.003   9.923 -0.1964 -0.4995 -0.3989
  107OSM    H7F10992   3.417   3.992   9.984  0.5805 -0.6918  0.7745
  107OSM    H7G10993   3.490   3.954   9.826 -0.7996 -2.7770  0.7969
  107OSM    C8F10994   3.566   4.147   9.921  0.1600  0.8400 -0.4455
  107OSM    H8F10995   3.671   4.139   9.887 -0.1035 -1.9759 -0.8400
  107OSM    H8G10996   3.568   4.185  10.025  1.8202 -2.0982  0.7038
  107OSM    C9F10997   3.482   4.243   9.840  0.1569 -0.2317  0.0370
  107OSM    H9F10998   3.406   4.298   9.896 -2.7575 -1.6586 -2.2385
  107OSM   C10F10999   3.469   4.247   9.702  0.1437 -0.4390 -0.3257
  107OSM   H10F11000   3.403   4.327   9.668 -0.1047  0.7065  2.5781
  107OSM   C11F11001   3.538   4.158   9.600  0.8221 -0.5912  0.1844
  107OSM   H11F11002   3.474   4.080   9.554  0.2937 -0.7295  1.1101
  107OSM   H11G11003   3.622   4.110   9.655  0.4321 -1.4341  0.0582
  107OSM   C12F11004   3.580   4.263   9.493  0.3428  0.4296 -0.7598
  107OSM   H12F11005   3.647   4.339   9.539  1.6304 -2.2051  2.0330
  107OSM   H12G11006   3.492   4.310   9.444 -1.5031 -0.0551  1.9246
  107OSM   C13F11007   3.644   4.191   9.373 -0.2561  0.0815 -1.0972
  107OSM   H13F11008   3.574   4.120   9.324 -1.1468  1.3703 -1.7391
  107OSM   H13G11009   3.724   4.125   9.412 -0.1669  0.4021 -0.7252
  107OSM   C14F11010   3.705   4.290   9.274 -0.1650  0.4894  0.2092
  107OSM   H14F11011   3.792   4.340   9.322 -0.2082 -0.9826  1.8784
  107OSM   H14G11012   3.624   4.364   9.257  0.1251  0.8281  0.2906
  107OSM   C15F11013   3.749   4.229   9.144 -0.6338  0.2575 -0.0609
  107OSM   H15F11014   3.677   4.150   9.117  0.9870 -0.5234 -2.3543
  107OSM   H15G11015   3.840   4.167   9.154 -0.5624 -0.4989 -3.9381
  107OSM   C16F11016   3.755   4.332   9.033 -0.2685  0.1653 -0.2203
  107OSM   H16F11017   3.810   4.422   9.070 -1.0382  0.4096  0.3640
  107OSM   H16G11018   3.657   4.381   9.013 -2.3569 -3.2373  0.8084
  107OSM   C17F11019   3.792   4.280   8.895 -0.8945  0.2540  0.5802
  107OSM   H17F11020   3.732   4.193   8.863  0.1093  0.5066 -2.2516
  107OSM   H17G11021   3.894   4.236   8.904 -0.1814  1.0048 -2.6846
  107OSM   C18F11022   3.784   4.388   8.785 -0.7751 -0.0206 -0.0069
  107OSM   H18F11023   3.878   4.447   8.782  0.1436 -1.4865 -1.7703
  107OSM   H18G11024   3.695   4.456   8.785 -0.2975  0.6198  0.9884
  107OSM   H18H11025   3.778   4.342   8.684  0.9413 -0.4612  0.0640
  108OSM      N11026   6.752   4.519  10.979 -0.4391  0.1234  0.4031
  108OSM    C1511027   6.617   4.472  11.019 -0.1187 -0.3325  0.7672
  108OSM   H15A11028   6.543   4.526  10.961  1.0788  1.5638  0.8972
  108OSM   H15B11029   6.601   4.485  11.125 -0.8780 -1.8633  0.8697
  108OSM   H15C11030   6.606   4.366  11.005  2.5819 -0.8656  1.9587
  108OSM    C1411031   6.769   4.659  11.033 -0.5229  0.3214  0.5403
  108OSM   H14A11032   6.688   4.725  11.004  1.3544  1.5430 -2.4491
  108OSM   H14B11033   6.868   4.693  11.007  1.0168 -0.7616  4.3162
  108OSM   H14C11034   6.768   4.669  11.140  3.4388  0.4364  0.7269
  108OSM    C1311035   6.859   4.429  11.050  0.4380  0.1879  0.0501
  108OSM   H13A11036   6.958   4.448  11.010  0.2877 -0.0566 -0.4399
  108OSM   H13B11037   6.837   4.326  11.027 -2.0188  0.3025  1.5704
  108OSM   H13C11038   6.853   4.447  11.156 -1.0169 -0.4190  0.0802
  108OSM    C1211039   6.776   4.493  10.829 -0.2125  0.1357 -0.4203
  108OSM   H12A11040   6.786   4.387  10.809  1.5730  0.0235  0.8002
  108OSM   H12B11041   6.875   4.534  10.814 -0.3013 -0.3510 -2.5574
  108OSM    C1111042   6.679   4.562  10.732  0.8827  0.8886 -0.0698
  108OSM   H11A11043   6.575   4.529  10.749  1.5175 -0.8821  0.6319
  108OSM   H11B11044   6.711   4.519  10.634 -0.2884 -1.4095  0.4713
  108OSM      P11045   6.815   4.779  10.684 -0.1963 -0.4733  0.0417
  108OSM    O1311046   6.785   4.921  10.697  0.3609 -0.0954 -0.1362
  108OSM    O1411047   6.940   4.736  10.745  0.3203 -0.8101  0.4800
  108OSM    O1111048   6.808   4.735  10.530 -0.9016 -0.1825 -0.2023
  108OSM    O1211049   6.690   4.707  10.737 -0.1066  0.2815  0.2471
  108OSM    C1S11050   6.687   4.780  10.463  0.3564  0.2604 -0.1488
  108OSM    H1S11051   6.677   4.890  10.452  0.5627  0.4747  1.5211
  108OSM    H1T11052   6.596   4.758  10.523  0.3255 -0.2579 -0.3747
  108OSM     NF11053   6.557   4.738  10.248 -0.0636  0.7303  0.2538
  108OSM    HNF11054   6.510   4.659  10.208 -0.7184  1.8296 -1.2310
  108OSM    C2S11055   6.683   4.711  10.326  0.4278  0.3251 -0.1457
  108OSM    H2S11056   6.762   4.756  10.262 -0.9124  0.7837 -1.5587
  108OSM    C3S11057   6.725   4.558  10.342 -0.2502 -0.4626 -0.0155
  108OSM    H3S11058   6.645   4.499  10.392 -0.1701 -1.5901 -1.1705
  108OSM     O311059   6.841   4.533  10.404 -0.3887  0.2160 -0.4912
  108OSM    HO311060   6.852   4.605  10.466  0.5295  1.1182 -1.6423
  108OSM    C4S11061   6.737   4.497  10.205 -0.2958  0.2666 -0.2830
  108OSM    H4S11062   6.830   4.516  10.149  0.0553 -1.2483 -0.2712
  108OSM    C5S11063   6.647   4.411  10.143 -0.0044  0.7449 -0.0347
  108OSM    H5S11064   6.560   4.381  10.204  0.9917  0.7167  1.4265
  108OSM    C6S11065   6.668   4.344  10.014 -0.0082 -0.0171 -0.0264
  108OSM    H6S11066   6.661   4.234  10.030  2.7657 -0.1323  0.8090
  108OSM    H6T11067   6.772   4.362   9.980 -0.2917 -1.4069 -1.7810
  108OSM    C7S11068   6.567   4.384   9.910  0.5945  0.2865  0.1205
  108OSM    H7S11069   6.569   4.494   9.894 -0.2892 -0.1208 -3.8770
  108OSM    H7T11070   6.462   4.353   9.925  0.3452 -0.1578 -2.1385
  108OSM    C8S11071   6.606   4.310   9.781 -0.7599 -0.1280 -0.1191
  108OSM    H8S11072   6.610   4.199   9.783  0.4296 -0.0918  1.9350
  108OSM    H8T11073   6.705   4.357   9.762 -0.7066 -0.0455  0.3622
  108OSM    C9S11074   6.519   4.352   9.670  0.0506  0.3019 -0.5229
  108OSM    H9S11075   6.487   4.458   9.673  1.1901  0.6527 -0.4519
  108OSM    H9T11076   6.425   4.297   9.688 -0.8486  1.2562 -2.0697
  108OSM   C10S11077   6.573   4.314   9.529 -0.5661 -0.5161 -0.0948
  108OSM   H10S11078   6.586   4.204   9.538  2.4858 -0.2599 -0.2138
  108OSM   H10T11079   6.675   4.354   9.507 -0.5129 -0.4703  0.2369
  108OSM   C11S11080   6.471   4.350   9.417  0.8429  0.6002  0.4610
  108OSM   H11S11081   6.491   4.454   9.384 -0.0898  0.5145 -0.4431
  108OSM   H11T11082   6.369   4.349   9.462  0.8527  1.7567  0.5415
  108OSM   C12S11083   6.479   4.263   9.289 -0.0774 -0.2894  0.1810
  108OSM   H12S11084   6.397   4.285   9.217  1.0047 -1.9616 -1.6722
  108OSM   H12T11085   6.486   4.154   9.311  2.9724 -0.6967 -2.1727
  108OSM   C13S11086   6.617   4.288   9.221  0.4779 -0.6976  0.7227
  108OSM   H13S11087   6.693   4.236   9.284  0.6500 -3.7655 -1.7583
  108OSM   H13T11088   6.647   4.395   9.217  1.5653 -1.0237 -1.2492
  108OSM   C14S11089   6.628   4.228   9.080  0.2676  0.6464  0.9875
  108OSM   H14S11090   6.729   4.259   9.044 -0.7984  2.4598 -0.6607
  108OSM   H14T11091   6.557   4.273   9.008 -0.4372  0.4308  1.5468
  108OSM   C15S11092   6.606   4.075   9.063  0.4773 -0.0587  0.0852
  108OSM   H15S11093   6.641   4.035   9.161  0.7485  0.1610  0.0791
  108OSM   H15T11094   6.658   4.030   8.975 -0.9156  0.2193 -0.9053
  108OSM   C16S11095   6.460   4.032   9.024 -0.2663 -0.1581  0.6383
  108OSM   H16S11096   6.438   4.084   8.928 -3.2700 -0.3983  1.1023
  108OSM   H16T11097   6.387   4.057   9.104 -0.8071 -1.3515  0.5310
  108OSM   C17S11098   6.446   3.879   9.011  0.4968  0.1178 -0.4720
  108OSM   H17S11099   6.505   3.839   8.926  0.2333 -0.6226 -0.3148
  108OSM   H17T11100   6.339   3.850   9.001  0.2951  0.4778  0.4963
  108OSM   C18S11101   6.492   3.790   9.129  0.4176  0.0359 -0.0163
  108OSM   H18S11102   6.445   3.819   9.225  1.3171  0.3705  0.3286
  108OSM   H18T11103   6.602   3.794   9.136  0.4562 -0.6912 -0.1560
  108OSM   H18U11104   6.454   3.688   9.109  1.0112 -0.2704  0.4177
  108OSM    C1F11105   6.513   4.864  10.225  0.5899  0.1911 -0.1669
  108OSM     OF11106   6.591   4.957  10.238 -0.0556 -0.5913  0.3358
  108OSM    C2F11107   6.370   4.883  10.191  0.4475  0.0096  0.1953
  108OSM    H2F11108   6.308   4.910  10.279 -1.2353  1.6811 -1.4096
  108OSM    H2G11109   6.329   4.790  10.145  2.1786 -0.9524  0.5267
  108OSM    C3F11110   6.350   5.002  10.092  0.6750 -0.0438  0.9155
  108OSM    H3F11111   6.367   5.099  10.144 -2.7085  0.3928  1.4051
  108OSM    H3G11112   6.242   5.004  10.065  0.8444 -0.1637  0.2174
  108OSM    C4F11113   6.429   4.989   9.952  0.0471 -0.4038  0.8553
  108OSM    H4F11114   6.537   4.991   9.980  0.0574 -0.7347  0.8525
  108OSM    H4G11115   6.402   5.075   9.888 -1.9055 -1.0417  0.7558
  108OSM    C5F11116   6.419   4.847   9.883  0.6097 -0.2948 -0.2035
  108OSM    H5F11117   6.311   4.824   9.881  0.7326 -0.8852 -2.3325
  108OSM    H5G11118   6.471   4.771   9.944  0.9739 -0.7059 -1.0131
  108OSM    C6F11119   6.484   4.836   9.748  0.0675 -1.0461 -0.5596
  108OSM    H6F11120   6.488   4.730   9.714  0.7527 -1.1147 -0.2786
  108OSM    H6G11121   6.581   4.890   9.753 -1.7537  2.5080 -0.3410
  108OSM    C7F11122   6.388   4.899   9.644  0.5470  0.0589  0.8604
  108OSM    H7F11123   6.351   4.996   9.682 -0.0899  0.4833 -0.7380
  108OSM    H7G11124   6.304   4.828   9.630  0.4632  0.3917 -0.4593
  108OSM    C8F11125   6.464   4.926   9.507 -0.8021  0.5622 -0.4109
  108OSM    H8F11126   6.548   4.999   9.513  1.0714 -1.3837 -1.7295
  108OSM    H8G11127   6.388   4.965   9.436 -1.2935 -0.2728 -0.3605
  108OSM    C9F11128   6.526   4.799   9.445 -0.2693  0.0944 -0.2755
  108OSM    H9F11129   6.585   4.740   9.517  1.4894 -0.3778 -2.0179
  108OSM   C10F11130   6.518   4.763   9.313  0.9892  0.1615  0.1621
  108OSM   H10F11131   6.578   4.676   9.283  3.0033  0.9852  1.5581
  108OSM   C11F11132   6.449   4.831   9.196 -0.1981  0.6553 -0.0421
  108OSM   H11F11133   6.383   4.918   9.217  0.5891  1.0658  0.7932
  108OSM   H11G11134   6.383   4.755   9.148  0.4513  0.4409 -0.6156
  108OSM   C12F11135   6.543   4.880   9.075 -0.1730  1.5684 -0.1225
  108OSM   H12F11136   6.605   4.794   9.040 -0.4661  1.2941  0.0319
  108OSM   H12G11137   6.602   4.965   9.114  0.0152  0.1282  3.0470
  108OSM   C13F11138   6.462   4.929   8.950 -0.5377  0.5822 -0.4694
  108OSM   H13F11139   6.393   5.008   8.987 -1.0124  0.2488 -0.6201
  108OSM   H13G11140   6.398   4.844   8.917  1.6354 -1.9842  1.5498
  108OSM   C14F11141   6.549   4.983   8.842  0.3424 -0.3025 -0.1701
  108OSM   H14F11142   6.622   4.900   8.831 -1.1377 -2.2796  3.1187
  108OSM   H14G11143   6.606   5.069   8.884  0.1012  0.2996 -1.0610
  108OSM   C15F11144   6.476   5.018   8.715  0.1405 -0.1677 -0.1648
  108OSM   H15F11145   6.411   5.108   8.713  0.7335  0.2601 -1.7525
  108OSM   H15G11146   6.405   4.933   8.709  0.4004 -0.4202  0.2992
  108OSM   C16F11147   6.575   5.016   8.597  0.0257  0.1382 -0.0651
  108OSM   H16F11148   6.524   5.042   8.502  1.1957  2.1125 -0.2126
  108OSM   H16G11149   6.630   4.920   8.590  1.2971  0.7863  0.5813
  108OSM   C17F11150   6.678   5.126   8.605  0.4525 -0.0341 -0.5905
  108OSM   H17F11151   6.740   5.107   8.695  0.0910  2.3952  0.2542
  108OSM   H17G11152   6.637   5.229   8.618 -0.2748 -0.6626  3.8618
  108OSM   C18F11153   6.781   5.130   8.487  0.1592  0.0567  0.2650
  108OSM   H18F11154   6.855   5.047   8.481  0.0613 -0.0582  0.6153
  108OSM   H18G11155   6.831   5.228   8.476 -2.1129  1.2872  0.2901
  108OSM   H18H11156   6.729   5.123   8.390 -0.6401 -0.0793  0.6962
  109OSM      N11157   5.991   2.034  11.382  0.0086 -0.5299 -0.5227
  109OSM    C1511158   5.905   2.136  11.447  0.5301 -0.7528  0.3266
  109OSM   H15A11159   5.922   2.238  11.416  2.7408 -0.6994  1.4818
  109OSM   H15B11160   5.933   2.118  11.550  3.4766  0.5949 -0.1319
  109OSM   H15C11161   5.799   2.119  11.438  0.4331 -1.3786  2.2283
  109OSM    C1411162   6.140   2.047  11.415 -0.0338 -0.4451  0.1921
  109OSM   H14A11163   6.201   1.977  11.360  0.8328 -0.6019  1.3191
  109OSM   H14B11164   6.151   2.052  11.522 -2.6569 -1.5443  0.5912
  109OSM   H14C11165   6.181   2.145  11.394 -0.9625 -0.2205 -0.6071
  109OSM    C1311166   5.946   1.906  11.441  0.0651  0.7260 -0.1948
  109OSM   H13A11167   5.839   1.895  11.443  0.1624 -0.8004  2.8514
  109OSM   H13B11168   5.979   1.904  11.544  1.5625  0.9001 -0.6506
  109OSM   H13C11169   5.994   1.823  11.392 -2.8001 -2.3668  1.8587
  109OSM    C1211170   5.974   2.025  11.231  0.3683  0.6691  0.2671
  109OSM   H12A11171   5.986   2.121  11.183  1.2358  0.5232  0.1923
  109OSM   H12B11172   5.868   2.007  11.219  0.5250  0.5218 -1.0712
  109OSM    C1111173   6.060   1.929  11.136 -0.2717 -0.4080  0.1591
  109OSM   H11A11174   6.018   1.939  11.034 -1.3798  0.6733  0.6872
  109OSM   H11B11175   6.049   1.821  11.160  1.4041 -0.6950 -0.2693
  109OSM      P11176   6.302   1.930  11.031 -0.0880 -0.0834 -0.2131
  109OSM    O1311177   6.423   2.008  11.054 -0.4440 -0.3617  0.0146
  109OSM    O1411178   6.325   1.789  11.048  0.2359 -0.2829 -0.6874
  109OSM    O1111179   6.247   1.952  10.884 -0.3341  0.5459  0.0593
  109OSM    O1211180   6.196   1.970  11.141 -0.1891  0.4243  0.1114
  109OSM    C1S11181   6.217   2.093  10.859 -0.3028  0.2134  0.3553
  109OSM    H1S11182   6.312   2.150  10.850 -0.0964 -0.2616 -0.5233
  109OSM    H1T11183   6.158   2.142  10.940  1.4102  0.6734  1.4015
  109OSM     NF11184   6.164   2.244  10.669 -0.1293  0.5214  0.1483
  109OSM    HNF11185   6.084   2.303  10.674 -1.5432 -1.3650  1.0889
  109OSM    C2S11186   6.162   2.104  10.714 -0.1757 -0.2592  0.3606
  109OSM    H2S11187   6.233   2.054  10.646  0.0078  1.9752 -1.2116
  109OSM    C3S11188   6.018   2.034  10.698  0.4085 -0.1247 -0.3990
  109OSM    H3S11189   5.946   2.093  10.759 -0.0483 -1.3342  0.2551
  109OSM     O311190   6.018   1.898  10.750 -0.0314 -0.1161  0.3473
  109OSM    HO311191   6.102   1.894  10.796  1.2350 -3.4889 -1.8854
  109OSM    C4S11192   5.963   2.053  10.556 -0.8465  0.0059  0.1411
  109OSM    H4S11193   5.886   2.130  10.536 -1.1065 -0.3285 -0.1611
  109OSM    C5S11194   6.017   1.984  10.457  0.4239 -0.7080 -0.1442
  109OSM    H5S11195   6.091   1.906  10.480 -0.7638 -2.0748 -0.7535
  109OSM    C6S11196   5.979   2.000  10.312  0.2864  0.1415 -0.2619
  109OSM    H6S11197   5.871   2.023  10.302 -0.4502 -3.7332 -3.3368
  109OSM    H6T11198   5.976   1.905  10.255 -0.4252 -0.6493  1.0503
  109OSM    C7S11199   6.063   2.106  10.247 -0.2607 -0.5459  0.0123
  109OSM    H7S11200   6.166   2.094  10.286 -0.6324  2.5867  2.3717
  109OSM    H7T11201   6.035   2.208  10.282  1.5838  0.2529 -0.7309
  109OSM    C8S11202   6.047   2.124  10.089  0.6786 -0.1637 -0.6252
  109OSM    H8S11203   5.944   2.145  10.051  1.1445 -2.2729 -3.4139
  109OSM    H8T11204   6.075   2.028  10.039  0.6344 -1.7419  2.1827
  109OSM    C9S11205   6.143   2.230  10.023  0.5906 -0.0566 -0.5375
  109OSM    H9S11206   6.244   2.205  10.062  1.2123  2.9660  0.0047
  109OSM    H9T11207   6.111   2.333  10.048  2.1994  0.5496 -0.8866
  109OSM   C10S11208   6.142   2.222   9.868  0.1300  0.5271  0.7267
  109OSM   H10S11209   6.148   2.115   9.838 -0.2883  0.1666  1.8681
  109OSM   H10T11210   6.237   2.267   9.831 -0.2522 -0.3613 -1.4804
  109OSM   C11S11211   6.027   2.302   9.803 -0.2496 -0.0483 -0.0555
  109OSM   H11S11212   6.039   2.408   9.833  0.7258 -0.2515  0.3132
  109OSM   H11T11213   5.926   2.270   9.835  0.0589 -1.4071 -0.3803
  109OSM   C12S11214   6.033   2.295   9.648  0.1421 -0.1229 -0.3980
  109OSM   H12S11215   6.027   2.188   9.618  0.7071 -0.8200  1.7797
  109OSM   H12T11216   6.131   2.334   9.613 -1.2859  2.9088 -1.3616
  109OSM   C13S11217   5.930   2.366   9.561 -0.4753  0.0360 -0.1839
  109OSM   H13S11218   5.926   2.476   9.575  3.8413  0.2865  0.5638
  109OSM   H13T11219   5.833   2.324   9.593  0.6626 -2.5266  0.2206
  109OSM   C14S11220   5.952   2.341   9.408  0.1970 -0.2023 -0.2778
  109OSM   H14S11221   5.936   2.239   9.368 -2.3998 -0.0357  0.1373
  109OSM   H14T11222   6.053   2.371   9.372  0.2040 -2.2722 -2.1879
  109OSM   C15S11223   5.856   2.433   9.328 -0.5439  0.2212  0.1844
  109OSM   H15S11224   5.902   2.533   9.317 -2.2779  0.9345 -1.0270
  109OSM   H15T11225   5.760   2.432   9.383 -0.8393  1.6114 -0.2765
  109OSM   C16S11226   5.850   2.380   9.184 -0.2653  0.0829 -0.2289
  109OSM   H16S11227   5.780   2.295   9.171  2.8921 -2.7534  0.0054
  109OSM   H16T11228   5.949   2.335   9.162  0.9444  1.5129  1.8660
  109OSM   C17S11229   5.826   2.498   9.076  0.4900 -0.0741 -0.4290
  109OSM   H17S11230   5.907   2.571   9.057 -1.3092  2.3320  0.6089
  109OSM   H17T11231   5.737   2.550   9.116 -0.8328 -1.5039 -1.3681
  109OSM   C18S11232   5.787   2.444   8.934  0.0600 -0.1668 -0.6559
  109OSM   H18S11233   5.695   2.381   8.935  1.0034 -1.6019 -1.2813
  109OSM   H18T11234   5.865   2.377   8.893  0.8389 -0.6566  1.4808
  109OSM   H18U11235   5.777   2.527   8.861 -1.0173 -1.5324 -2.1240
  109OSM    C1F11236   6.274   2.301  10.628  0.1446  0.4168  0.7636
  109OSM     OF11237   6.375   2.233  10.615 -0.0916  0.0795 -0.1010
  109OSM    C2F11238   6.259   2.446  10.589  0.3505 -0.0991  0.0570
  109OSM    H2F11239   6.305   2.519  10.659  3.9514 -0.6146 -1.5610
  109OSM    H2G11240   6.151   2.473  10.589  0.0897 -0.7255  3.4878
  109OSM    C3F11241   6.320   2.462  10.455 -0.4445  0.2577  0.6407
  109OSM    H3F11242   6.309   2.383  10.378  1.0549 -1.4407  2.0706
  109OSM    H3G11243   6.430   2.471  10.467 -0.5810  2.8462  0.5126
  109OSM    C4F11244   6.290   2.601  10.390  0.3093  0.1630  0.0319
  109OSM    H4F11245   6.296   2.686  10.462 -0.3982 -0.3965  0.7692
  109OSM    H4G11246   6.184   2.598  10.356  0.1708 -0.7601  0.5117
  109OSM    C5F11247   6.389   2.633  10.277  0.2133  0.1871 -0.3635
  109OSM    H5F11248   6.483   2.585  10.310 -0.4728 -1.3560 -0.5614
  109OSM    H5G11249   6.417   2.741  10.279  0.1875  0.2085 -1.1077
  109OSM    C6F11250   6.357   2.576  10.134 -0.5881 -0.5175  0.2140
  109OSM    H6F11251   6.268   2.625  10.089 -0.1558  0.2539  0.1820
  109OSM    H6G11252   6.339   2.467  10.141  1.1988 -1.1461 -2.9330
  109OSM    C7F11253   6.471   2.596  10.029 -0.1131 -0.3076  0.6769
  109OSM    H7F11254   6.556   2.531  10.059  0.4220 -0.1862 -0.5516
  109OSM    H7G11255   6.509   2.700  10.038  4.2516 -1.6276 -0.2322
  109OSM    C8F11256   6.418   2.556   9.894 -0.0887  0.1442  0.2466
  109OSM    H8F11257   6.339   2.631   9.874 -2.2021 -2.1450 -0.5717
  109OSM    H8G11258   6.361   2.460   9.890 -2.9395  1.7544 -2.4694
  109OSM    C9F11259   6.522   2.557   9.782  0.2924 -0.4908 -0.3973
  109OSM    H9F11260   6.614   2.611   9.810  0.2938 -1.6307  1.9786
  109OSM   C10F11261   6.518   2.483   9.663 -0.5872 -0.6319 -0.2778
  109OSM   H10F11262   6.606   2.484   9.598  1.4069 -0.8118  2.2334
  109OSM   C11F11263   6.416   2.386   9.622 -0.2055  0.0924  0.1366
  109OSM   H11F11264   6.324   2.414   9.677  0.2699  2.2573 -0.0753
  109OSM   H11G11265   6.449   2.284   9.652 -0.5715  0.1147  0.6243
  109OSM   C12F11266   6.400   2.389   9.466  0.3144  0.3608 -1.1816
  109OSM   H12F11267   6.409   2.496   9.437  1.2319  0.2152 -1.4923
  109OSM   H12G11268   6.299   2.349   9.445  0.5328 -0.4808 -0.6778
  109OSM   C13F11269   6.512   2.307   9.386 -0.8648 -0.3538 -0.0744
  109OSM   H13F11270   6.494   2.199   9.407  2.8281 -0.6857  2.4155
  109OSM   H13G11271   6.618   2.326   9.413 -0.4062 -0.2014 -1.8489
  109OSM   C14F11272   6.502   2.342   9.230 -0.1264 -0.4926  0.6629
  109OSM   H14F11273   6.590   2.304   9.174  0.7223  2.5216 -0.1782
  109OSM   H14G11274   6.512   2.452   9.220 -1.3182 -0.5170 -1.3417
  109OSM   C15F11275   6.367   2.287   9.176  0.5699  0.6594 -0.1648
  109OSM   H15F11276   6.277   2.325   9.228 -0.9071  0.2765 -2.3085
  109OSM   H15G11277   6.372   2.180   9.204  2.6239  1.1484  1.6639
  109OSM   C16F11278   6.351   2.320   9.032  0.3000 -0.5892  0.2492
  109OSM   H16F11279   6.444   2.300   8.975  0.9446  1.8107  0.3962
  109OSM   H16G11280   6.343   2.429   9.018 -1.7513 -0.7364 -0.1160
  109OSM   C17F11281   6.222   2.276   8.957 -0.6582  0.3934 -0.0258
  109OSM   H17F11282   6.129   2.318   8.999 -1.3162 -0.2666 -0.8012
  109OSM   H17G11283   6.218   2.165   8.971 -0.7844  0.5004  0.8783
  109OSM   C18F11284   6.224   2.309   8.813  0.0506 -0.7226 -0.7082
  109OSM   H18F11285   6.156   2.244   8.753 -2.3933 -0.0201  1.1116
  109OSM   H18G11286   6.323   2.303   8.763  0.6216 -0.3934  0.3679
  109OSM   H18H11287   6.189   2.414   8.806  0.3063 -0.6584 -1.0397
  110OSM      N11288   6.248   0.204  11.129  0.3789  0.4180 -0.9333
  110OSM    C1511289   6.129   0.142  11.053  0.3407 -0.0634 -0.2030
  110OSM   H15A11290   6.052   0.101  11.117 -0.3744  1.6565  0.0938
  110OSM   H15B11291   6.166   0.070  10.982  1.4378 -1.7993  2.0099
  110OSM   H15C11292   6.067   0.215  11.002 -1.8022 -1.7300 -0.1336
  110OSM    C1411293   6.197   0.306  11.227  0.0552 -0.1169  0.5648
  110OSM   H14A11294   6.122   0.269  11.295  0.1913  0.2336  0.9112
  110OSM   H14B11295   6.151   0.378  11.161  0.6492 -0.7039 -0.5046
  110OSM   H14C11296   6.284   0.347  11.276  0.3254  2.4353 -1.7921
  110OSM    C1311297   6.304   0.090  11.208 -0.0786  0.0779  0.4157
  110OSM   H13A11298   6.278  -0.003  11.160  0.3905 -0.5143  1.2892
  110OSM   H13B11299   6.265   0.085  11.308  0.5355 -0.8512  0.6192
  110OSM   H13C11300   6.412   0.097  11.218 -0.2979  1.0447  2.5193
  110OSM    C1211301   6.347   0.260  11.033 -0.1833  0.6053 -0.0423
  110OSM   H12A11302   6.436   0.288  11.087 -1.2645 -0.1652  2.2983
  110OSM   H12B11303   6.310   0.344  10.977 -1.2298  1.1622  1.4116
  110OSM    C1111304   6.390   0.158  10.919  0.4285  0.6255  0.0331
  110OSM   H11A11305   6.439   0.224  10.844  0.8184 -1.5037 -1.7055
  110OSM   H11B11306   6.308   0.107  10.864  0.3946 -1.1915  1.6580
  110OSM      P11307   6.625   0.095  10.985 -0.2830 -0.2602  0.0419
  110OSM    O1311308   6.628   0.224  11.055 -0.6357 -0.1198 -0.3944
  110OSM    O1411309   6.712  -0.010  11.035  0.0579  0.1901  0.0266
  110OSM    O1111310   6.674   0.118  10.827  0.3564 -0.3752  0.1676
  110OSM    O1211311   6.474   0.058  10.973  0.1053 -0.1691 -0.3186
  110OSM    C1S11312   6.635   0.020  10.726  0.2430  0.1460  0.4536
  110OSM    H1S11313   6.527   0.032  10.703  0.4485  0.8843 -0.1956
  110OSM    H1T11314   6.648  -0.083  10.765 -0.7862 -0.2463 -0.1879
  110OSM     NF11315   6.668  -0.069  10.498 -0.5053  0.5331  0.3243
  110OSM    HNF11316   6.719  -0.152  10.476 -1.3837 -0.0208  0.3276
  110OSM    C2S11317   6.718   0.025  10.596 -0.0115 -0.6878 -0.7886
  110OSM    H2S11318   6.709   0.129  10.557  0.0820  0.2608  1.5863
  110OSM    C3S11319   6.873   0.012  10.618 -0.4915  0.0484 -0.1739
  110OSM    H3S11320   6.887  -0.096  10.641  0.5784 -0.0146 -1.0232
  110OSM     O311321   6.915   0.095  10.731  0.4628 -0.0449 -0.9171
  110OSM    HO311322   6.833   0.123  10.772  0.5231  0.4688 -1.1319
  110OSM    C4S11323   6.956   0.038  10.495 -0.5694 -0.2874  0.2820
  110OSM    H4S11324   6.975  -0.048  10.430  1.2060  0.9313 -0.8725
  110OSM    C5S11325   7.022   0.149  10.454 -0.5475  0.1642 -0.1563
  110OSM    H5S11326   7.018   0.244  10.509 -0.9165  0.3996 -0.5837
  110OSM    C6S11327   7.101   0.153  10.327 -0.2204 -0.1739  0.2194
  110OSM    H6S11328   7.115   0.049  10.292 -1.7718 -0.3945  0.1990
  110OSM    H6T11329   7.198   0.200  10.354 -0.2552 -0.1225  0.2566
  110OSM    C7S11330   7.044   0.245  10.223 -0.0705 -0.1241  0.0306
  110OSM    H7S11331   7.045   0.352  10.254 -0.9562 -0.1341  0.1247
  110OSM    H7T11332   6.939   0.212  10.209 -0.8980  2.2781  0.1271
  110OSM    C8S11333   7.122   0.235  10.090  0.1208  0.1486  0.8701
  110OSM    H8S11334   7.132   0.129  10.060  0.9923  0.3020  0.5878
  110OSM    H8T11335   7.226   0.273  10.097 -0.4623  2.7107 -2.2142
  110OSM    C9S11336   7.057   0.299   9.970  0.8261 -0.6698 -0.4131
  110OSM    H9S11337   7.041   0.409   9.983  0.8849 -0.3335 -2.8265
  110OSM    H9T11338   6.962   0.247   9.948  0.1019  1.2837 -2.2788
  110OSM   C10S11339   7.146   0.293   9.848 -0.2153  0.5529 -0.0816
  110OSM   H10S11340   7.179   0.187   9.840 -1.0232  0.1342  1.6979
  110OSM   H10T11341   7.235   0.358   9.856  1.6356 -2.0022  1.9107
  110OSM   C11S11342   7.069   0.340   9.720 -0.2828 -0.5598  0.1948
  110OSM   H11S11343   7.050   0.448   9.735  1.6609 -0.2790  1.1088
  110OSM   H11T11344   6.967   0.296   9.722  1.0026 -3.8838  2.0446
  110OSM   C12S11345   7.145   0.334   9.589 -0.4608  0.6145  0.0821
  110OSM   H12S11346   7.178   0.228   9.576 -1.3353  0.2645  0.6336
  110OSM   H12T11347   7.225   0.409   9.603 -2.3592  2.4795  1.5533
  110OSM   C13S11348   7.078   0.379   9.461  0.0086 -0.0220  0.1290
  110OSM   H13S11349   7.019   0.468   9.490  0.4226  0.1015  0.6123
  110OSM   H13T11350   7.009   0.295   9.440  1.4593 -1.1001 -0.5109
  110OSM   C14S11351   7.169   0.402   9.344 -0.8178 -0.4786  0.3346
  110OSM   H14S11352   7.250   0.326   9.333  0.2577  0.9532 -3.3291
  110OSM   H14T11353   7.224   0.498   9.354 -2.0025  0.1823  0.7092
  110OSM   C15S11354   7.106   0.419   9.206 -0.4225  0.7689  0.1200
  110OSM   H15S11355   7.026   0.496   9.204 -0.7957  0.3911 -2.1118
  110OSM   H15T11356   7.058   0.328   9.164  1.6260  0.0736 -0.8348
  110OSM   C16S11357   7.221   0.449   9.099 -0.3628  0.2198 -0.8084
  110OSM   H16S11358   7.274   0.353   9.083  0.1328  0.2448  0.5769
  110OSM   H16T11359   7.301   0.508   9.150 -0.1934 -1.3242  0.8170
  110OSM   C17S11360   7.178   0.510   8.965 -0.4907  0.3061 -0.3059
  110OSM   H17S11361   7.265   0.535   8.899 -0.9093 -1.0261 -1.4071
  110OSM   H17T11362   7.137   0.608   8.996  3.4966  1.3181  2.7331
  110OSM   C18S11363   7.076   0.430   8.881  0.5536 -0.2498 -0.0159
  110OSM   H18S11364   7.040   0.483   8.791 -0.9940  1.2511  1.4065
  110OSM   H18T11365   6.988   0.404   8.943 -0.2278 -0.4608 -1.1980
  110OSM   H18U11366   7.123   0.334   8.851  2.2882  0.3279  0.6987
  110OSM    C1F11367   6.544  -0.067  10.441  0.0652  0.1204  0.1874
  110OSM     OF11368   6.466   0.023  10.467  0.3491  0.2433  0.2895
  110OSM    C2F11369   6.503  -0.179  10.351 -0.2357 -0.3328 -0.0597
  110OSM    H2F11370   6.463  -0.264  10.409  0.4633 -1.3429 -1.0084
  110OSM    H2G11371   6.597  -0.202  10.295 -0.0913 -1.7609  0.7184
  110OSM    C3F11372   6.393  -0.132  10.252  0.6348 -0.2392  0.1286
  110OSM    H3F11373   6.421  -0.048  10.184 -0.0419 -0.4201 -0.3901
  110OSM    H3G11374   6.303  -0.093  10.304  1.0859  0.2267  0.5757
  110OSM    C4F11375   6.357  -0.242  10.151  0.4751  0.4319 -0.2594
  110OSM    H4F11376   6.310  -0.313  10.222 -0.4755  1.1352 -0.1772
  110OSM    H4G11377   6.446  -0.294  10.108  2.3047  2.6665  0.5721
  110OSM    C5F11378   6.268  -0.189  10.035  0.4500  0.5435 -0.3443
  110OSM    H5F11379   6.172  -0.152  10.076  0.1780  1.9467 -2.1256
  110OSM    H5G11380   6.250  -0.272   9.964 -1.5460 -0.7384  1.5226
  110OSM    C6F11381   6.320  -0.081   9.935 -0.3659  0.0475  0.1124
  110OSM    H6F11382   6.316   0.020   9.981  0.4257 -0.2644  0.8905
  110OSM    H6G11383   6.244  -0.079   9.854  0.4251  2.5148 -0.6854
  110OSM    C7F11384   6.463  -0.106   9.884  0.0350  0.2971  0.0612
  110OSM    H7F11385   6.450  -0.206   9.839  0.4730  0.2244  0.0978
  110OSM    H7G11386   6.532  -0.102   9.971  1.6459 -0.4439 -1.1427
  110OSM    C8F11387   6.500   0.000   9.782 -0.6992  0.8460 -0.8626
  110OSM    H8F11388   6.482   0.103   9.821 -1.3181  0.4575 -0.1054
  110OSM    H8G11389   6.429  -0.009   9.698  0.6646 -1.8751 -1.8257
  110OSM    C9F11390   6.644  -0.014   9.731  0.3842  0.6409 -0.3493
  110OSM    H9F11391   6.712  -0.034   9.816 -1.9641 -1.0715  1.2664
  110OSM   C10F11392   6.674   0.003   9.598  0.0886 -1.0223  0.8037
  110OSM   H10F11393   6.777  -0.011   9.563 -0.0591 -1.9427  0.7177
  110OSM   C11F11394   6.586   0.058   9.491  0.2642 -0.1873 -0.0419
  110OSM   H11F11395   6.495   0.112   9.525 -0.3866 -1.9745  1.2063
  110OSM   H11G11396   6.550  -0.018   9.419  0.8999  0.9417 -1.6072
  110OSM   C12F11397   6.661   0.157   9.408  0.4698 -0.6494 -0.2220
  110OSM   H12F11398   6.743   0.098   9.364  1.3048 -1.0742  1.8114
  110OSM   H12G11399   6.709   0.233   9.474  0.2956  0.3900 -1.2500
  110OSM   C13F11400   6.578   0.230   9.293 -0.2168 -0.0465  0.1817
  110OSM   H13F11401   6.523   0.318   9.333  1.1665 -0.7793  4.0709
  110OSM   H13G11402   6.497   0.158   9.268 -0.6604  0.7171 -0.6261
  110OSM   C14F11403   6.656   0.274   9.175 -0.3515 -0.7767 -0.5623
  110OSM   H14F11404   6.676   0.172   9.136 -0.4989 -1.3745  0.8556
  110OSM   H14G11405   6.750   0.318   9.213 -0.0898 -1.4295 -0.4495
  110OSM   C15F11406   6.582   0.366   9.079  0.1039 -0.4714 -0.0411
  110OSM   H15F11407   6.581   0.465   9.130  0.6664 -2.2169  3.6787
  110OSM   H15G11408   6.480   0.325   9.068  0.4442 -0.6892 -3.2446
  110OSM   C16F11409   6.652   0.352   8.941 -0.1245  0.2678 -0.5044
  110OSM   H16F11410   6.684   0.246   8.932  0.3285  0.1307  1.9034
  110OSM   H16G11411   6.746   0.410   8.938  2.8553 -3.9500  0.9445
  110OSM   C17F11412   6.559   0.393   8.826  0.2137 -0.1539  0.6126
  110OSM   H17F11413   6.513   0.493   8.841 -1.5746 -0.1840 -3.3298
  110OSM   H17G11414   6.473   0.323   8.814  0.3070 -0.2785  0.6744
  110OSM   C18F11415   6.642   0.410   8.695 -0.0806 -0.4462 -0.3961
  110OSM   H18F11416   6.703   0.317   8.688 -1.2629 -1.2238 -0.5535
  110OSM   H18G11417   6.700   0.504   8.712 -0.3604 -0.0883 -1.3705
  110OSM   H18H11418   6.573   0.415   8.608 -0.8828  1.8882  0.2880
  111OSM      N11419   1.239   5.961  10.763 -0.5186  0.1901  0.1528
  111OSM    C1511420   1.369   5.896  10.751  1.2085  0.4519  0.4362
  111OSM   H15A11421   1.366   5.807  10.690 -2.4266  0.4462  0.3830
  111OSM   H15B11422   1.423   5.882  10.844 -0.1025  0.4415  1.2289
  111OSM   H15C11423   1.432   5.957  10.688  1.2542 -0.4126 -0.3719
  111OSM    C1411424   1.136   5.855  10.802  0.6344 -0.1577  0.1679
  111OSM   H14A11425   1.159   5.811  10.898  1.2148  0.8468  0.5046
  111OSM   H14B11426   1.131   5.774  10.730  0.8656  0.6643 -0.7900
  111OSM   H14C11427   1.040   5.902  10.817  0.9295  0.0818  1.4093
  111OSM    C1311428   1.232   6.054  10.882  0.3451 -0.0407 -0.3729
  111OSM   H13A11429   1.241   5.996  10.973  1.0179  0.0195 -0.3945
  111OSM   H13B11430   1.130   6.090  10.884 -0.1394 -1.3762  0.9873
  111OSM   H13C11431   1.302   6.136  10.872 -1.7685  1.8503 -0.3882
  111OSM    C1211432   1.198   6.028  10.629  0.4839 -0.5445  0.4360
  111OSM   H12A11433   1.099   6.070  10.639  0.1535 -1.6407  2.2740
  111OSM   H12B11434   1.193   5.951  10.554 -2.0046  0.5793 -0.6705
  111OSM    C1111435   1.290   6.145  10.576  0.2768 -0.1410 -0.5568
  111OSM   H11A11436   1.246   6.196  10.487  0.3023  2.3684  0.7752
  111OSM   H11B11437   1.386   6.104  10.538 -0.0958 -2.6166  0.9979
  111OSM      P11438   1.242   6.368  10.713  0.2298  0.6039  0.1031
  111OSM    O1311439   1.104   6.326  10.758  0.1563  0.1071 -0.1613
  111OSM    O1411440   1.310   6.465  10.800  0.4427 -0.6513  0.0023
  111OSM    O1111441   1.228   6.435  10.575  0.5041  0.3178  0.0032
  111OSM    O1211442   1.321   6.235  10.686 -0.3293  0.4786 -0.6702
  111OSM    C1S11443   1.338   6.483  10.500 -0.1684 -0.5730 -0.0018
  111OSM    H1S11444   1.415   6.403  10.494 -1.1026 -1.4975  0.0503
  111OSM    H1T11445   1.385   6.566  10.556 -1.6316  0.4044 -0.1476
  111OSM     NF11446   1.424   6.611  10.313 -0.0158 -0.6056 -0.3396
  111OSM    HNF11447   1.445   6.700  10.355  1.4133 -0.3201 -1.5845
  111OSM    C2S11448   1.304   6.541  10.362  0.4802 -0.4902  0.2137
  111OSM    H2S11449   1.286   6.455  10.295  1.3773  0.1436 -0.8616
  111OSM    C3S11450   1.178   6.632  10.365 -0.3410  0.1220 -0.0839
  111OSM    H3S11451   1.194   6.713  10.439  1.0385  0.5483 -0.8136
  111OSM     O311452   1.062   6.559  10.408 -0.1474 -0.1231  0.4421
  111OSM    HO311453   1.101   6.490  10.463 -0.8319  1.6454  3.3193
  111OSM    C4S11454   1.158   6.697  10.228  0.1586 -0.4373  0.1905
  111OSM    H4S11455   1.230   6.778  10.211 -2.1255  1.8584  0.7765
  111OSM    C5S11456   1.066   6.660  10.134 -0.5017  0.2144 -1.3537
  111OSM    H5S11457   1.001   6.576  10.164 -1.5105  0.9987 -1.2972
  111OSM    C6S11458   1.034   6.719  10.005 -0.7893 -0.4079  0.7215
  111OSM    H6S11459   0.931   6.762  10.013 -0.3911  0.7540 -0.0622
  111OSM    H6T11460   1.032   6.640   9.927  1.5670  1.5340 -1.4741
  111OSM    C7S11461   1.134   6.827   9.957  0.3549 -0.7487  0.9250
  111OSM    H7S11462   1.239   6.791   9.951  0.6298  0.1846 -0.1896
  111OSM    H7T11463   1.142   6.914  10.026  2.8604  1.4232 -1.8546
  111OSM    C8S11464   1.097   6.892   9.827  0.2091 -0.4610  0.0441
  111OSM    H8S11465   1.163   6.980   9.810 -0.4610 -0.3724 -2.6018
  111OSM    H8T11466   0.992   6.926   9.835  0.4198  0.1696  0.2122
  111OSM    C9S11467   1.124   6.818   9.694  0.0917  0.0171 -0.5059
  111OSM    H9S11468   1.069   6.721   9.696 -2.5777  1.3834  2.0046
  111OSM    H9T11469   1.233   6.801   9.690  0.0542 -0.0097 -1.6482
  111OSM   C10S11470   1.088   6.902   9.579  0.1001  0.0673  0.1187
  111OSM   H10S11471   1.149   6.994   9.582  0.1492  0.0566 -0.4215
  111OSM   H10T11472   0.981   6.927   9.595  0.4201  0.7286  1.3276
  111OSM   C11S11473   1.092   6.815   9.451  0.1361  0.1770 -0.5773
  111OSM   H11S11474   1.045   6.718   9.475  0.5816  0.4473  1.5879
  111OSM   H11T11475   1.197   6.797   9.417  0.4589 -0.9036  0.9163
  111OSM   C12S11476   1.023   6.884   9.335 -0.2998  0.2271  0.1683
  111OSM   H12S11477   1.080   6.973   9.300 -0.7099  0.2661 -0.4311
  111OSM   H12T11478   0.919   6.909   9.365 -1.2362 -1.9219 -1.0291
  111OSM   C13S11479   1.025   6.788   9.214  0.4515  0.0780 -0.6872
  111OSM   H13S11480   0.991   6.690   9.253  0.1317  0.9058  1.1833
  111OSM   H13T11481   1.130   6.773   9.181  1.3970  0.0684  2.1012
  111OSM   C14S11482   0.947   6.821   9.083  1.0942 -0.0199  0.2387
  111OSM   H14S11483   0.965   6.743   9.006 -0.2357  1.1602 -1.3423
  111OSM   H14T11484   0.994   6.914   9.045 -1.2559  1.8365  1.6246
  111OSM   C15S11485   0.797   6.857   9.108  0.0981  0.1823  0.0616
  111OSM   H15S11486   0.790   6.911   9.205 -0.6102 -0.0475  0.1465
  111OSM   H15T11487   0.737   6.764   9.119 -1.5340  1.4499  3.0197
  111OSM   C16S11488   0.735   6.937   8.987  0.3302  0.5995  0.0875
  111OSM   H16S11489   0.789   6.922   8.892  0.0007 -1.2791  0.1678
  111OSM   H16T11490   0.757   7.044   9.006 -2.6173  1.0749  1.3849
  111OSM   C17S11491   0.586   6.904   8.961  0.0048 -0.0944 -0.7439
  111OSM   H17S11492   0.524   6.895   9.053 -0.1409  1.4350 -0.6736
  111OSM   H17T11493   0.585   6.799   8.924 -0.8012 -0.4672  0.2934
  111OSM   C18S11494   0.532   7.012   8.868 -0.4852 -0.0787 -0.1196
  111OSM   H18S11495   0.595   7.007   8.776  0.9638 -2.7651  0.9058
  111OSM   H18T11496   0.543   7.115   8.908 -1.8945 -0.2754  0.8472
  111OSM   H18U11497   0.425   6.999   8.845  0.0504 -3.0006 -1.3481
  111OSM    C1F11498   1.525   6.546  10.267 -0.6488  0.5156  0.3864
  111OSM     OF11499   1.523   6.427  10.265  0.1467  0.0281 -0.1158
  111OSM    C2F11500   1.646   6.625  10.227 -0.2220 -0.3555  0.4482
  111OSM    H2F11501   1.718   6.581  10.155  1.3310  0.5341  1.3885
  111OSM    H2G11502   1.708   6.633  10.320  0.9862  1.5571 -0.4681
  111OSM    C3F11503   1.613   6.764  10.171  0.2993 -0.6682  0.6756
  111OSM    H3F11504   1.707   6.821  10.161 -0.5720  0.9329  1.3139
  111OSM    H3G11505   1.552   6.827  10.239  1.3293  0.4438  0.5921
  111OSM    C4F11506   1.563   6.756  10.024 -0.0892 -0.5990  0.7330
  111OSM    H4F11507   1.453   6.737  10.017 -0.0457 -0.2752 -1.1083
  111OSM    H4G11508   1.632   6.687   9.972  0.5126 -0.1618  0.9384
  111OSM    C5F11509   1.592   6.890   9.945 -0.3593 -0.1148  0.3845
  111OSM    H5F11510   1.699   6.916   9.954  0.0249 -0.8421 -1.6226
  111OSM    H5G11511   1.538   6.975   9.991 -0.8624  0.0480 -0.4843
  111OSM    C6F11512   1.560   6.882   9.793 -0.5192 -0.4613 -0.3686
  111OSM    H6F11513   1.449   6.890   9.783 -0.6041 -1.4843 -0.3714
  111OSM    H6G11514   1.586   6.782   9.753 -1.2688 -1.4010  1.3768
  111OSM    C7F11515   1.620   6.992   9.705  0.5262 -0.0030  0.0151
  111OSM    H7F11516   1.721   7.018   9.743  0.8192 -0.6496 -0.2970
  111OSM    H7G11517   1.564   7.088   9.711  0.5480 -0.0557  1.5025
  111OSM    C8F11518   1.607   6.946   9.558 -0.2727 -0.6085 -0.1092
  111OSM    H8F11519   1.499   6.944   9.532  0.2085  0.6337 -2.4912
  111OSM    H8G11520   1.650   6.845   9.545 -1.3086 -1.0730 -0.0102
  111OSM    C9F11521   1.665   7.056   9.468  0.1118  0.0754  0.1023
  111OSM    H9F11522   1.752   7.115   9.500 -0.4069  1.1098 -0.3127
  111OSM   C10F11523   1.610   7.083   9.350  0.4215 -0.1575  1.2257
  111OSM   H10F11524   1.652   7.160   9.284  0.1196 -0.4704  0.6657
  111OSM   C11F11525   1.492   7.009   9.292  0.0046  0.4565 -0.7124
  111OSM   H11F11526   1.395   7.057   9.320 -0.6557 -1.2220 -0.0150
  111OSM   H11G11527   1.495   6.899   9.300 -0.4025  0.3556 -1.8315
  111OSM   C12F11528   1.478   7.026   9.138 -0.1117 -0.0898  0.4099
  111OSM   H12F11529   1.575   7.002   9.088 -1.0307 -0.1743 -1.4015
  111OSM   H12G11530   1.456   7.134   9.124 -1.1649 -0.3821 -0.2787
  111OSM   C13F11531   1.374   6.933   9.081 -0.2266  0.2675 -0.1453
  111OSM   H13F11532   1.268   6.961   9.098 -0.2010  0.9214 -0.9683
  111OSM   H13G11533   1.393   6.830   9.117 -0.2885  0.9705  2.0300
  111OSM   C14F11534   1.387   6.934   8.926 -0.2519 -0.7889  0.3523
  111OSM   H14F11535   1.494   6.933   8.895 -0.2237 -1.2755  0.4562
  111OSM   H14G11536   1.349   7.034   8.896 -0.7652 -0.6049  1.5250
  111OSM   C15F11537   1.303   6.823   8.862  0.4555 -0.2844 -0.5215
  111OSM   H15F11538   1.217   6.778   8.915  1.0112 -1.9415 -0.9793
  111OSM   H15G11539   1.371   6.737   8.847  2.5095  1.0955  0.3561
  111OSM   C16F11540   1.228   6.865   8.732 -0.4414 -0.7405  0.0882
  111OSM   H16F11541   1.236   6.778   8.663 -1.0595 -0.9549  0.2769
  111OSM   H16G11542   1.292   6.947   8.691  0.7491 -2.0311 -0.7135
  111OSM   C17F11543   1.083   6.909   8.746  0.2023  0.5877 -0.1651
  111OSM   H17F11544   1.015   6.831   8.788 -0.5728  0.3794 -1.7384
  111OSM   H17G11545   1.058   6.924   8.639 -0.7469  1.4612  0.1631
  111OSM   C18F11546   1.050   7.041   8.809  0.2924 -0.5410 -0.9227
  111OSM   H18F11547   1.092   7.121   8.744  0.5275 -0.3625 -0.5492
  111OSM   H18G11548   1.097   7.051   8.909  0.6744  0.7542 -1.2119
  111OSM   H18H11549   0.940   7.053   8.809  0.4286  0.9060 -1.3430
  112OSM      N11550   6.038   4.860  10.596  0.3088 -0.3680 -0.4761
  112OSM    C1511551   5.899   4.830  10.548  0.0814 -0.2506 -0.4130
  112OSM   H15A11552   5.835   4.911  10.580  0.2935 -0.8017  1.5379
  112OSM   H15B11553   5.869   4.730  10.574  0.5455 -0.0613  0.9087
  112OSM   H15C11554   5.900   4.828  10.440 -0.5621 -0.8042 -0.4150
  112OSM    C1411555   6.071   4.997  10.554 -0.2564 -0.9748 -0.0687
  112OSM   H14A11556   6.069   4.993  10.446 -0.4734 -1.3525 -0.0531
  112OSM   H14B11557   6.165   5.034  10.590 -1.0355 -0.3488  1.3866
  112OSM   H14C11558   5.998   5.066  10.594  2.0360  1.7512 -0.2791
  112OSM    C1311559   6.036   4.861  10.749 -0.1642 -0.2701 -0.0829
  112OSM   H13A11560   6.003   4.761  10.775  2.1799 -1.3913 -1.0853
  112OSM   H13B11561   5.977   4.940  10.793 -0.6150  0.3244 -1.6738
  112OSM   H13C11562   6.140   4.865  10.776  0.5793 -1.6744 -2.4712
  112OSM    C1211563   6.137   4.761  10.551 -0.1291  0.4982 -0.1910
  112OSM   H12A11564   6.155   4.766  10.445 -1.3221 -0.9767 -0.4895
  112OSM   H12B11565   6.094   4.666  10.578 -1.2099  1.8538  3.3517
  112OSM    C1111566   6.281   4.760  10.612 -0.2988  0.2953 -0.1015
  112OSM   H11A11567   6.314   4.866  10.610 -1.4462  0.6906  0.6200
  112OSM   H11B11568   6.351   4.704  10.547 -0.4228  0.4575 -0.3744
  112OSM      P11569   6.249   4.544  10.765  0.0326  0.1110  0.0475
  112OSM    O1311570   6.314   4.501  10.892 -0.7900 -0.3221 -0.0998
  112OSM    O1411571   6.102   4.510  10.753 -0.0536 -0.1243 -0.0964
  112OSM    O1111572   6.337   4.474  10.656 -0.5915  0.5891  0.3655
  112OSM    O1211573   6.281   4.696  10.742  0.3220 -0.7271 -0.3760
  112OSM    C1S11574   6.271   4.407  10.550  0.5321 -0.5798 -0.4942
  112OSM    H1S11575   6.230   4.489  10.487  0.1297  0.1912  0.7424
  112OSM    H1T11576   6.195   4.332  10.580 -0.9622  1.6317  1.6825
  112OSM     NF11577   6.317   4.302  10.322  0.6235 -0.0334 -0.2657
  112OSM    HNF11578   6.259   4.221  10.317 -0.7935  0.8573  1.0863
  112OSM    C2S11579   6.370   4.337  10.452  0.5937 -0.9318 -0.3117
  112OSM    H2S11580   6.450   4.412  10.435 -1.8788  1.6146 -1.3902
  112OSM    C3S11581   6.423   4.211  10.524  0.5589 -0.4962  0.3608
  112OSM    H3S11582   6.333   4.148  10.538 -0.5761  1.3291  1.7211
  112OSM     O311583   6.459   4.241  10.658  0.3248 -0.2784 -0.2925
  112OSM    HO311584   6.436   4.335  10.665  0.1016 -0.2115 -1.7219
  112OSM    C4S11585   6.541   4.164  10.448  0.5166 -0.4453  0.4042
  112OSM    H4S11586   6.511   4.095  10.368  0.0805  2.1487 -1.7912
  112OSM    C5S11587   6.667   4.207  10.450  0.0841 -0.7601  0.4464
  112OSM    H5S11588   6.697   4.293  10.511 -0.9981 -0.4582  0.5795
  112OSM    C6S11589   6.774   4.141  10.370 -0.0339  0.1643  0.8352
  112OSM    H6S11590   6.844   4.108  10.450  0.5648 -0.0033  0.2493
  112OSM    H6T11591   6.835   4.213  10.313  0.8493  0.9561  2.6929
  112OSM    C7S11592   6.731   4.030  10.265 -0.5092  0.4992  0.2519
  112OSM    H7S11593   6.642   4.060  10.205 -1.0464  0.6560  1.0950
  112OSM    H7T11594   6.688   3.946  10.324  1.5078 -0.4505  0.4405
  112OSM    C8S11595   6.848   3.976  10.187 -0.1402  0.2026 -0.2259
  112OSM    H8S11596   6.913   3.925  10.261  1.5264 -0.0161 -1.7804
  112OSM    H8T11597   6.899   4.065  10.143  0.9251 -0.4143 -0.2804
  112OSM    C9S11598   6.832   3.877  10.067 -0.0689 -0.4552  0.4233
  112OSM    H9S11599   6.775   3.793  10.111 -0.9002 -0.0847  0.0872
  112OSM    H9T11600   6.935   3.853  10.032  0.8261  0.9440  1.9568
  112OSM   C10S11601   6.733   3.928   9.965 -0.0045 -0.1861 -0.5812
  112OSM   H10S11602   6.757   4.030   9.929  0.8103 -0.1070  0.1349
  112OSM   H10T11603   6.636   3.944  10.015  1.4407  0.8373  2.0812
  112OSM   C11S11604   6.696   3.834   9.840 -0.0157 -0.4471  0.2410
  112OSM   H11S11605   6.771   3.824   9.759 -0.9043  0.1831 -0.6929
  112OSM   H11T11606   6.614   3.885   9.786  0.0898 -0.2383  0.2777
  112OSM   C12S11607   6.657   3.693   9.875 -0.5878 -0.3766 -0.2868
  112OSM   H12S11608   6.579   3.687   9.955 -0.4871 -0.0472 -0.1627
  112OSM   H12T11609   6.746   3.650   9.924 -0.4967 -0.1327 -0.2372
  112OSM   C13S11610   6.622   3.603   9.759  0.2802 -0.5115  0.0013
  112OSM   H13S11611   6.609   3.495   9.778  3.0580 -0.6837  1.4883
  112OSM   H13T11612   6.709   3.600   9.691 -0.7302 -0.1379 -1.3578
  112OSM   C14S11613   6.503   3.656   9.673  0.2039  0.2381  0.2615
  112OSM   H14S11614   6.525   3.760   9.639 -3.3249  0.9117 -0.2741
  112OSM   H14T11615   6.416   3.655   9.741  0.2314  0.1221  0.2946
  112OSM   C15S11616   6.488   3.568   9.543 -0.3770 -0.0140  0.1980
  112OSM   H15S11617   6.470   3.468   9.588 -2.1793  0.1433 -0.0937
  112OSM   H15T11618   6.578   3.574   9.478 -0.7166  0.1670 -0.2600
  112OSM   C16S11619   6.354   3.586   9.461 -0.2815 -0.6520 -0.2640
  112OSM   H16S11620   6.342   3.695   9.441  0.0785 -0.6133 -0.2740
  112OSM   H16T11621   6.269   3.561   9.528  1.4759 -0.3170  2.2053
  112OSM   C17S11622   6.362   3.513   9.330  0.2816 -0.5483 -0.5411
  112OSM   H17S11623   6.458   3.538   9.280  1.2113 -0.7301  1.0856
  112OSM   H17T11624   6.273   3.544   9.271 -1.7661 -2.7485  1.2122
  112OSM   C18S11625   6.342   3.367   9.345 -0.6376  0.1940 -0.4988
  112OSM   H18S11626   6.419   3.317   9.408 -1.2965 -0.2493 -0.0302
  112OSM   H18T11627   6.350   3.315   9.247  0.0305 -3.7122  1.4534
  112OSM   H18U11628   6.248   3.335   9.394  0.3404  0.0830  1.4001
  112OSM    C1F11629   6.296   4.396  10.229  0.3625 -0.0646  0.0132
  112OSM     OF11630   6.349   4.510  10.238  0.3486 -0.1320  0.7936
  112OSM    C2F11631   6.230   4.356  10.104 -0.3418  0.2581 -0.6390
  112OSM    H2F11632   6.144   4.294  10.138 -0.8619  1.4454  0.3128
  112OSM    H2G11633   6.302   4.289  10.054  0.1320 -0.3467  0.7996
  112OSM    C3F11634   6.191   4.477  10.015  0.5929  0.6295  0.2445
  112OSM    H3F11635   6.285   4.536  10.007 -0.0933  1.5384 -1.7241
  112OSM    H3G11636   6.111   4.541  10.056 -0.0311 -0.8726  1.4674
  112OSM    C4F11637   6.146   4.424   9.875 -0.4290  0.0912 -0.0628
  112OSM    H4F11638   6.042   4.394   9.896 -0.3524 -0.3195 -0.2740
  112OSM    H4G11639   6.210   4.337   9.851 -0.3078 -0.3542  1.7176
  112OSM    C5F11640   6.155   4.542   9.779 -0.4139  0.3224  0.5991
  112OSM    H5F11641   6.264   4.564   9.779  0.8489 -4.5785  0.1689
  112OSM    H5G11642   6.103   4.633   9.815 -0.2626  1.0689 -0.9825
  112OSM    C6F11643   6.117   4.494   9.633  0.1324 -0.6720 -0.7139
  112OSM    H6F11644   6.010   4.466   9.643  1.1206 -4.5006  0.9041
  112OSM    H6G11645   6.184   4.410   9.605  2.8003  0.0591  2.7369
  112OSM    C7F11646   6.126   4.606   9.525  0.1485 -0.0045  0.0089
  112OSM    H7F11647   6.233   4.622   9.498 -0.0366 -1.5868 -1.8975
  112OSM    H7G11648   6.096   4.704   9.568  0.2951  0.1186 -0.1657
  112OSM    C8F11649   6.059   4.547   9.387 -0.6570 -0.5389  0.4356
  112OSM    H8F11650   5.958   4.504   9.403 -0.9049 -0.2990 -0.4408
  112OSM    H8G11651   6.123   4.461   9.360  1.1679  2.0154 -4.9860
  112OSM    C9F11652   6.056   4.656   9.284 -0.4874 -0.3325  0.2200
  112OSM    H9F11653   5.995   4.744   9.311 -1.7590 -1.1826  0.2398
  112OSM   C10F11654   6.098   4.644   9.158 -0.1431  0.0199  0.1098
  112OSM   H10F11655   6.089   4.737   9.100 -1.7940  0.6111  1.2222
  112OSM   C11F11656   6.176   4.529   9.095 -0.1616 -0.4240  0.2192
  112OSM   H11F11657   6.221   4.465   9.174  0.9015  0.0565  0.0198
  112OSM   H11G11658   6.257   4.572   9.031 -0.6547 -1.5163 -1.1816
  112OSM   C12F11659   6.098   4.428   9.007 -0.3639 -0.6440  0.3797
  112OSM   H12F11660   6.030   4.490   8.945 -0.7508 -0.1245  1.2888
  112OSM   H12G11661   6.040   4.374   9.085 -1.7667 -1.1513 -0.9659
  112OSM   C13F11662   6.183   4.333   8.929 -0.2021 -0.1860  0.1520
  112OSM   H13F11663   6.262   4.291   8.996  0.9355 -0.6013 -1.3722
  112OSM   H13G11664   6.233   4.392   8.849 -1.1712  0.0762 -0.2711
  112OSM   C14F11665   6.110   4.204   8.884 -0.1358 -0.6803  0.4560
  112OSM   H14F11666   6.046   4.250   8.805 -0.2546 -1.4753  0.0727
  112OSM   H14G11667   6.051   4.151   8.962 -0.4760  0.2198  0.8221
  112OSM   C15F11668   6.202   4.106   8.822 -0.5531  0.0140 -0.0614
  112OSM   H15F11669   6.243   4.036   8.898 -1.9109 -0.0978  0.5852
  112OSM   H15G11670   6.290   4.154   8.773 -0.3340  0.9550  1.1866
  112OSM   C16F11671   6.123   4.032   8.714 -0.2271  0.0838  0.5228
  112OSM   H16F11672   6.069   4.097   8.642 -0.0856 -1.5918 -1.1477
  112OSM   H16G11673   6.046   3.967   8.760  1.5843 -1.3861  1.6566
  112OSM   C17F11674   6.214   3.956   8.619 -0.1908  0.5009  0.9549
  112OSM   H17F11675   6.274   4.038   8.573  0.9097  0.8496  2.9138
  112OSM   H17G11676   6.160   3.898   8.541  1.8943  1.9942 -1.7853
  112OSM   C18F11677   6.323   3.868   8.686  0.1680  0.3877 -0.1337
  112OSM   H18F11678   6.287   3.786   8.752  1.6332 -0.4741 -0.3544
  112OSM   H18G11679   6.402   3.933   8.729  0.4833  0.5896 -0.9972
  112OSM   H18H11680   6.392   3.818   8.615 -0.5369 -0.3450 -0.3248
  113OSM      N11681   0.353   4.770  10.424 -0.3517 -0.5909 -1.0284
  113OSM    C1511682   0.311   4.641  10.363  0.2321 -0.2917  0.9111
  113OSM   H15A11683   0.315   4.656  10.256  0.7227  1.5628  1.1432
  113OSM   H15B11684   0.210   4.611  10.387  0.6201 -1.3287  1.2730
  113OSM   H15C11685   0.372   4.556  10.386 -0.9248 -1.8972 -1.5428
  113OSM    C1411686   0.469   4.817  10.354 -0.2615  0.4459  0.3252
  113OSM   H14A11687   0.528   4.897  10.395 -0.4537  0.0239  1.4608
  113OSM   H14B11688   0.451   4.837  10.250  1.9612  1.9532  0.1564
  113OSM   H14C11689   0.547   4.742  10.347  0.4124  1.1606 -0.0356
  113OSM    C1311690   0.241   4.869  10.390 -0.2737  0.3470 -0.7282
  113OSM   H13A11691   0.167   4.856  10.468  1.1598 -0.6785  0.5272
  113OSM   H13B11692   0.194   4.850  10.295  1.6763  0.7221 -1.8031
  113OSM   H13C11693   0.279   4.970  10.401 -1.0533  0.7344 -1.4496
  113OSM    C1211694   0.369   4.764  10.577  0.2105  0.0105 -0.0788
  113OSM   H12A11695   0.278   4.734  10.627  0.8451 -0.8643  0.5782
  113OSM   H12B11696   0.378   4.864  10.618 -1.0563 -0.6878  2.0897
  113OSM    C1111697   0.492   4.691  10.629 -0.3026 -0.3857  0.5773
  113OSM   H11A11698   0.513   4.724  10.733 -2.7766  0.9229  0.7354
  113OSM   H11B11699   0.578   4.696  10.559  1.0218 -0.9205  2.1088
  113OSM      P11700   0.572   4.441  10.686  0.2571 -0.0084 -0.2359
  113OSM    O1311701   0.685   4.511  10.750  0.5074  0.1739  0.0795
  113OSM    O1411702   0.511   4.333  10.766 -0.1639 -0.2993 -0.1161
  113OSM    O1111703   0.624   4.376  10.554  0.1732  0.2575 -0.4402
  113OSM    O1211704   0.460   4.550  10.638  0.4003  0.4817 -0.0983
  113OSM    C1S11705   0.552   4.369  10.440 -0.1764  0.3587  0.5920
  113OSM    H1S11706   0.566   4.463  10.382 -0.7899  0.5695  0.7781
  113OSM    H1T11707   0.447   4.354  10.471  0.3295 -1.9830  1.3167
  113OSM     NF11708   0.452   4.230  10.265 -0.6933  0.8775 -1.0650
  113OSM    HNF11709   0.395   4.152  10.290 -1.4313  1.6278 -0.3069
  113OSM    C2S11710   0.570   4.247  10.354 -0.7281  0.7451 -0.4204
  113OSM    H2S11711   0.654   4.259  10.283 -0.7292  0.9057 -0.3938
  113OSM    C3S11712   0.599   4.126  10.449 -0.5235 -0.0940 -0.2026
  113OSM    H3S11713   0.518   4.123  10.524 -1.0017  3.0763 -0.4649
  113OSM     O311714   0.720   4.144  10.525  0.1577 -0.6885 -0.2838
  113OSM    HO311715   0.711   4.234  10.559 -1.0427  0.6968 -3.7723
  113OSM    C4S11716   0.602   3.987  10.384  0.0267 -0.6457  0.1208
  113OSM    H4S11717   0.530   3.913  10.422  0.1159  0.0698  1.7782
  113OSM    C5S11718   0.695   3.950  10.301 -0.6037  0.0104 -0.2517
  113OSM    H5S11719   0.770   4.026  10.274 -0.0118  0.4569  2.3584
  113OSM    C6S11720   0.711   3.815  10.237 -0.5516 -0.0134 -0.4540
  113OSM    H6S11721   0.632   3.742  10.263  1.2978 -1.8334  0.3284
  113OSM    H6T11722   0.796   3.761  10.283 -1.1273 -0.6238 -0.1074
  113OSM    C7S11723   0.706   3.829  10.083 -0.1412  0.1730  0.3536
  113OSM    H7S11724   0.718   3.731  10.034  0.1095 -0.6416  1.9722
  113OSM    H7T11725   0.779   3.905  10.047 -2.7767  1.6027 -2.3963
  113OSM    C8S11726   0.566   3.881  10.031 -0.5181 -0.5610  0.0643
  113OSM    H8S11727   0.553   3.984  10.070  2.2107 -0.1150 -0.0101
  113OSM    H8T11728   0.483   3.816  10.069  2.2940 -3.9638  0.9596
  113OSM    C9S11729   0.559   3.892   9.879  0.2328 -0.1109  0.6323
  113OSM    H9S11730   0.453   3.906   9.848  0.7459 -0.8168 -1.6608
  113OSM    H9T11731   0.591   3.792   9.843  0.1510 -0.8833  2.6236
  113OSM   C10S11732   0.654   3.994   9.823  0.6897 -0.4840 -0.2191
  113OSM   H10S11733   0.756   3.951   9.831  0.9635 -0.0289 -1.1094
  113OSM   H10T11734   0.653   4.080   9.892 -0.0509 -1.5187  1.1210
  113OSM   C11S11735   0.631   4.035   9.673 -0.0180 -0.0316 -0.0501
  113OSM   H11S11736   0.530   4.077   9.657 -0.1926 -0.0233  0.9915
  113OSM   H11T11737   0.655   3.952   9.602  0.3669  0.9233 -1.0669
  113OSM   C12S11738   0.731   4.147   9.632  0.0856  0.4830 -0.5873
  113OSM   H12S11739   0.828   4.092   9.634  0.0171  0.3685 -0.2568
  113OSM   H12T11740   0.722   4.218   9.717 -2.1359  0.5111 -0.7956
  113OSM   C13S11741   0.707   4.194   9.486 -0.3941  0.7982 -1.0096
  113OSM   H13S11742   0.758   4.292   9.469 -0.9368  1.4623  0.8844
  113OSM   H13T11743   0.597   4.207   9.477 -1.3674 -3.7359  1.2315
  113OSM   C14S11744   0.761   4.095   9.379  0.3617  0.3333  0.1755
  113OSM   H14S11745   0.691   4.009   9.372  1.3834 -0.4772 -0.5858
  113OSM   H14T11746   0.859   4.052   9.409 -0.9209 -1.5627  1.9123
  113OSM   C15S11747   0.765   4.165   9.244  0.3697  0.6799 -0.7874
  113OSM   H15S11748   0.844   4.243   9.244  0.2163  0.8386  0.1675
  113OSM   H15T11749   0.673   4.224   9.224  1.0296  1.2247 -2.3849
  113OSM   C16S11750   0.795   4.081   9.124 -0.1773 -0.0992  0.4273
  113OSM   H16S11751   0.717   4.002   9.122  0.3166 -0.6059  0.8240
  113OSM   H16T11752   0.895   4.033   9.129  0.7837  1.4997 -1.5692
  113OSM   C17S11753   0.790   4.159   8.985 -0.0244  0.2699  0.6250
  113OSM   H17S11754   0.867   4.238   8.981  2.2637 -1.9305 -2.0934
  113OSM   H17T11755   0.686   4.198   8.971  0.0592  0.0106 -0.8427
  113OSM   C18S11756   0.820   4.060   8.874 -0.7379 -0.4195 -0.0996
  113OSM   H18S11757   0.899   3.999   8.921 -0.8611 -1.0816 -0.7368
  113OSM   H18T11758   0.853   4.095   8.773 -0.6651 -0.6232 -0.1468
  113OSM   H18U11759   0.736   3.987   8.872 -0.4691 -0.7776  1.0395
  113OSM    C1F11760   0.419   4.312  10.176  0.2870  0.3866  0.4090
  113OSM     OF11761   0.472   4.421  10.153 -0.4399  0.3374 -0.5682
  113OSM    C2F11762   0.298   4.283  10.095  0.0571 -0.3323  0.8554
  113OSM    H2F11763   0.229   4.368  10.111  1.5303  1.3549 -1.3183
  113OSM    H2G11764   0.240   4.193  10.126  0.6938 -0.9290  0.3427
  113OSM    C3F11765   0.333   4.291   9.937 -0.2649  0.2099 -0.5334
  113OSM    H3F11766   0.412   4.216   9.913  2.1919  1.4101  2.8814
  113OSM    H3G11767   0.381   4.385   9.904 -1.3611  1.2302  0.6589
  113OSM    C4F11768   0.214   4.265   9.848 -0.3231  0.0055 -0.1070
  113OSM    H4F11769   0.169   4.364   9.824  1.4522  1.4900  2.2067
  113OSM    H4G11770   0.147   4.204   9.912 -0.2793  0.5041  0.4305
  113OSM    C5F11771   0.244   4.180   9.725  0.4791  0.5795 -0.0339
  113OSM    H5F11772   0.311   4.093   9.743  0.4092  0.4027 -0.6020
  113OSM    H5G11773   0.299   4.245   9.654  1.7423  1.9136  2.0496
  113OSM    C6F11774   0.115   4.135   9.651  0.3794 -0.3336 -0.5698
  113OSM    H6F11775   0.076   4.226   9.602 -1.1958  0.0440  1.2576
  113OSM    H6G11776   0.039   4.084   9.715  0.1039 -2.6870 -2.6094
  113OSM    C7F11777   0.136   4.035   9.531 -0.0443  0.2862 -0.0946
  113OSM    H7F11778   0.044   4.018   9.471  0.8722  1.6201 -2.0001
  113OSM    H7G11779   0.162   3.941   9.584 -1.0968 -1.3374 -2.2971
  113OSM    C8F11780   0.256   4.066   9.440  0.0414 -0.1550 -0.1135
  113OSM    H8F11781   0.276   3.975   9.380  0.4579 -1.4833  1.9247
  113OSM    H8G11782   0.346   4.075   9.505  0.3087  3.3078 -0.8106
  113OSM    C9F11783   0.246   4.181   9.351  0.4807  0.1195 -0.5058
  113OSM    H9F11784   0.198   4.270   9.395 -0.5489 -0.1581 -1.0578
  113OSM   C10F11785   0.297   4.200   9.228  0.2957 -0.5351  0.1074
  113OSM   H10F11786   0.276   4.292   9.172  3.6515  0.2441 -0.0488
  113OSM   C11F11787   0.377   4.114   9.144  0.6243  0.6696  0.5394
  113OSM   H11F11788   0.483   4.117   9.177 -0.1110 -0.7689  3.2950
  113OSM   H11G11789   0.378   4.163   9.044  3.8849  0.8648  0.5533
  113OSM   C12F11790   0.343   3.963   9.124  0.5977  0.2048 -0.3679
  113OSM   H12F11791   0.364   3.903   9.215 -4.2822 -0.5668  0.5465
  113OSM   H12G11792   0.411   3.916   9.050 -0.9323 -1.7139 -0.6622
  113OSM   C13F11793   0.202   3.931   9.103  0.0836  0.5838  0.5054
  113OSM   H13F11794   0.183   3.977   9.003 -1.0073 -3.0200 -1.0928
  113OSM   H13G11795   0.133   3.982   9.174 -0.1993  0.3428  0.4048
  113OSM   C14F11796   0.164   3.780   9.105  0.6762 -0.5775  0.2344
  113OSM   H14F11797   0.174   3.729   9.203 -1.0198 -0.2458  0.5980
  113OSM   H14G11798   0.228   3.718   9.038  0.1082 -1.4014  0.4470
  113OSM   C15F11799   0.015   3.739   9.060  0.4893 -0.4684  0.5075
  113OSM   H15F11800  -0.048   3.807   9.122  0.5031  0.3004 -0.3060
  113OSM   H15G11801  -0.013   3.635   9.087  1.9668 -0.5155  2.0266
  113OSM   C16F11802  -0.012   3.775   8.911  0.2162 -0.0293  0.6401
  113OSM   H16F11803   0.082   3.786   8.852 -0.2229 -2.4660 -0.6332
  113OSM   H16G11804  -0.071   3.869   8.915 -1.2144 -0.6924 -2.2983
  113OSM   C17F11805  -0.091   3.664   8.834 -0.3595 -0.0737 -0.1021
  113OSM   H17F11806  -0.186   3.638   8.885 -1.4194 -2.3099 -2.9071
  113OSM   H17G11807  -0.031   3.573   8.853  0.3019  0.2138 -0.7329
  113OSM   C18F11808  -0.116   3.680   8.684  0.4329 -1.3210  0.2927
  113OSM   H18F11809  -0.022   3.721   8.639  0.9516 -2.0083  0.7350
  113OSM   H18G11810  -0.196   3.754   8.664  1.1741  0.0902  2.2541
  113OSM   H18H11811  -0.152   3.587   8.635  1.5248 -1.9658  0.6711
  114OSM      N11812   1.941   1.904  11.444 -0.9929  0.2645  0.6783
  114OSM    C1511813   2.049   1.972  11.360 -0.0561 -0.4624 -0.3283
  114OSM   H15A11814   2.007   2.005  11.266 -0.9954  1.5289  0.7417
  114OSM   H15B11815   2.127   1.901  11.336 -1.7412 -3.1344  1.4400
  114OSM   H15C11816   2.095   2.055  11.410  0.7845 -0.4780 -1.0536
  114OSM    C1411817   1.885   1.790  11.373  0.3771 -0.6402  0.1811
  114OSM   H14A11818   1.815   1.823  11.298 -0.6764  1.1788  1.8819
  114OSM   H14B11819   1.823   1.737  11.444  1.8201 -1.9014  0.5513
  114OSM   H14C11820   1.958   1.719  11.337 -1.7107 -2.3572 -0.8800
  114OSM    C1311821   2.001   1.834  11.565 -0.4808  0.1297 -0.0827
  114OSM   H13A11822   2.052   1.909  11.623  0.5165  0.3467 -1.2063
  114OSM   H13B11823   2.077   1.761  11.540  1.1031  2.1598 -1.5577
  114OSM   H13C11824   1.929   1.780  11.625  0.2413  0.2462  0.9271
  114OSM    C1211825   1.837   1.994  11.488  0.7761 -0.0042 -1.0169
  114OSM   H12A11826   1.773   1.937  11.553  1.4123 -0.3122 -0.6616
  114OSM   H12B11827   1.768   2.030  11.413 -0.6966  1.2364  0.8398
  114OSM    C1111828   1.891   2.111  11.570 -0.4129 -0.2445  0.0399
  114OSM   H11A11829   1.987   2.087  11.619  0.7835  2.1570 -0.9219
  114OSM   H11B11830   1.825   2.149  11.651 -0.8044  0.8912 -0.7820
  114OSM      P11831   1.822   2.333  11.439  0.4089  0.1012  0.4527
  114OSM    O1311832   1.692   2.321  11.507 -0.5696 -0.2300 -0.0433
  114OSM    O1411833   1.891   2.466  11.447  0.0414 -0.2013  0.0457
  114OSM    O1111834   1.807   2.283  11.292 -0.5582  0.8058 -0.6259
  114OSM    O1211835   1.919   2.227  11.492 -0.5116  0.3560  0.3539
  114OSM    C1S11836   1.902   2.301  11.187  0.0302  0.5262 -0.6058
  114OSM    H1S11837   2.002   2.264  11.218 -0.4831 -1.0374 -0.7472
  114OSM    H1T11838   1.916   2.411  11.182  0.7617  0.4898  0.3217
  114OSM     NF11839   1.955   2.219  10.956 -0.5028  0.1778  0.0119
  114OSM    HNF11840   1.944   2.275  10.873 -0.1799  1.2105  0.6436
  114OSM    C2S11841   1.848   2.232  11.055 -0.4956  0.0047 -0.3125
  114OSM    H2S11842   1.815   2.133  11.091 -3.0062  0.3226 -1.5156
  114OSM    C3S11843   1.725   2.299  11.001  0.0211  0.1107 -0.6725
  114OSM    H3S11844   1.767   2.396  10.968 -1.1218  0.5246 -0.9491
  114OSM     O311845   1.632   2.337  11.101  0.8182 -0.0992  0.1330
  114OSM    HO311846   1.681   2.317  11.181  0.9991 -0.8453 -0.1495
  114OSM    C4S11847   1.661   2.233  10.888  0.1378 -0.5542  0.0283
  114OSM    H4S11848   1.627   2.129  10.898 -0.3381 -0.3499  0.6567
  114OSM    C5S11849   1.637   2.292  10.770 -0.1266  1.3694  0.3565
  114OSM    H5S11850   1.656   2.399  10.753  1.4313  0.9136 -1.0694
  114OSM    C6S11851   1.571   2.218  10.654 -0.2622 -0.7598  0.6042
  114OSM    H6S11852   1.492   2.275  10.602 -0.1167  0.7396  1.9506
  114OSM    H6T11853   1.523   2.127  10.697 -2.6364 -1.2409 -2.6896
  114OSM    C7S11854   1.683   2.181  10.548  0.1022 -0.0081  0.3172
  114OSM    H7S11855   1.744   2.101  10.594 -1.7480 -2.2125 -0.8568
  114OSM    H7T11856   1.755   2.261  10.520  1.5549 -1.8896 -1.6163
  114OSM    C8S11857   1.614   2.131  10.418 -0.4240  0.1793 -0.9923
  114OSM    H8S11858   1.536   2.208  10.398  1.7514  2.8268  0.1666
  114OSM    H8T11859   1.570   2.031  10.438 -1.5363  0.6274 -1.0689
  114OSM    C9S11860   1.715   2.119  10.303  0.1606 -0.5464  0.5037
  114OSM    H9S11861   1.810   2.067  10.329 -1.0500 -2.5038  1.2281
  114OSM    H9T11862   1.746   2.223  10.282 -2.5969 -0.0285 -1.5283
  114OSM   C10S11863   1.661   2.052  10.173 -0.0679  0.0129  0.0807
  114OSM   H10S11864   1.729   2.075  10.088 -2.4502 -0.8461 -2.1712
  114OSM   H10T11865   1.567   2.104  10.143 -0.6552 -0.9021  0.2897
  114OSM   C11S11866   1.627   1.906  10.190  0.7614  0.5744  0.7375
  114OSM   H11S11867   1.537   1.892  10.252  0.8273 -1.0393  0.5087
  114OSM   H11T11868   1.712   1.860  10.245  0.9443 -0.3167 -0.2623
  114OSM   C12S11869   1.598   1.827  10.063 -0.2875 -0.5538  0.7242
  114OSM   H12S11870   1.560   1.724  10.084 -0.7561 -0.4996  0.1846
  114OSM   H12T11871   1.687   1.820   9.996  0.0590 -1.6130  1.2632
  114OSM   C13S11872   1.482   1.897   9.984  0.3705 -0.4618 -0.2945
  114OSM   H13S11873   1.502   2.004   9.963  1.3722 -0.2958  1.3760
  114OSM   H13T11874   1.390   1.894  10.046 -0.7012  1.0343 -1.7199
  114OSM   C14S11875   1.458   1.829   9.848  0.0185 -0.4425 -0.6162
  114OSM   H14S11876   1.353   1.861   9.832  0.1284  0.1788 -0.1430
  114OSM   H14T11877   1.472   1.719   9.853  1.3907 -0.2823 -0.4438
  114OSM   C15S11878   1.540   1.893   9.736 -0.3190  0.6923 -0.1438
  114OSM   H15S11879   1.641   1.858   9.766 -0.6520  0.4899  0.7941
  114OSM   H15T11880   1.538   2.004   9.739  0.2241  0.7081  2.9540
  114OSM   C16S11881   1.503   1.836   9.598 -0.1276 -0.6600  0.2120
  114OSM   H16S11882   1.395   1.864   9.597 -0.1489 -0.7445 -0.0530
  114OSM   H16T11883   1.511   1.726   9.587 -1.0245 -0.6462 -0.7748
  114OSM   C17S11884   1.569   1.922   9.483 -0.1289  0.0503  1.0100
  114OSM   H17S11885   1.679   1.902   9.484 -0.3041 -1.2042 -0.3690
  114OSM   H17T11886   1.547   2.028   9.505  1.6318  0.8696 -0.7794
  114OSM   C18S11887   1.509   1.898   9.341  0.7749 -0.1174 -0.6104
  114OSM   H18S11888   1.401   1.871   9.350  0.6281 -0.1212 -2.1246
  114OSM   H18T11889   1.566   1.817   9.292  0.7783  0.3419 -1.3726
  114OSM   H18U11890   1.502   1.993   9.284 -1.7881 -0.9838 -1.8806
  114OSM    C1F11891   2.057   2.137  10.972 -0.7957 -0.2730  0.4093
  114OSM     OF11892   2.056   2.063  11.068 -0.1292 -0.2425 -0.2439
  114OSM    C2F11893   2.176   2.138  10.876  0.3126  0.7154 -0.0449
  114OSM    H2F11894   2.262   2.117  10.943  0.5205  1.8400  0.0534
  114OSM    H2G11895   2.194   2.234  10.825  0.9735  2.2034  2.7837
  114OSM    C3F11896   2.156   2.020  10.781 -0.1736  0.3250  0.1909
  114OSM    H3F11897   2.187   1.919  10.815 -2.2315 -0.1050  0.9577
  114OSM    H3G11898   2.209   2.044  10.686  0.7210  0.4746  0.7193
  114OSM    C4F11899   2.015   1.991  10.719  0.3955 -0.0918  0.5153
  114OSM    H4F11900   1.972   2.074  10.659  0.4500 -0.3468  0.1203
  114OSM    H4G11901   1.936   1.974  10.795 -0.3008  0.1705 -0.1357
  114OSM    C5F11902   2.026   1.864  10.627 -0.0663 -0.4868 -0.3842
  114OSM    H5F11903   1.922   1.830  10.609 -0.2005  0.6463 -2.0009
  114OSM    H5G11904   2.077   1.781  10.679 -0.1088 -2.0265 -2.6609
  114OSM    C6F11905   2.092   1.889  10.494  0.5432 -0.5360 -0.1704
  114OSM    H6F11906   2.200   1.914  10.505 -0.0208  1.3302  1.6769
  114OSM    H6G11907   2.041   1.977  10.450 -1.0775 -3.1361 -4.1008
  114OSM    C7F11908   2.052   1.766  10.408  1.1676 -0.1257  0.9045
  114OSM    H7F11909   1.941   1.767  10.402  1.2424  0.3899 -3.7870
  114OSM    H7G11910   2.074   1.671  10.461  2.6753  0.5490  1.5674
  114OSM    C8F11911   2.118   1.794  10.268 -0.3693 -0.6625 -0.1366
  114OSM    H8F11912   2.224   1.770  10.288 -0.8276 -3.4387 -0.5722
  114OSM    H8G11913   2.109   1.898  10.230  0.9487 -1.2680 -2.2720
  114OSM    C9F11914   2.049   1.713  10.158  0.5258  0.1066 -0.0621
  114OSM    H9F11915   2.011   1.619  10.200 -1.7017  0.6059 -0.8346
  114OSM   C10F11916   2.013   1.744  10.030  0.2976 -0.1752 -0.8079
  114OSM   H10F11917   1.967   1.668   9.964 -1.5021  0.3959 -0.2696
  114OSM   C11F11918   2.049   1.870   9.958  0.5338 -0.2223 -0.1160
  114OSM   H11F11919   2.154   1.881   9.922  1.2179  1.5794  2.1575
  114OSM   H11G11920   2.036   1.957  10.026  0.9897 -1.6972  1.9390
  114OSM   C12F11921   1.962   1.888   9.832  0.0533  0.5242 -0.2052
  114OSM   H12F11922   1.955   1.988   9.784 -0.7135 -0.1476 -1.5335
  114OSM   H12G11923   1.855   1.868   9.857  0.6517 -0.8919  1.4618
  114OSM   C13F11924   2.016   1.804   9.716 -0.3776 -0.3170  0.3866
  114OSM   H13F11925   2.023   1.696   9.743 -0.3568 -0.2866  0.4999
  114OSM   H13G11926   2.113   1.841   9.676 -0.1970 -1.0723  0.0977
  114OSM   C14F11927   1.912   1.811   9.598 -0.2070 -0.0216 -0.6002
  114OSM   H14F11928   1.872   1.915   9.596  0.6077  0.3045 -2.5259
  114OSM   H14G11929   1.823   1.749   9.623 -0.3835 -0.0439 -1.2578
  114OSM   C15F11930   1.955   1.782   9.462 -0.7386  0.9302  0.7266
  114OSM   H15F11931   1.867   1.815   9.402  1.6666  2.0550 -2.4602
  114OSM   H15G11932   1.970   1.673   9.445 -0.3248  0.9011  1.2350
  114OSM   C16F11933   2.074   1.865   9.402 -0.6129 -0.0458 -0.6426
  114OSM   H16F11934   2.162   1.850   9.469 -1.1698  2.6555  0.8231
  114OSM   H16G11935   2.047   1.973   9.406 -0.7688  0.1322 -3.7146
  114OSM   C17F11936   2.105   1.841   9.258  0.1182  0.8998  0.1532
  114OSM   H17F11937   2.152   1.932   9.215 -0.9859  1.1453 -0.5702
  114OSM   H17G11938   2.009   1.826   9.205  0.3460 -1.4098  0.2850
  114OSM   C18F11939   2.196   1.715   9.229  0.0022  0.2500  0.1583
  114OSM   H18F11940   2.283   1.728   9.297  0.2577  1.2667 -0.3419
  114OSM   H18G11941   2.243   1.704   9.129 -0.8686  3.1807 -0.6776
  114OSM   H18H11942   2.146   1.625   9.269 -2.0627  1.3345  0.1918
  115OSM      N11943   2.811   5.907   6.037 -0.0722 -0.6569 -0.1917
  115OSM    C1511944   2.786   5.772   5.982  0.3385  0.5904 -0.4341
  115OSM   H15A11945   2.687   5.739   6.008  0.5392  0.3408  0.0187
  115OSM   H15B11946   2.854   5.701   6.026 -0.6292 -0.3971 -0.4835
  115OSM   H15C11947   2.798   5.763   5.875 -1.4217 -0.9672 -0.5530
  115OSM    C1411948   2.939   5.966   5.990 -0.8974  0.2743 -0.5299
  115OSM   H14A11949   2.953   6.068   6.023  0.8012 -0.1013 -0.0145
  115OSM   H14B11950   2.937   5.973   5.882  2.7794  2.6187 -0.6005
  115OSM   H14C11951   3.028   5.915   6.022 -0.0682  1.5636 -0.7030
  115OSM    C1311952   2.701   5.993   5.999  1.0157 -0.1366 -0.7058
  115OSM   H13A11953   2.681   5.994   5.893  1.8346 -1.9337 -0.9161
  115OSM   H13B11954   2.720   6.093   6.033 -0.9190 -0.1907  0.6898
  115OSM   H13C11955   2.608   5.967   6.048 -0.1923  0.8425 -2.3813
  115OSM    C1211956   2.804   5.884   6.190  0.2339 -1.1153 -0.7333
  115OSM   H12A11957   2.714   5.826   6.206 -0.7795  0.4760 -0.4389
  115OSM   H12B11958   2.781   5.978   6.239  0.3496  0.2661 -3.1966
  115OSM    C1111959   2.925   5.827   6.266 -0.0346 -0.1038 -0.1329
  115OSM   H11A11960   2.915   5.823   6.376 -0.3825  0.2101 -0.1527
  115OSM   H11B11961   3.019   5.883   6.243 -0.7408 -0.1781 -3.7263
  115OSM      P11962   2.864   5.575   6.275 -0.1316  0.2889  0.3243
  115OSM    O1311963   2.731   5.582   6.215  0.3478 -0.6792 -0.3127
  115OSM    O1411964   2.937   5.442   6.282  0.5965  0.2643 -0.5379
  115OSM    O1111965   2.837   5.615   6.427  0.2373  0.1962  0.5432
  115OSM    O1211966   2.949   5.697   6.225 -0.3768  0.4045  0.1070
  115OSM    C1S11967   2.952   5.602   6.514  0.1381 -0.0070  0.3049
  115OSM    H1S11968   3.040   5.663   6.483  0.0789 -1.0053 -2.0300
  115OSM    H1T11969   2.988   5.497   6.520 -0.0156 -0.1900 -1.3702
  115OSM     NF11970   3.027   5.649   6.741 -0.4416 -0.5653 -0.1855
  115OSM    HNF11971   3.018   5.590   6.821  0.0309 -0.5223 -0.1025
  115OSM    C2S11972   2.909   5.654   6.660 -0.3723 -0.7365 -0.9022
  115OSM    H2S11973   2.876   5.759   6.645  0.9573 -0.1537  0.0519
  115OSM    C3S11974   2.787   5.576   6.718  0.2137  0.8609 -0.3464
  115OSM    H3S11975   2.816   5.469   6.727 -0.3180  0.7329 -0.1483
  115OSM     O311976   2.664   5.580   6.636 -0.5403  0.0764 -0.3609
  115OSM    HO311977   2.701   5.609   6.552  1.1470  0.2342  0.3923
  115OSM    C4S11978   2.750   5.609   6.861  0.2782  0.4105  0.0193
  115OSM    H4S11979   2.787   5.531   6.930 -1.0454  0.2726  0.6046
  115OSM    C5S11980   2.677   5.698   6.924 -0.0358  0.2455  0.1332
  115OSM    H5S11981   2.623   5.772   6.863 -2.6864 -0.7334  1.1741
  115OSM    C6S11982   2.673   5.706   7.072 -0.0659  0.1686  0.0756
  115OSM    H6S11983   2.623   5.804   7.089  1.0146  0.6645  0.5153
  115OSM    H6T11984   2.778   5.723   7.106 -0.1490  1.0964 -0.1069
  115OSM    C7S11985   2.594   5.584   7.136  0.0007 -0.5700  0.5734
  115OSM    H7S11986   2.640   5.484   7.119  0.1345 -0.2143 -1.3454
  115OSM    H7T11987   2.502   5.579   7.075 -1.3673  1.2260  2.3586
  115OSM    C8S11988   2.536   5.603   7.277 -1.1487  0.4002  0.4840
  115OSM    H8S11989   2.503   5.506   7.320  4.2855 -1.1627  1.9422
  115OSM    H8T11990   2.447   5.669   7.269 -0.6904  1.2579  2.0333
  115OSM    C9S11991   2.641   5.660   7.382 -0.2119  0.2409 -0.0431
  115OSM    H9S11992   2.585   5.672   7.477 -1.0552 -0.4824 -0.4366
  115OSM    H9T11993   2.677   5.760   7.351 -1.0833  0.6598  0.2582
  115OSM   C10S11994   2.760   5.562   7.400  0.0640 -0.2020 -0.5901
  115OSM   H10S11995   2.809   5.562   7.300  0.7576  0.2836 -0.2534
  115OSM   H10T11996   2.726   5.457   7.415 -2.5058  0.8906  2.0949
  115OSM   C11S11997   2.848   5.596   7.516 -0.2572 -0.2619  0.2259
  115OSM   H11S11998   2.883   5.699   7.494 -0.3737 -0.4777 -1.0879
  115OSM   H11T11999   2.938   5.532   7.510  0.1382  0.0545  2.2039
  115OSM   C12S12000   2.796   5.592   7.660 -0.0789 -0.2160  0.0488
  115OSM   H12S12001   2.725   5.507   7.651 -1.2659  0.7855 -0.2827
  115OSM   H12T12002   2.730   5.678   7.687  0.3487  0.2153 -0.2646
  115OSM   C13S12003   2.907   5.560   7.764 -0.2465 -0.7500  0.7992
  115OSM   H13S12004   2.997   5.619   7.740 -0.7846  1.0280  2.9193
  115OSM   H13T12005   2.930   5.453   7.745 -1.2568 -1.3988  2.8911
  115OSM   C14S12006   2.864   5.575   7.903 -0.3811 -0.3352 -0.1598
  115OSM   H14S12007   2.862   5.680   7.938  1.1571 -1.3923  3.6438
  115OSM   H14T12008   2.945   5.536   7.969  0.5180 -0.7826 -1.4870
  115OSM   C15S12009   2.747   5.492   7.950 -0.4567  0.1018  0.9526
  115OSM   H15S12010   2.758   5.395   7.897  0.5554 -0.3184  1.8984
  115OSM   H15T12011   2.656   5.542   7.911 -0.1521 -0.0883 -0.0493
  115OSM   C16S12012   2.738   5.479   8.105  0.4937  0.0451  0.1768
  115OSM   H16S12013   2.735   5.571   8.167  1.9081  1.3745 -1.6001
  115OSM   H16T12014   2.818   5.413   8.144  0.3511 -0.0507  0.3064
  115OSM   C17S12015   2.621   5.389   8.141  0.0889 -0.1262 -0.3137
  115OSM   H17S12016   2.628   5.284   8.106  1.3307  0.2840 -1.4209
  115OSM   H17T12017   2.526   5.427   8.099 -0.0959 -1.6852 -1.3860
  115OSM   C18S12018   2.592   5.390   8.297  0.4111 -0.0147 -0.0711
  115OSM   H18S12019   2.665   5.339   8.364 -1.6853 -1.4738  1.2181
  115OSM   H18T12020   2.491   5.348   8.314 -0.4134  1.9756  0.2501
  115OSM   H18U12021   2.591   5.490   8.345 -1.2165  0.2809 -0.6830
  115OSM    C1F12022   3.141   5.716   6.721  0.5621  0.4491  0.2758
  115OSM     OF12023   3.142   5.800   6.634 -0.1257  0.6976  0.2600
  115OSM    C2F12024   3.257   5.671   6.801 -0.2627 -0.5094  0.1095
  115OSM    H2F12025   3.307   5.581   6.760 -0.4651  0.7253 -3.0755
  115OSM    H2G12026   3.216   5.646   6.902 -1.6973  1.6117  0.1213
  115OSM    C3F12027   3.364   5.783   6.832  0.5795  0.9021 -0.0331
  115OSM    H3F12028   3.305   5.854   6.894  2.2531  0.3833  2.2918
  115OSM    H3G12029   3.390   5.827   6.733  0.1517 -2.7839 -1.9584
  115OSM    C4F12030   3.486   5.722   6.897 -0.2962  0.2821 -0.0284
  115OSM    H4F12031   3.557   5.669   6.830  0.1630  0.7086  0.1154
  115OSM    H4G12032   3.447   5.653   6.975 -1.5583  1.7492  0.6928
  115OSM    C5F12033   3.565   5.832   6.963 -0.0652  0.0384 -0.1272
  115OSM    H5F12034   3.592   5.916   6.895 -1.7154 -0.9388 -2.0583
  115OSM    H5G12035   3.664   5.792   6.994 -0.2414 -0.3209 -0.0308
  115OSM    C6F12036   3.492   5.895   7.089 -0.2102 -0.3405  0.4045
  115OSM    H6F12037   3.483   5.812   7.162  1.4279 -0.7571  0.1654
  115OSM    H6G12038   3.390   5.931   7.061 -0.6173 -1.4301  0.4192
  115OSM    C7F12039   3.561   6.021   7.146 -0.1596  0.4667 -0.2418
  115OSM    H7F12040   3.573   6.110   7.080  0.2134  0.5560 -0.0554
  115OSM    H7G12041   3.665   5.987   7.166 -0.1051  0.2394 -0.8694
  115OSM    C8F12042   3.492   6.063   7.273  0.3753 -0.7909 -1.0906
  115OSM    H8F12043   3.474   5.972   7.336  0.4191  0.0629  0.1924
  115OSM    H8G12044   3.387   6.097   7.261  0.4109 -0.7804 -1.3662
  115OSM    C9F12045   3.572   6.175   7.339 -0.7163  0.2768  0.1178
  115OSM    H9F12046   3.604   6.253   7.269 -0.3595 -2.2448 -2.7177
  115OSM   C10F12047   3.579   6.188   7.477 -0.0249 -0.6755  0.3772
  115OSM   H10F12048   3.637   6.274   7.513  0.7775 -0.9956 -0.1108
  115OSM   C11F12049   3.520   6.100   7.579 -0.2736  0.7005  0.4356
  115OSM   H11F12050   3.575   6.004   7.590 -1.5403 -0.4095 -1.9888
  115OSM   H11G12051   3.417   6.073   7.545 -0.3311  0.3881  0.8460
  115OSM   C12F12052   3.485   6.170   7.710 -0.4880 -0.5690 -0.8355
  115OSM   H12F12053   3.406   6.129   7.776  1.4697 -0.1495  1.9405
  115OSM   H12G12054   3.449   6.268   7.671  1.4652 -0.0697 -1.5166
  115OSM   C13F12055   3.601   6.186   7.811  0.8452  0.2758 -0.3996
  115OSM   H13F12056   3.683   6.224   7.746 -1.5855  3.0292 -2.1102
  115OSM   H13G12057   3.613   6.082   7.847 -1.6977  0.4498  1.1906
  115OSM   C14F12058   3.570   6.285   7.920 -0.0490  0.1748 -0.2003
  115OSM   H14F12059   3.508   6.371   7.887 -1.4797 -0.1328  1.5023
  115OSM   H14G12060   3.665   6.322   7.962  0.1651 -0.0840 -0.4545
  115OSM   C15F12061   3.494   6.215   8.034 -0.3724  0.3576 -0.0517
  115OSM   H15F12062   3.554   6.124   8.055 -1.4738 -0.8468 -1.8347
  115OSM   H15G12063   3.401   6.177   7.986 -0.1692  1.5673 -1.4733
  115OSM   C16F12064   3.464   6.303   8.151 -0.9156 -0.3033  0.3679
  115OSM   H16F12065   3.396   6.383   8.114  0.5456  1.0741  0.5645
  115OSM   H16G12066   3.560   6.349   8.183  0.1839 -1.9588 -0.4030
  115OSM   C17F12067   3.373   6.227   8.250 -0.3559 -0.7764 -0.5715
  115OSM   H17F12068   3.292   6.173   8.197 -1.1873 -0.1860  0.0725
  115OSM   H17G12069   3.340   6.303   8.324 -0.6076 -0.2505 -1.2232
  115OSM   C18F12070   3.447   6.121   8.338  0.1675 -0.2153 -0.5189
  115OSM   H18F12071   3.484   6.039   8.274 -1.2458 -1.9190  0.7460
  115OSM   H18G12072   3.376   6.073   8.409  2.0744 -1.0037  0.9440
  115OSM   H18H12073   3.523   6.178   8.397 -1.3834 -0.5029  1.9180
  116OSM      N12074   3.455   4.345   6.118  0.4033 -0.4833 -0.3329
  116OSM    C1512075   3.445   4.380   5.973  0.4283  0.1983  0.4095
  116OSM   H15A12076   3.496   4.472   5.949  0.1530  0.3971  0.5856
  116OSM   H15B12077   3.343   4.388   5.940 -0.1309 -1.7093  1.4876
  116OSM   H15C12078   3.484   4.300   5.911  2.9499  1.1721  0.6250
  116OSM    C1412079   3.386   4.212   6.133 -0.2591 -0.6212  0.1464
  116OSM   H14A12080   3.435   4.153   6.057  0.4505  0.5867 -0.3670
  116OSM   H14B12081   3.278   4.214   6.131 -0.4579 -2.9947  2.6708
  116OSM   H14C12082   3.415   4.176   6.231  0.3097  0.0147  0.2259
  116OSM    C1312083   3.606   4.322   6.144 -0.8171 -0.6384  0.5607
  116OSM   H13A12084   3.663   4.411   6.121 -0.9532 -0.6175  0.2966
  116OSM   H13B12085   3.648   4.248   6.078  0.5559  1.2819 -0.8229
  116OSM   H13C12086   3.616   4.287   6.246 -1.4497  2.0577  1.6410
  116OSM    C1212087   3.395   4.441   6.210  0.0799 -0.2800 -0.0413
  116OSM   H12A12088   3.453   4.532   6.205  4.5024 -2.7423  0.7574
  116OSM   H12B12089   3.411   4.420   6.315  0.0573  0.0143  0.0207
  116OSM    C1112090   3.245   4.486   6.190 -0.7125  0.3531 -0.0808
  116OSM   H11A12091   3.250   4.561   6.108 -0.7802  1.8193  1.2097
  116OSM   H11B12092   3.220   4.549   6.278 -3.4804 -0.2261 -0.3644
  116OSM      P12093   3.048   4.318   6.261 -0.2036  0.1417  0.0105
  116OSM    O1312094   2.932   4.411   6.260  0.0761  0.6574  0.7776
  116OSM    O1412095   3.023   4.176   6.220 -0.5816 -0.0675  0.2418
  116OSM    O1112096   3.121   4.312   6.400 -0.0865 -0.6725 -0.5308
  116OSM    O1212097   3.150   4.387   6.162  0.3275 -0.0335  0.3140
  116OSM    C1S12098   3.172   4.189   6.455 -0.0874 -0.2716 -0.2130
  116OSM    H1S12099   3.267   4.161   6.406 -0.1828 -0.4280 -0.3084
  116OSM    H1T12100   3.104   4.104   6.432  1.2160 -1.2675 -0.5315
  116OSM     NF12101   3.243   4.076   6.660  0.3740 -0.1675  0.2630
  116OSM    HNF12102   3.192   4.022   6.726  0.4161 -2.2687 -1.3256
  116OSM    C2S12103   3.201   4.202   6.606  0.2048  0.0263  0.8048
  116OSM    H2S12104   3.280   4.277   6.624 -0.6749  1.0749  0.3943
  116OSM    C3S12105   3.082   4.264   6.688 -0.0882 -0.2061 -0.3521
  116OSM    H3S12106   2.990   4.203   6.674  1.6454 -3.3224  0.8859
  116OSM     O312107   3.043   4.388   6.643 -0.2061  0.4030 -0.1534
  116OSM    HO312108   3.083   4.392   6.555 -0.4135 -0.6182 -0.2999
  116OSM    C4S12109   3.110   4.266   6.840  0.4557 -0.6260  1.0313
  116OSM    H4S12110   3.085   4.166   6.878 -0.2309 -1.7332 -1.9937
  116OSM    C5S12111   3.159   4.358   6.917 -0.5421 -0.4440  0.5143
  116OSM    H5S12112   3.192   4.455   6.879 -0.5977  0.4606  2.6274
  116OSM    C6S12113   3.176   4.344   7.065 -0.0808  1.5527 -0.3955
  116OSM    H6S12114   3.095   4.410   7.103 -0.4393  1.1635 -0.4772
  116OSM    H6T12115   3.268   4.394   7.101 -0.4338  1.0845  1.2223
  116OSM    C7S12116   3.168   4.204   7.132 -0.1160  0.3106 -0.1988
  116OSM    H7S12117   3.268   4.167   7.100  0.3181  0.7762  0.5752
  116OSM    H7T12118   3.086   4.141   7.092 -0.7465  0.8840  0.1630
  116OSM    C8S12119   3.168   4.213   7.287 -0.3855  0.1560  0.4348
  116OSM    H8S12120   3.069   4.261   7.301 -0.2624  1.1916 -1.7521
  116OSM    H8T12121   3.246   4.285   7.321 -0.1032 -0.3368  0.8379
  116OSM    C9S12122   3.176   4.082   7.365 -0.5654 -0.1212 -0.4912
  116OSM    H9S12123   3.276   4.034   7.358 -0.1379  0.9558 -2.5595
  116OSM    H9T12124   3.094   4.024   7.318 -0.4796 -0.6353 -0.0186
  116OSM   C10S12125   3.144   4.109   7.518 -0.0536  0.2759 -0.0142
  116OSM   H10S12126   3.126   4.010   7.564  0.2929 -0.1191 -0.7147
  116OSM   H10T12127   3.047   4.163   7.524 -0.8893 -1.2696  0.9139
  116OSM   C11S12128   3.253   4.194   7.592  0.2950  0.0835  0.3209
  116OSM   H11S12129   3.241   4.291   7.540 -1.0092 -1.4791 -2.4687
  116OSM   H11T12130   3.356   4.156   7.576  0.3460  0.7882 -1.2102
  116OSM   C12S12131   3.218   4.206   7.737 -0.1138 -0.3013  0.0151
  116OSM   H12S12132   3.112   4.237   7.737  0.3215  1.3148 -1.4328
  116OSM   H12T12133   3.282   4.288   7.777 -0.4802  0.5178 -1.0445
  116OSM   C13S12134   3.222   4.084   7.820  0.2012  0.3450  0.4952
  116OSM   H13S12135   3.311   4.023   7.793 -0.6684 -1.2691  1.1231
  116OSM   H13T12136   3.127   4.031   7.797 -0.2581  1.8074 -1.1971
  116OSM   C14S12137   3.225   4.109   7.977 -0.6906 -0.0505  0.2859
  116OSM   H14S12138   3.304   4.184   7.999 -0.8333  0.4788 -0.9114
  116OSM   H14T12139   3.253   4.014   8.028  1.4464  0.1381 -0.3976
  116OSM   C15S12140   3.092   4.174   8.022 -0.1693 -0.4580  0.3409
  116OSM   H15S12141   3.013   4.119   7.966  1.8191 -1.3012 -1.7865
  116OSM   H15T12142   3.094   4.281   7.993 -0.3645 -0.2875  0.9351
  116OSM   C16S12143   3.071   4.164   8.171  0.0519  0.3949 -0.2576
  116OSM   H16S12144   3.107   4.066   8.207 -0.7990 -0.2235 -1.0340
  116OSM   H16T12145   2.964   4.169   8.200  0.0727  0.9458 -0.2566
  116OSM   C17S12146   3.158   4.270   8.240 -0.1330 -0.4233  0.3968
  116OSM   H17S12147   3.108   4.366   8.213 -2.1003 -1.1693  1.1654
  116OSM   H17T12148   3.258   4.257   8.193 -0.7013 -1.4461 -0.5690
  116OSM   C18S12149   3.167   4.241   8.386 -0.4849  0.4665  0.7858
  116OSM   H18S12150   3.064   4.235   8.428 -1.0229 -0.4206 -0.5744
  116OSM   H18T12151   3.207   4.331   8.436 -0.6607  1.7552 -1.2545
  116OSM   H18U12152   3.220   4.150   8.421 -2.3482 -2.6351 -3.4387
  116OSM    C1F12153   3.362   4.031   6.628  0.4445  0.0275 -0.2980
  116OSM     OF12154   3.429   4.081   6.536 -0.0211  0.4647  0.8447
  116OSM    C2F12155   3.401   3.908   6.712  0.0405  0.3965 -0.5040
  116OSM    H2F12156   3.508   3.892   6.687  0.2702 -2.2501  1.6620
  116OSM    H2G12157   3.347   3.814   6.687  0.5062 -0.2444  0.8118
  116OSM    C3F12158   3.398   3.935   6.872  0.1787 -0.2004  0.1041
  116OSM    H3F12159   3.295   3.967   6.901 -0.4225 -1.1040 -0.9561
  116OSM    H3G12160   3.467   4.021   6.884  1.6495 -1.5066  1.5343
  116OSM    C4F12161   3.442   3.824   6.970 -0.1581  1.0599  0.0711
  116OSM    H4F12162   3.489   3.876   7.057  1.4691  1.9926 -1.2939
  116OSM    H4G12163   3.519   3.760   6.921 -0.6226 -0.0803  0.7860
  116OSM    C5F12164   3.322   3.746   7.012  0.3039  0.1222  0.5783
  116OSM    H5F12165   3.254   3.734   6.924 -1.1411  1.0003  1.5255
  116OSM    H5G12166   3.271   3.784   7.103 -1.2589 -0.7174  0.1037
  116OSM    C6F12167   3.360   3.606   7.044 -0.4205  0.4085 -0.4859
  116OSM    H6F12168   3.439   3.569   6.975 -0.1515 -0.6270  0.3571
  116OSM    H6G12169   3.268   3.544   7.030 -0.1885  0.1950 -1.1200
  116OSM    C7F12170   3.404   3.581   7.191  0.5080 -0.2967  0.5911
  116OSM    H7F12171   3.357   3.638   7.274 -1.5589 -1.2688  0.1559
  116OSM    H7G12172   3.513   3.604   7.192  0.6559 -0.8121 -1.0510
  116OSM    C8F12173   3.392   3.433   7.241 -0.1061  0.0513 -0.2762
  116OSM    H8F12174   3.467   3.416   7.320 -0.3696  3.0787  0.7617
  116OSM    H8G12175   3.418   3.368   7.155 -0.1763  0.0194 -0.2741
  116OSM    C9F12176   3.257   3.408   7.300  0.8770 -0.0264 -0.2281
  116OSM    H9F12177   3.181   3.379   7.226  0.7521 -0.8025  0.1933
  116OSM   C10F12178   3.232   3.410   7.430  0.2088 -0.8923 -0.9931
  116OSM   H10F12179   3.127   3.389   7.458  0.8528 -1.9474  0.8380
  116OSM   C11F12180   3.321   3.442   7.545  0.0419 -0.4418 -0.2310
  116OSM   H11F12181   3.430   3.432   7.524  0.1463  0.0338  0.0849
  116OSM   H11G12182   3.295   3.370   7.626  0.9361 -2.0133 -1.2869
  116OSM   C12F12183   3.293   3.580   7.609 -0.5195 -0.7977 -0.6283
  116OSM   H12F12184   3.190   3.591   7.649  0.5257  1.5846  1.7480
  116OSM   H12G12185   3.304   3.660   7.534  2.5118 -1.1835 -0.7332
  116OSM   C13F12186   3.380   3.607   7.729 -0.6358 -0.1810 -0.4632
  116OSM   H13F12187   3.352   3.704   7.774  2.3784  0.6474 -0.1053
  116OSM   H13G12188   3.488   3.615   7.702 -0.0463 -0.3208  1.7133
  116OSM   C14F12189   3.384   3.502   7.846 -0.2655 -0.0383  0.1917
  116OSM   H14F12190   3.441   3.416   7.806 -0.5374  0.3775 -1.1536
  116OSM   H14G12191   3.283   3.467   7.873 -0.9615  2.2984  0.8952
  116OSM   C15F12192   3.454   3.556   7.976  0.1312 -0.1465  0.4984
  116OSM   H15F12193   3.394   3.641   8.014  0.7395  0.7393 -0.4563
  116OSM   H15G12194   3.554   3.589   7.942  0.4412 -0.1625  1.3697
  116OSM   C16F12195   3.470   3.448   8.078  0.4726 -0.2880 -0.6855
  116OSM   H16F12196   3.545   3.474   8.155 -1.2897 -1.3871  1.5398
  116OSM   H16G12197   3.493   3.351   8.029  0.9027 -0.5692  0.0434
  116OSM   C17F12198   3.347   3.422   8.162  0.1820 -0.3707 -0.2142
  116OSM   H17F12199   3.277   3.374   8.090 -2.2104  0.2701  1.5436
  116OSM   H17G12200   3.299   3.518   8.189 -1.1056 -0.8287 -0.7766
  116OSM   C18F12201   3.359   3.331   8.280 -0.1696 -0.4466  0.3241
  116OSM   H18F12202   3.265   3.318   8.337  0.4345 -1.5827  1.0832
  116OSM   H18G12203   3.439   3.377   8.343 -0.2750  0.1072  0.0667
  116OSM   H18H12204   3.394   3.230   8.249 -0.3588 -0.4721  0.1935
  117OSM      N12205   1.363   6.014   6.224 -0.4083  0.2998  0.0511
  117OSM    C1512206   1.325   5.912   6.322 -0.5298 -0.1567 -0.0817
  117OSM   H15A12207   1.304   5.955   6.418  0.1225  0.0871 -0.0408
  117OSM   H15B12208   1.395   5.833   6.344 -1.4460 -0.7768  0.6569
  117OSM   H15C12209   1.240   5.854   6.291 -0.6598  0.1334 -0.2782
  117OSM    C1412210   1.506   6.062   6.241 -0.0998  0.5055  0.1755
  117OSM   H14A12211   1.520   6.147   6.175 -3.8332  1.5610  0.4933
  117OSM   H14B12212   1.585   5.991   6.222 -0.1155  0.9895 -2.0074
  117OSM   H14C12213   1.522   6.106   6.338  1.0627  0.3194  0.0858
  117OSM    C1312214   1.345   5.943   6.090 -0.5366  0.5066  0.4141
  117OSM   H13A12215   1.386   6.006   6.012  0.7784 -2.2322 -1.2515
  117OSM   H13B12216   1.246   5.906   6.068 -0.2651 -0.9886  1.5714
  117OSM   H13C12217   1.414   5.861   6.084 -0.9524  0.1039  1.0588
  117OSM    C1212218   1.272   6.131   6.233  0.3573 -0.7643 -0.2043
  117OSM   H12A12219   1.172   6.106   6.200  0.0036  2.2069 -1.7196
  117OSM   H12B12220   1.293   6.198   6.150 -1.7009 -1.3164 -1.2375
  117OSM    C1112221   1.261   6.196   6.374 -0.5921  0.1321  0.0144
  117OSM   H11A12222   1.362   6.211   6.416  0.0514 -0.5910 -1.2069
  117OSM   H11B12223   1.203   6.121   6.432  0.3826 -0.1420  0.6541
  117OSM      P12224   1.252   6.450   6.349 -0.1726 -0.3352 -0.1925
  117OSM    O1312225   1.382   6.446   6.294 -0.1650 -0.1548  1.2541
  117OSM    O1412226   1.162   6.556   6.295 -1.3390 -0.0831 -0.3277
  117OSM    O1112227   1.277   6.493   6.500 -0.1248  0.3927 -0.2284
  117OSM    O1212228   1.182   6.310   6.351 -0.4120  0.4192 -0.1122
  117OSM    C1S12229   1.196   6.437   6.603 -0.1680  0.2556 -0.5660
  117OSM    H1S12230   1.231   6.333   6.621 -2.8658 -0.5481  0.5205
  117OSM    H1T12231   1.091   6.419   6.570  0.2656 -1.0752 -1.2782
  117OSM     NF12232   1.153   6.448   6.842  0.3107 -0.3107 -0.1487
  117OSM    HNF12233   1.058   6.450   6.871  0.0180 -2.4691 -0.7532
  117OSM    C2S12234   1.188   6.528   6.727  0.5219  0.4027  0.2176
  117OSM    H2S12235   1.292   6.566   6.736  0.4764  0.0611  2.9964
  117OSM    C3S12236   1.094   6.644   6.691  0.4608 -0.2424 -0.0120
  117OSM    H3S12237   0.991   6.602   6.687  1.1169 -1.8252 -1.6736
  117OSM     O312238   1.107   6.697   6.564 -0.3368  0.1638  0.0768
  117OSM    HO312239   1.171   6.636   6.526  0.6880  0.6790  0.9287
  117OSM    C4S12240   1.094   6.747   6.799 -0.6782 -0.0149  0.6927
  117OSM    H4S12241   1.196   6.781   6.822 -1.2423  4.2255 -1.9526
  117OSM    C5S12242   0.991   6.801   6.864  0.3379 -0.1839  0.0185
  117OSM    H5S12243   0.890   6.761   6.846  0.4944 -0.5790  0.0177
  117OSM    C6S12244   1.023   6.901   6.972  0.0205 -0.2756  0.8589
  117OSM    H6S12245   0.933   6.963   6.990 -1.3533 -1.3001 -1.9571
  117OSM    H6T12246   1.102   6.973   6.944 -0.8178  0.6129  0.7327
  117OSM    C7S12247   1.086   6.834   7.091  0.5622 -0.5696  0.0867
  117OSM    H7S12248   1.191   6.802   7.074  0.4118 -0.4270 -1.1958
  117OSM    H7T12249   1.020   6.757   7.137  0.4155 -1.3207 -1.3075
  117OSM    C8S12250   1.110   6.940   7.207  0.1981  0.6427  0.0191
  117OSM    H8S12251   1.017   6.999   7.225  0.3020  1.1791 -1.0885
  117OSM    H8T12252   1.180   7.020   7.175  0.5725 -0.5392 -2.3756
  117OSM    C9S12253   1.149   6.879   7.342 -0.1585  0.3456 -0.7812
  117OSM    H9S12254   1.242   6.819   7.339 -1.2230 -1.5118  0.8698
  117OSM    H9T12255   1.071   6.812   7.385  1.1813 -1.8624 -1.6267
  117OSM   C10S12256   1.178   6.992   7.438  0.1292 -0.6748 -0.7549
  117OSM   H10S12257   1.109   7.068   7.397  0.8046 -0.1257 -0.8842
  117OSM   H10T12258   1.277   7.039   7.423 -0.2608  0.4899  0.1588
  117OSM   C11S12259   1.148   6.964   7.580  0.4515  0.0712  0.3712
  117OSM   H11S12260   1.206   6.873   7.607 -1.2149 -1.7255 -1.7703
  117OSM   H11T12261   1.043   6.935   7.600  0.0214  2.1276  1.4070
  117OSM   C12S12262   1.178   7.091   7.657 -0.7533 -0.1763  0.6585
  117OSM   H12S12263   1.141   7.186   7.613  0.3010  0.5675  1.3137
  117OSM   H12T12264   1.289   7.101   7.646 -0.8410  0.6143  0.3841
  117OSM   C13S12265   1.140   7.087   7.800 -0.0041 -0.4332  0.4034
  117OSM   H13S12266   1.031   7.065   7.801 -0.5566  2.0211  0.5253
  117OSM   H13T12267   1.159   7.182   7.855  1.0793 -0.5155  0.1918
  117OSM   C14S12268   1.214   6.981   7.879  0.5183  0.7889 -0.2974
  117OSM   H14S12269   1.320   6.979   7.848  0.5689 -1.1394 -0.1507
  117OSM   H14T12270   1.178   6.878   7.855  4.2458 -0.5389 -0.8916
  117OSM   C15S12271   1.214   6.986   8.034 -0.7935 -0.4659 -0.0162
  117OSM   H15S12272   1.225   7.093   8.063  1.4744 -0.9664  1.1662
  117OSM   H15T12273   1.307   6.949   8.081  1.3097  1.2054 -2.5420
  117OSM   C16S12274   1.088   6.935   8.098 -0.2722  0.4495  0.0044
  117OSM   H16S12275   1.009   6.944   8.020 -1.5436  0.7789  1.3008
  117OSM   H16T12276   1.058   7.003   8.181  0.9361  1.9918 -0.7616
  117OSM   C17S12277   1.102   6.791   8.153 -0.1489  0.1909 -0.0971
  117OSM   H17S12278   1.013   6.782   8.219  1.0972 -0.1174  1.5953
  117OSM   H17T12279   1.189   6.793   8.222 -0.0235 -1.4883 -0.1659
  117OSM   C18S12280   1.118   6.671   8.054  0.2094 -0.3617  0.4794
  117OSM   H18S12281   1.222   6.676   8.016  0.4725 -1.3198  1.0287
  117OSM   H18T12282   1.031   6.688   7.987 -0.4996  0.8077  1.6511
  117OSM   H18U12283   1.103   6.568   8.094  2.2114 -0.6167  0.6782
  117OSM    C1F12284   1.237   6.361   6.893 -0.2084 -0.0731 -0.5564
  117OSM     OF12285   1.357   6.376   6.877  0.1551  0.2654  0.1825
  117OSM    C2F12286   1.181   6.261   6.981 -0.9546 -0.4540 -0.6691
  117OSM    H2F12287   1.082   6.221   6.951 -2.1046  0.2901  1.8466
  117OSM    H2G12288   1.163   6.311   7.078  1.7066 -0.7558  0.0793
  117OSM    C3F12289   1.277   6.146   7.015  0.3185  0.2029  0.6013
  117OSM    H3F12290   1.358   6.176   7.085  0.3382 -0.5641  0.9153
  117OSM    H3G12291   1.327   6.099   6.928  0.4040 -0.9331  1.2471
  117OSM    C4F12292   1.214   6.027   7.088 -0.5623 -0.0603 -0.3374
  117OSM    H4F12293   1.299   5.963   7.121 -0.4094  0.2801 -0.0667
  117OSM    H4G12294   1.161   5.969   7.010  0.1797 -2.8688  1.1129
  117OSM    C5F12295   1.120   6.062   7.199  0.1978  0.1192  0.3166
  117OSM    H5F12296   1.068   5.967   7.224 -0.6149  0.2738 -0.6763
  117OSM    H5G12297   1.042   6.135   7.166 -1.7617 -2.1763 -0.4186
  117OSM    C6F12298   1.194   6.113   7.325  0.4185  0.2965  0.3424
  117OSM    H6F12299   1.121   6.138   7.405  1.1547 -0.5311  1.2960
  117OSM    H6G12300   1.264   6.198   7.308  0.3008  0.4374  0.5643
  117OSM    C7F12301   1.286   6.012   7.395  0.3591 -0.6052  0.6540
  117OSM    H7F12302   1.369   5.981   7.329  0.8425 -0.6133  1.2634
  117OSM    H7G12303   1.226   5.922   7.419  1.2000 -1.1185  0.8363
  117OSM    C8F12304   1.339   6.068   7.531  0.0977  0.4108  0.6461
  117OSM    H8F12305   1.363   5.975   7.587  0.0092 -0.6818 -1.0642
  117OSM    H8G12306   1.251   6.120   7.574 -0.0503 -0.1864  1.0835
  117OSM    C9F12307   1.452   6.165   7.529 -0.2868 -0.5254 -0.1915
  117OSM    H9F12308   1.425   6.254   7.470 -0.9876 -0.1101  0.7272
  117OSM   C10F12309   1.554   6.169   7.618  0.4611  0.0202 -0.4473
  117OSM   H10F12310   1.641   6.234   7.604  1.4562 -0.2097  3.5555
  117OSM   C11F12311   1.584   6.077   7.736 -0.7609 -0.1630  0.1295
  117OSM   H11F12312   1.499   6.012   7.767 -1.9716  1.2103 -0.2189
  117OSM   H11G12313   1.599   6.138   7.828 -0.5297 -1.6466  1.1128
  117OSM   C12F12314   1.711   6.002   7.699  0.2363 -0.4156 -0.3193
  117OSM   H12F12315   1.794   6.066   7.663  1.3115 -1.6744 -0.1345
  117OSM   H12G12316   1.690   5.922   7.625 -0.5228 -1.2142  0.7166
  117OSM   C13F12317   1.783   5.942   7.828 -0.5594  0.5398 -0.9685
  117OSM   H13F12318   1.709   5.866   7.861  0.0822 -0.1081 -1.0141
  117OSM   H13G12319   1.780   6.021   7.906 -2.6429 -0.7835  0.3907
  117OSM   C14F12320   1.917   5.884   7.782  0.3377  0.2768 -0.7167
  117OSM   H14F12321   1.992   5.948   7.730  0.5149 -2.1019 -3.6667
  117OSM   H14G12322   1.887   5.804   7.711 -1.8434 -1.1158  1.6139
  117OSM   C15F12323   2.001   5.812   7.897  1.0919 -0.2942  0.1871
  117OSM   H15F12324   2.106   5.795   7.865  0.5419 -0.1048 -1.8473
  117OSM   H15G12325   1.958   5.711   7.915 -0.5630  0.1842 -0.8933
  117OSM   C16F12326   1.995   5.879   8.040 -0.1037  0.8974 -0.1927
  117OSM   H16F12327   2.019   5.796   8.109  0.5773  0.1915 -1.2441
  117OSM   H16G12328   1.895   5.922   8.060  0.8832  3.2058  0.1305
  117OSM   C17F12329   2.109   5.988   8.063 -0.3210  0.0741 -0.2355
  117OSM   H17F12330   2.207   5.937   8.068 -0.5471 -0.3131  0.3753
  117OSM   H17G12331   2.112   6.060   7.978 -1.4436 -1.3016 -1.4888
  117OSM   C18F12332   2.077   6.075   8.183  0.8920  0.2011 -0.4791
  117OSM   H18F12333   2.111   6.180   8.171 -2.2813  1.1575 -2.5374
  117OSM   H18G12334   2.113   6.024   8.275  2.0944 -0.6513 -1.4014
  117OSM   H18H12335   1.966   6.077   8.192  0.8443 -1.2667 -0.3890
  118OSM      N12336   3.524   1.601   5.768 -0.3885 -0.0049  0.2946
  118OSM    C1512337   3.430   1.617   5.653  0.3690  0.5098  0.1613
  118OSM   H15A12338   3.333   1.585   5.686  0.6787  0.3487  0.9290
  118OSM   H15B12339   3.455   1.560   5.564 -2.4246 -0.4048 -0.1431
  118OSM   H15C12340   3.417   1.722   5.630  0.4404  0.5724  0.4108
  118OSM    C1412341   3.661   1.627   5.714 -0.9946 -0.0204 -0.0436
  118OSM   H14A12342   3.737   1.615   5.790  1.0661  1.7050 -1.6848
  118OSM   H14B12343   3.675   1.727   5.677 -0.9897  0.2061  0.5747
  118OSM   H14C12344   3.677   1.564   5.627 -2.4768 -0.4641 -0.0255
  118OSM    C1312345   3.497   1.706   5.867 -0.6393 -0.1740  0.4948
  118OSM   H13A12346   3.407   1.679   5.920 -1.3313 -1.4671 -1.2416
  118OSM   H13B12347   3.496   1.806   5.825 -1.2711 -0.5729 -0.4636
  118OSM   H13C12348   3.573   1.703   5.943 -0.4551  1.2631  0.4011
  118OSM    C1212349   3.501   1.465   5.820 -0.0256 -0.4339 -0.0302
  118OSM   H12A12350   3.524   1.397   5.739 -0.0137  1.2249 -1.4903
  118OSM   H12B12351   3.400   1.453   5.855  0.4060  0.0070  1.4381
  118OSM    C1112352   3.588   1.440   5.937 -0.0979  0.2159 -0.3305
  118OSM   H11A12353   3.584   1.513   6.021 -4.0376  2.4238 -2.1030
  118OSM   H11B12354   3.697   1.436   5.920  0.7098  0.3417  3.7757
  118OSM      P12355   3.426   1.280   6.071 -0.3221  0.5356  0.6317
  118OSM    O1312356   3.315   1.314   5.979  0.1954 -0.2476  0.0151
  118OSM    O1412357   3.423   1.144   6.128 -0.3300  0.0554 -0.3229
  118OSM    O1112358   3.435   1.382   6.190 -0.0087  0.2915  0.6918
  118OSM    O1212359   3.554   1.310   5.983  0.5005 -0.1083  0.0847
  118OSM    C1S12360   3.320   1.442   6.251 -0.2536 -0.2941 -0.1033
  118OSM    H1S12361   3.233   1.444   6.182 -2.3539  0.7958  2.4258
  118OSM    H1T12362   3.334   1.549   6.278 -1.8352  0.5106 -2.2228
  118OSM     NF12363   3.158   1.409   6.447  0.6331 -0.9047  0.4966
  118OSM    HNF12364   3.157   1.482   6.516 -1.4868  1.1089 -1.4567
  118OSM    C2S12365   3.290   1.378   6.393  0.4653 -0.4697 -0.5827
  118OSM    H2S12366   3.303   1.268   6.382  2.5108 -0.4364  0.9061
  118OSM    C3S12367   3.410   1.413   6.492  0.3349  0.3647 -0.0732
  118OSM    H3S12368   3.425   1.523   6.490  0.0138  0.4387  0.8873
  118OSM     O312369   3.537   1.362   6.449 -0.3045  0.3714  0.8577
  118OSM    HO312370   3.530   1.347   6.355 -0.8300 -2.2052  1.2171
  118OSM    C4S12371   3.385   1.358   6.630 -0.4445 -0.1938  0.2268
  118OSM    H4S12372   3.368   1.249   6.627 -0.1012 -0.2530  0.3783
  118OSM    C5S12373   3.371   1.432   6.744 -0.4469  0.3998 -0.0784
  118OSM    H5S12374   3.385   1.540   6.731 -2.5223  0.6303 -0.7319
  118OSM    C6S12375   3.341   1.381   6.881  0.1684  0.2909  0.6599
  118OSM    H6S12376   3.422   1.416   6.947  2.2239 -2.7024 -0.0797
  118OSM    H6T12377   3.333   1.270   6.885 -0.8946  0.3340  0.1459
  118OSM    C7S12378   3.205   1.431   6.928  0.5935  0.1787 -0.1676
  118OSM    H7S12379   3.119   1.387   6.872  0.0528  1.0799 -0.0749
  118OSM    H7T12380   3.189   1.539   6.909 -0.6229  0.2656  1.1353
  118OSM    C8S12381   3.192   1.417   7.081 -0.7425 -0.3763 -0.2720
  118OSM    H8S12382   3.209   1.313   7.115 -2.4177 -0.1913  1.3263
  118OSM    H8T12383   3.088   1.448   7.105 -0.0100  1.0622  1.3143
  118OSM    C9S12384   3.283   1.515   7.166 -0.6181 -0.2066 -0.1801
  118OSM    H9S12385   3.270   1.616   7.122 -1.6848 -0.7299 -1.1476
  118OSM    H9T12386   3.389   1.485   7.156 -0.4383  0.3952 -0.1075
  118OSM   C10S12387   3.249   1.530   7.318 -0.6785  0.3875  0.4364
  118OSM   H10S12388   3.142   1.553   7.341 -0.1327  3.2970  0.3383
  118OSM   H10T12389   3.291   1.628   7.348  0.3490  0.2657 -0.5470
  118OSM   C11S12390   3.305   1.423   7.414 -0.1655  0.1856  0.0014
  118OSM   H11S12391   3.410   1.387   7.409  0.2483  1.3887 -0.1729
  118OSM   H11T12392   3.258   1.323   7.399 -0.6170  0.4538 -0.4066
  118OSM   C12S12393   3.274   1.474   7.561  0.1533 -0.6516  0.0765
  118OSM   H12S12394   3.174   1.524   7.562 -0.0555 -0.8781 -2.5128
  118OSM   H12T12395   3.337   1.562   7.582  1.7882 -1.5193 -0.9838
  118OSM   C13S12396   3.273   1.367   7.672  0.0260  0.6766  0.8052
  118OSM   H13S12397   3.376   1.326   7.666 -0.4799 -0.5477  0.1051
  118OSM   H13T12398   3.205   1.281   7.662  0.9003  0.0854 -0.3104
  118OSM   C14S12399   3.242   1.432   7.811 -0.5733  0.3951 -0.6898
  118OSM   H14S12400   3.146   1.488   7.809 -0.3208  0.9139  0.9229
  118OSM   H14T12401   3.319   1.510   7.825  0.5305 -0.7636 -0.1538
  118OSM   C15S12402   3.234   1.324   7.920  0.1916  0.0463  0.0142
  118OSM   H15S12403   3.322   1.257   7.920  1.3297  1.5013  0.4995
  118OSM   H15T12404   3.141   1.272   7.889  0.6606 -1.8749  1.6636
  118OSM   C16S12405   3.231   1.376   8.064 -1.4574  0.1287  0.4345
  118OSM   H16S12406   3.139   1.433   8.090  0.0034  2.1213  1.5161
  118OSM   H16T12407   3.316   1.444   8.088 -0.9216 -0.5818  0.5875
  118OSM   C17S12408   3.240   1.272   8.175  0.5776 -0.5191 -0.1566
  118OSM   H17S12409   3.233   1.321   8.274 -1.5716 -1.2560  0.1243
  118OSM   H17T12410   3.340   1.225   8.175  1.3187  1.0084  0.2093
  118OSM   C18S12411   3.125   1.169   8.180 -0.8338  0.3231  0.1421
  118OSM   H18S12412   3.108   1.135   8.075  1.9434  1.3322 -0.7242
  118OSM   H18T12413   3.036   1.217   8.225  0.2685  0.2723  2.5062
  118OSM   H18U12414   3.165   1.096   8.254  1.2624  0.5617 -0.6830
  118OSM    C1F12415   3.045   1.360   6.400 -0.3704 -0.4172  0.1068
  118OSM     OF12416   3.045   1.286   6.303 -0.1885 -0.0528  0.0961
  118OSM    C2F12417   2.919   1.417   6.447  0.7324 -0.4466 -0.9958
  118OSM    H2F12418   2.858   1.429   6.355 -1.6721 -4.3427 -0.1339
  118OSM    H2G12419   2.937   1.511   6.503 -0.4546 -0.4668 -0.5580
  118OSM    C3F12420   2.835   1.329   6.538 -0.6164 -0.1554 -0.1207
  118OSM    H3F12421   2.824   1.232   6.484  0.3493  0.1953 -0.9877
  118OSM    H3G12422   2.729   1.363   6.540 -0.9411 -1.1227 -0.5046
  118OSM    C4F12423   2.891   1.320   6.677 -0.7230  0.0984 -0.2364
  118OSM    H4F12424   2.982   1.383   6.688 -0.2875  0.0357 -2.7716
  118OSM    H4G12425   2.936   1.220   6.696 -1.5571 -0.2673 -0.1388
  118OSM    C5F12426   2.787   1.332   6.790 -0.5952 -0.4331  0.0508
  118OSM    H5F12427   2.715   1.250   6.769  0.0248 -0.9816  0.0506
  118OSM    H5G12428   2.735   1.429   6.771 -0.8685 -0.2280  1.7369
  118OSM    C6F12429   2.847   1.333   6.928 -0.2404  0.6539  0.5463
  118OSM    H6F12430   2.894   1.432   6.948  0.0666  0.5347  0.4283
  118OSM    H6G12431   2.913   1.244   6.929 -2.1204 -1.0050 -3.0905
  118OSM    C7F12432   2.737   1.308   7.030  0.3440 -0.2628  0.4509
  118OSM    H7F12433   2.662   1.234   6.997 -1.0832  0.8697  1.0802
  118OSM    H7G12434   2.677   1.401   7.042  2.3052  1.4406 -1.6745
  118OSM    C8F12435   2.779   1.253   7.165  0.0114  0.4309  0.2863
  118OSM    H8F12436   2.880   1.292   7.190  0.5101 -0.4976 -0.2378
  118OSM    H8G12437   2.792   1.143   7.163  0.6047  0.3962  2.6227
  118OSM    C9F12438   2.685   1.286   7.275  0.1117 -0.2872 -0.3337
  118OSM    H9F12439   2.584   1.301   7.234 -0.8251 -2.6855  0.8497
  118OSM   C10F12440   2.704   1.314   7.407  0.0603 -0.0621  0.4642
  118OSM   H10F12441   2.613   1.321   7.469 -2.5756  2.2142 -3.2003
  118OSM   C11F12442   2.838   1.310   7.467 -0.5598 -0.2011 -0.3856
  118OSM   H11F12443   2.902   1.401   7.461  0.0327 -0.6581 -1.0615
  118OSM   H11G12444   2.896   1.226   7.424  0.5479 -0.1495  0.9304
  118OSM   C12F12445   2.835   1.263   7.611 -0.0755 -0.0018  0.1408
  118OSM   H12F12446   2.934   1.218   7.631  0.6749  1.8946  1.0171
  118OSM   H12G12447   2.766   1.177   7.621 -2.1219  1.6386  1.1270
  118OSM   C13F12448   2.842   1.381   7.719  0.2117 -0.5013  0.2237
  118OSM   H13F12449   2.758   1.452   7.708  0.5658  0.6561  3.7331
  118OSM   H13G12450   2.939   1.434   7.726  1.6520 -3.1418  2.4969
  118OSM   C14F12451   2.833   1.336   7.866  0.4313  0.4741 -0.1703
  118OSM   H14F12452   2.902   1.250   7.880 -1.6211 -1.2330  0.1420
  118OSM   H14G12453   2.733   1.287   7.871  0.5940  0.2341  0.8968
  118OSM   C15F12454   2.852   1.446   7.967 -0.5318 -0.1256 -0.4065
  118OSM   H15F12455   2.777   1.516   7.927 -0.8535 -1.0344 -1.4402
  118OSM   H15G12456   2.955   1.488   7.958 -0.2637 -0.2513  1.5611
  118OSM   C16F12457   2.817   1.411   8.119 -0.3151 -0.1554  0.0223
  118OSM   H16F12458   2.875   1.321   8.148  1.9345  1.1282 -0.3047
  118OSM   H16G12459   2.706   1.401   8.126 -0.2616  0.1062  1.5211
  118OSM   C17F12460   2.862   1.529   8.212 -0.1823 -0.3414  0.0757
  118OSM   H17F12461   2.873   1.625   8.157  2.9967 -0.0610  0.9602
  118OSM   H17G12462   2.967   1.505   8.240  0.1115 -0.1490 -0.8338
  118OSM   C18F12463   2.787   1.557   8.348  0.8367 -0.7841 -0.8555
  118OSM   H18F12464   2.700   1.621   8.324  1.2815  0.9227  1.6849
  118OSM   H18G12465   2.842   1.607   8.430  0.5845  0.8210 -1.6224
  118OSM   H18H12466   2.751   1.466   8.402 -2.5033  0.9519  0.1068
  119OSM      N12467   4.994   1.733   5.765  0.3138  0.2062 -0.1929
  119OSM    C1512468   5.130   1.690   5.704  0.2143 -0.2048  0.0914
  119OSM   H15A12469   5.134   1.584   5.685  0.3154  0.0739 -1.6506
  119OSM   H15B12470   5.211   1.716   5.771 -0.2514 -1.1294  1.0451
  119OSM   H15C12471   5.152   1.755   5.620  3.4534 -0.1122  0.8615
  119OSM    C1412472   4.979   1.876   5.751  0.2962 -0.6075 -0.1847
  119OSM   H14A12473   4.993   1.921   5.655  0.9745 -2.3731 -0.9544
  119OSM   H14B12474   5.065   1.913   5.804  0.4762 -0.7133 -0.4029
  119OSM   H14C12475   4.892   1.916   5.801 -0.8786 -1.3916 -1.5231
  119OSM    C1312476   4.886   1.663   5.689  1.3033 -0.3830  0.4191
  119OSM   H13A12477   4.782   1.681   5.711  0.9216 -0.0996 -1.4165
  119OSM   H13B12478   4.911   1.558   5.689  0.0523 -0.7726  3.2580
  119OSM   H13C12479   4.885   1.703   5.589 -0.8075 -1.0927  0.0965
  119OSM    C1212480   4.995   1.689   5.910  0.8887 -0.4718  0.1443
  119OSM   H12A12481   5.031   1.588   5.914  3.1617  0.2514 -0.5527
  119OSM   H12B12482   4.898   1.682   5.957 -0.1748  2.5141 -1.3672
  119OSM    C1112483   5.080   1.785   6.002  0.2617  0.3060 -0.6482
  119OSM   H11A12484   5.071   1.743   6.105  1.7451  1.3768 -0.0450
  119OSM   H11B12485   5.048   1.891   6.018  4.4297  1.3047  3.0939
  119OSM      P12486   5.318   1.892   5.975  0.2036  0.1418  0.1987
  119OSM    O1312487   5.441   1.858   5.895  0.6290  0.0752 -0.3146
  119OSM    O1412488   5.245   2.012   5.934  0.2139  0.2270  0.1549
  119OSM    O1112489   5.366   1.913   6.124  0.1631  0.2071  0.2039
  119OSM    O1212490   5.218   1.777   5.969 -0.8402 -0.6230 -0.4103
  119OSM    C1S12491   5.358   1.805   6.223  0.2575  0.1323 -0.1467
  119OSM    H1S12492   5.460   1.760   6.219 -0.0762 -0.6594  0.0298
  119OSM    H1T12493   5.294   1.719   6.194  1.5159 -1.0240  0.3713
  119OSM     NF12494   5.350   1.749   6.464  0.7911 -0.5306  0.6341
  119OSM    HNF12495   5.273   1.711   6.515 -0.9819 -0.3212 -1.6887
  119OSM    C2S12496   5.318   1.857   6.365 -0.3159  1.1248  0.0018
  119OSM    H2S12497   5.390   1.936   6.396  0.5417  0.8251 -1.1400
  119OSM    C3S12498   5.179   1.911   6.378 -0.2183 -0.4555  0.4738
  119OSM    H3S12499   5.108   1.826   6.373 -1.0036  0.2190 -3.2233
  119OSM     O312500   5.152   1.996   6.269 -0.0876  0.2901 -0.5371
  119OSM    HO312501   5.218   1.976   6.202 -0.0108 -0.9204 -0.1304
  119OSM    C4S12502   5.147   1.983   6.505 -0.2319 -0.1201 -0.3984
  119OSM    H4S12503   5.213   2.061   6.546  0.6477 -0.8029 -0.4665
  119OSM    C5S12504   5.039   1.956   6.577  0.2593 -0.2703 -0.4959
  119OSM    H5S12505   4.970   1.879   6.538 -0.5809 -0.0057  0.4188
  119OSM    C6S12506   4.994   2.011   6.708 -0.3197  0.4752 -0.2823
  119OSM    H6S12507   4.888   1.992   6.736  0.6054 -2.8486  1.5178
  119OSM    H6T12508   4.995   2.122   6.710  0.0607  0.4713 -0.3466
  119OSM    C7S12509   5.088   1.967   6.832  0.6777  0.3747 -0.0840
  119OSM    H7S12510   5.198   1.982   6.819  1.4103 -3.1461  1.0814
  119OSM    H7T12511   5.071   1.859   6.847 -0.3520  0.4911 -0.3343
  119OSM    C8S12512   5.047   2.027   6.971 -0.6285 -0.4173  0.4188
  119OSM    H8S12513   4.938   2.021   6.989 -0.8157  0.8147 -0.2373
  119OSM    H8T12514   5.070   2.136   6.970 -1.3290 -0.2661 -0.1096
  119OSM    C9S12515   5.106   1.952   7.092 -0.5049  0.1696  0.1107
  119OSM    H9S12516   5.203   2.001   7.116  0.3494 -1.0994 -0.6300
  119OSM    H9T12517   5.113   1.844   7.067  0.5301  0.0936  0.6844
  119OSM   C10S12518   5.025   1.960   7.224  0.0267  0.1238  0.0137
  119OSM   H10S12519   4.919   1.933   7.205  0.2923  0.9044 -2.9652
  119OSM   H10T12520   5.037   2.066   7.257 -2.1152  0.3026  0.3370
  119OSM   C11S12521   5.077   1.856   7.327 -0.9733  0.0154 -0.1678
  119OSM   H11S12522   5.184   1.869   7.349 -1.0166 -2.2600  1.8148
  119OSM   H11T12523   5.056   1.756   7.282 -0.5530 -0.7543  1.2937
  119OSM   C12S12524   4.994   1.861   7.452  0.1050  0.3507 -0.1209
  119OSM   H12S12525   4.887   1.849   7.425 -0.2732  1.2907  0.8781
  119OSM   H12T12526   5.006   1.957   7.506 -2.0608  1.2150 -1.0344
  119OSM   C13S12527   5.013   1.733   7.547  0.7441 -0.1502  0.2379
  119OSM   H13S12528   5.006   1.640   7.487 -2.3825  0.1140  0.0678
  119OSM   H13T12529   4.931   1.728   7.621  0.2705 -1.6902 -0.3660
  119OSM   C14S12530   5.145   1.742   7.627 -0.0581 -0.2622  0.3764
  119OSM   H14S12531   5.232   1.757   7.559  0.1202 -3.3532 -0.2206
  119OSM   H14T12532   5.172   1.647   7.678  0.6614  1.0865  2.6520
  119OSM   C15S12533   5.137   1.858   7.731 -0.3273 -0.3919  0.0569
  119OSM   H15S12534   5.043   1.854   7.789  0.5327  0.4011  1.5516
  119OSM   H15T12535   5.152   1.954   7.675 -1.3504 -0.8209 -0.9906
  119OSM   C16S12536   5.248   1.855   7.849  0.3051 -0.1821 -0.2248
  119OSM   H16S12537   5.337   1.856   7.782 -0.5493  2.6004 -1.4869
  119OSM   H16T12538   5.236   1.756   7.899  0.7955 -0.6256 -0.9627
  119OSM   C17S12539   5.232   1.976   7.950 -0.6701  0.4305  0.2076
  119OSM   H17S12540   5.241   2.071   7.894  1.9385  1.5740  2.2862
  119OSM   H17T12541   5.317   1.957   8.020 -1.3571  0.7696  1.1413
  119OSM   C18S12542   5.099   1.973   8.023 -0.3211  0.2503 -0.1942
  119OSM   H18S12543   5.086   2.064   8.084 -0.2836  1.0255 -1.3175
  119OSM   H18T12544   5.091   1.887   8.093  1.9855  0.6028  0.5889
  119OSM   H18U12545   5.006   1.975   7.962 -1.4773  2.0393  1.5002
  119OSM    C1F12546   5.474   1.697   6.481  0.1249  0.2300  0.1786
  119OSM     OF12547   5.573   1.739   6.423 -0.0397  0.6146 -0.4975
  119OSM    C2F12548   5.493   1.608   6.599 -0.6054 -0.0543  0.1110
  119OSM    H2F12549   5.412   1.532   6.594 -0.9990  0.4122 -0.8695
  119OSM    H2G12550   5.474   1.657   6.697 -2.4209 -1.0518  0.3126
  119OSM    C3F12551   5.630   1.531   6.616  0.0691  0.5022 -0.2723
  119OSM    H3F12552   5.714   1.593   6.576  1.8456 -3.0316 -2.5068
  119OSM    H3G12553   5.628   1.440   6.553  0.2533 -1.2470  2.0895
  119OSM    C4F12554   5.681   1.487   6.759 -0.4122  0.4625  0.2933
  119OSM    H4F12555   5.693   1.576   6.825  1.6683  0.5843 -0.1880
  119OSM    H4G12556   5.778   1.434   6.749  0.4355  1.2547  3.1520
  119OSM    C5F12557   5.570   1.401   6.835 -0.3342  0.5995 -0.7430
  119OSM    H5F12558   5.577   1.302   6.784  1.6977  0.2331  0.1507
  119OSM    H5G12559   5.470   1.449   6.833  0.3384  2.0857  0.2014
  119OSM    C6F12560   5.594   1.387   6.987  0.4604 -0.0575 -0.2161
  119OSM    H6F12561   5.605   1.490   7.029  1.5729 -0.7139  1.2256
  119OSM    H6G12562   5.692   1.338   7.006 -0.3639 -2.0001 -0.7838
  119OSM    C7F12563   5.472   1.322   7.060 -0.1572  1.0201 -0.1508
  119OSM    H7F12564   5.475   1.224   7.008  0.2548  0.6872  0.4922
  119OSM    H7G12565   5.376   1.373   7.038 -0.0812  1.9349  1.4771
  119OSM    C8F12566   5.496   1.315   7.209  0.1409  0.0891 -0.2619
  119OSM    H8F12567   5.515   1.412   7.261  0.3611 -0.8448  1.4688
  119OSM    H8G12568   5.591   1.259   7.222 -1.1467 -2.2878 -0.6141
  119OSM    C9F12569   5.384   1.234   7.266  0.8529  0.4681  0.1156
  119OSM    H9F12570   5.378   1.126   7.247  3.5116  0.5557 -1.6677
  119OSM   C10F12571   5.300   1.281   7.358  0.0887  0.2938 -0.4124
  119OSM   H10F12572   5.218   1.218   7.397 -0.6205  3.0140  3.0933
  119OSM   C11F12573   5.288   1.422   7.418 -0.0295  0.4483  1.1188
  119OSM   H11F12574   5.182   1.455   7.423 -0.0500  0.4982  0.4765
  119OSM   H11G12575   5.331   1.485   7.338 -1.1579  0.0804  0.1972
  119OSM   C12F12576   5.345   1.426   7.562  0.4394 -0.1885  0.1838
  119OSM   H12F12577   5.347   1.528   7.604  1.0596  0.2816 -0.9463
  119OSM   H12G12578   5.453   1.400   7.556 -0.3046 -3.8142 -0.2223
  119OSM   C13F12579   5.277   1.339   7.666 -0.3725 -0.3277 -0.5744
  119OSM   H13F12580   5.166   1.345   7.670 -0.3570 -0.3754  0.0790
  119OSM   H13G12581   5.311   1.386   7.761 -0.6749 -0.7748 -0.2378
  119OSM   C14F12582   5.309   1.191   7.659 -0.0019 -0.0013 -0.6991
  119OSM   H14F12583   5.417   1.175   7.640  0.8592  2.0484  1.7946
  119OSM   H14G12584   5.248   1.128   7.591 -1.6929 -2.1431  2.5330
  119OSM   C15F12585   5.290   1.128   7.806 -0.4422  0.0733 -0.7483
  119OSM   H15F12586   5.189   1.160   7.840  0.8532  2.0050  1.5767
  119OSM   H15G12587   5.358   1.166   7.885 -1.3210  0.4890 -0.1862
  119OSM   C16F12588   5.285   0.975   7.798 -0.1935 -0.3524 -0.8200
  119OSM   H16F12589   5.387   0.936   7.774  0.1783  0.9006 -1.3781
  119OSM   H16G12590   5.214   0.939   7.721  0.1045 -0.7922 -0.8937
  119OSM   C17F12591   5.248   0.935   7.942 -0.0097  0.3722  0.9465
  119OSM   H17F12592   5.162   0.996   7.977  0.3620  0.7809  1.1568
  119OSM   H17G12593   5.330   0.957   8.014  2.8542 -0.5474 -1.7505
  119OSM   C18F12594   5.217   0.786   7.961  0.0761 -0.2596  0.1870
  119OSM   H18F12595   5.165   0.754   7.868  0.0722  1.1755 -0.3285
  119OSM   H18G12596   5.161   0.766   8.055 -0.2033 -0.4094 -0.0087
  119OSM   H18H12597   5.307   0.722   7.954 -0.1970 -0.6194 -0.0206
  120OSM      N12598   3.347   5.026   6.178  0.4333 -1.0393  0.0489
  120OSM    C1512599   3.326   5.047   6.330 -0.0138 -0.3230  0.3147
  120OSM   H15A12600   3.397   4.988   6.385  1.4687  1.1040  0.0317
  120OSM   H15B12601   3.225   5.021   6.360 -1.7069  2.0675 -2.7227
  120OSM   H15C12602   3.347   5.148   6.361  1.6731 -0.3746 -0.5347
  120OSM    C1412603   3.251   5.117   6.112 -0.2093 -0.9687  0.1693
  120OSM   H14A12604   3.149   5.100   6.144 -0.4708 -0.3989 -0.3239
  120OSM   H14B12605   3.247   5.102   6.005  2.0627 -0.2200 -0.0802
  120OSM   H14C12606   3.274   5.221   6.132 -1.3317 -1.2187  3.1089
  120OSM    C1312607   3.489   5.070   6.151  0.0975 -1.2614  0.4083
  120OSM   H13A12608   3.486   5.177   6.168 -2.2726 -1.4755  1.8698
  120OSM   H13B12609   3.507   5.040   6.049 -1.6564 -0.0289 -0.3323
  120OSM   H13C12610   3.566   5.037   6.218  0.5586 -1.2665 -0.1128
  120OSM    C1212611   3.308   4.884   6.145  0.2858  0.5632  0.5222
  120OSM   H12A12612   3.364   4.825   6.216 -0.4219  0.6903  1.2037
  120OSM   H12B12613   3.360   4.852   6.056  0.8076  4.2758 -0.6630
  120OSM    C1112614   3.162   4.836   6.153 -0.1270  0.4927  0.3087
  120OSM   H11A12615   3.153   4.735   6.107 -0.1603  0.7374 -0.2268
  120OSM   H11B12616   3.103   4.909   6.093 -1.9822 -1.5788 -0.5500
  120OSM      P12617   2.981   4.883   6.354 -0.2966 -0.3283  0.1563
  120OSM    O1312618   2.949   5.019   6.306  0.0301  0.1880  1.1044
  120OSM    O1412619   2.879   4.782   6.335  0.1715  0.2291  0.3607
  120OSM    O1112620   3.010   4.878   6.511  0.0757 -0.4912 -0.1437
  120OSM    O1212621   3.120   4.831   6.293  0.0465  0.1493 -0.1278
  120OSM    C1S12622   3.136   4.849   6.564 -0.7929  0.1769 -0.3474
  120OSM    H1S12623   3.217   4.915   6.525  1.2172 -1.5397  0.6814
  120OSM    H1T12624   3.174   4.751   6.529  0.0702  0.2870  0.2639
  120OSM     NF12625   3.290   4.878   6.763  0.1384 -0.5285  0.4693
  120OSM    HNF12626   3.339   4.807   6.812  1.8598  0.4492  0.2387
  120OSM    C2S12627   3.153   4.854   6.719  0.4531 -0.3216  0.2419
  120OSM    H2S12628   3.083   4.935   6.748 -1.1352 -1.7441  0.5357
  120OSM    C3S12629   3.082   4.726   6.789  0.2311  0.1965  0.2229
  120OSM    H3S12630   3.153   4.642   6.774 -1.1082 -0.5257 -2.7862
  120OSM     O312631   2.959   4.688   6.723  0.0596  0.3082  0.7572
  120OSM    HO312632   2.971   4.734   6.639 -1.4787  0.3980  0.5490
  120OSM    C4S12633   3.073   4.756   6.940  0.1595  0.0443 -0.5895
  120OSM    H4S12634   3.172   4.733   6.983  0.0840 -1.7931 -1.3048
  120OSM    C5S12635   2.969   4.793   7.015 -0.3162  0.1256  0.1592
  120OSM    H5S12636   2.874   4.802   6.960 -0.3787 -0.6685  0.1314
  120OSM    C6S12637   2.975   4.808   7.162  0.2355  0.6093 -0.4174
  120OSM    H6S12638   2.872   4.793   7.199  0.1815  0.2984 -0.6842
  120OSM    H6T12639   3.013   4.910   7.182  0.0914  0.7665 -0.9229
  120OSM    C7S12640   3.056   4.715   7.256 -0.1750  0.2385 -0.3732
  120OSM    H7S12641   3.083   4.776   7.345 -3.2162 -1.7465  2.1285
  120OSM    H7T12642   3.159   4.695   7.220  0.3136 -0.0271  1.1089
  120OSM    C8S12643   2.990   4.579   7.293  0.1339 -0.5058 -0.4615
  120OSM    H8S12644   3.073   4.516   7.331 -0.2148  0.7260  2.6170
  120OSM    H8T12645   2.943   4.532   7.204  1.4360 -2.5092 -0.1340
  120OSM    C9S12646   2.890   4.588   7.410 -0.5665  0.3930  0.0992
  120OSM    H9S12647   2.822   4.674   7.397  2.2132  2.4295 -2.2178
  120OSM    H9T12648   2.949   4.611   7.501 -2.6470 -1.7952  2.1383
  120OSM   C10S12649   2.820   4.452   7.424 -0.5315  0.6498 -0.4093
  120OSM   H10S12650   2.902   4.379   7.444 -2.1752 -0.7814  1.3898
  120OSM   H10T12651   2.756   4.440   7.334 -0.9960  1.7303 -0.2473
  120OSM   C11S12652   2.719   4.442   7.544 -0.4659 -0.7911 -0.0024
  120OSM   H11S12653   2.660   4.350   7.527 -1.5267  0.0436 -1.0403
  120OSM   H11T12654   2.654   4.532   7.543  1.1238  0.3978  0.2806
  120OSM   C12S12655   2.802   4.446   7.671  0.0761  1.1335 -0.4585
  120OSM   H12S12656   2.854   4.544   7.678  1.0429  0.6530 -0.7233
  120OSM   H12T12657   2.885   4.372   7.676 -0.7373  0.1785 -0.8507
  120OSM   C13S12658   2.706   4.439   7.785 -0.1300  0.0915  0.1862
  120OSM   H13S12659   2.670   4.334   7.784  3.3197 -1.2335 -0.0485
  120OSM   H13T12660   2.618   4.503   7.766  0.9013  1.2257 -0.9710
  120OSM   C14S12661   2.773   4.474   7.915 -0.3392 -0.4934 -0.5832
  120OSM   H14S12662   2.800   4.581   7.902  1.1590 -0.4656  1.9790
  120OSM   H14T12663   2.867   4.416   7.933  0.0626 -0.5314 -2.5439
  120OSM   C15S12664   2.691   4.466   8.048  0.5908 -0.3135  0.4777
  120OSM   H15S12665   2.648   4.364   8.042 -0.5085  0.1053  0.9223
  120OSM   H15T12666   2.614   4.546   8.034 -0.6627 -1.4399  0.6915
  120OSM   C16S12667   2.780   4.484   8.172 -0.4745 -0.8679  0.3028
  120OSM   H16S12668   2.820   4.586   8.187 -0.0695 -1.0118  0.2298
  120OSM   H16T12669   2.863   4.411   8.158 -0.7700 -1.0707 -0.4251
  120OSM   C17S12670   2.707   4.443   8.303 -0.3872  0.4707 -0.5041
  120OSM   H17S12671   2.682   4.335   8.309 -0.7900  0.6364  2.0959
  120OSM   H17T12672   2.610   4.496   8.300 -0.0189  1.3646  1.5155
  120OSM   C18S12673   2.792   4.458   8.426 -0.7428 -0.0976 -0.5491
  120OSM   H18S12674   2.834   4.561   8.434 -1.4964  0.1147  0.9476
  120OSM   H18T12675   2.882   4.395   8.411  0.8571  1.3941  1.9566
  120OSM   H18U12676   2.745   4.438   8.524 -0.9150  0.7548 -0.4442
  120OSM    C1F12677   3.362   4.985   6.725  0.3666  0.4931 -0.5438
  120OSM     OF12678   3.304   5.083   6.686  0.3113 -0.0713 -0.2767
  120OSM    C2F12679   3.510   4.967   6.740  0.1619 -0.1272  0.0131
  120OSM    H2F12680   3.560   4.988   6.643 -0.0664  1.2285  0.1623
  120OSM    H2G12681   3.535   4.866   6.778  0.2709  0.2462  0.9561
  120OSM    C3F12682   3.560   5.065   6.848  0.4647  0.8987 -0.1267
  120OSM    H3F12683   3.525   5.169   6.832 -0.1050  0.5580 -1.1823
  120OSM    H3G12684   3.670   5.075   6.842  0.5110  0.7509  0.4112
  120OSM    C4F12685   3.511   5.024   6.990  0.3888 -0.0450 -0.9974
  120OSM    H4F12686   3.402   5.007   6.975 -0.0033  1.8917 -0.5428
  120OSM    H4G12687   3.516   5.113   7.056 -0.1813 -0.0758 -0.9110
  120OSM    C5F12688   3.571   4.900   7.053  0.4768 -0.3168  0.2479
  120OSM    H5F12689   3.676   4.892   7.017  0.6719  2.0849  0.1093
  120OSM    H5G12690   3.505   4.816   7.024 -0.2917  0.4168 -0.1425
  120OSM    C6F12691   3.583   4.899   7.207  0.5231 -0.3749 -0.4341
  120OSM    H6F12692   3.644   4.988   7.235 -0.5934  0.4484 -0.5495
  120OSM    H6G12693   3.635   4.805   7.234  0.1976 -0.4154  0.0581
  120OSM    C7F12694   3.444   4.906   7.277  0.1058  0.5044 -0.2551
  120OSM    H7F12695   3.383   4.824   7.235  0.5033  1.4002 -2.7585
  120OSM    H7G12696   3.401   5.004   7.248 -1.1937  0.2658  0.8030
  120OSM    C8F12697   3.451   4.906   7.425 -0.0296  0.2831  0.0261
  120OSM    H8F12698   3.527   4.974   7.470 -0.5698 -0.4241  2.0833
  120OSM    H8G12699   3.485   4.802   7.442 -1.9538 -0.2355  0.8504
  120OSM    C9F12700   3.317   4.926   7.496 -0.4038 -0.1271  0.1355
  120OSM    H9F12701   3.273   5.024   7.471 -1.0299  0.0986  1.9603
  120OSM   C10F12702   3.271   4.857   7.604  0.3406 -0.6977 -0.2276
  120OSM   H10F12703   3.170   4.880   7.641  0.9207  0.8629  0.4854
  120OSM   C11F12704   3.340   4.745   7.670 -0.2280  0.4979 -0.3957
  120OSM   H11F12705   3.413   4.694   7.603  0.5357 -0.8976  1.3896
  120OSM   H11G12706   3.255   4.681   7.703 -0.6519  0.9341 -0.6346
  120OSM   C12F12707   3.425   4.779   7.789 -0.3378 -0.1920 -0.4774
  120OSM   H12F12708   3.473   4.878   7.778 -2.1608  0.7957  0.0614
  120OSM   H12G12709   3.500   4.699   7.810  0.0636  0.7458  2.0124
  120OSM   C13F12710   3.339   4.803   7.913 -0.8940 -0.1587 -0.7520
  120OSM   H13F12711   3.259   4.730   7.935 -0.2190  0.0733  3.1443
  120OSM   H13G12712   3.295   4.905   7.911 -1.3111 -0.3170 -0.0195
  120OSM   C14F12713   3.424   4.802   8.042 -0.3994  0.0750  0.4406
  120OSM   H14F12714   3.522   4.851   8.021  0.7786 -1.7868  1.2370
  120OSM   H14G12715   3.461   4.699   8.065  1.3644  0.9145  1.6509
  120OSM   C15F12716   3.360   4.853   8.170  0.1397 -0.2566  0.0435
  120OSM   H15F12717   3.332   4.960   8.161 -0.9820 -0.5730 -0.3624
  120OSM   H15G12718   3.436   4.855   8.252  0.1670 -1.2786  0.0512
  120OSM   C16F12719   3.243   4.762   8.211  0.2463  0.0666 -0.3468
  120OSM   H16F12720   3.270   4.654   8.208  0.7029  0.1435  0.4889
  120OSM   H16G12721   3.168   4.772   8.130 -0.2338 -0.9014 -0.0397
  120OSM   C17F12722   3.150   4.801   8.334 -0.3147 -0.0965  0.4980
  120OSM   H17F12723   3.069   4.725   8.342 -0.7568  0.4633  1.5257
  120OSM   H17G12724   3.091   4.892   8.308 -2.4068 -1.2510  0.9399
  120OSM   C18F12725   3.227   4.814   8.471 -0.2036  0.2521 -0.1247
  120OSM   H18F12726   3.154   4.821   8.555 -1.1931  0.3211 -0.9589
  120OSM   H18G12727   3.294   4.902   8.476 -0.7408  0.5917  2.5888
  120OSM   H18H12728   3.281   4.717   8.471 -0.4675  0.1022 -0.3697
  121OSM      N12729   3.718   6.609   5.864 -0.8091  0.8939 -0.0980
  121OSM    C1512730   3.728   6.463   5.900  0.2348 -0.1452 -0.2578
  121OSM   H15A12731   3.639   6.407   5.875 -0.5692  1.3482 -0.8390
  121OSM   H15B12732   3.730   6.462   6.008 -1.7001  1.0790 -0.1712
  121OSM   H15C12733   3.816   6.410   5.865  0.8927 -0.6120  1.9050
  121OSM    C1412734   3.757   6.611   5.714  0.0406  0.4377  0.1434
  121OSM   H14A12735   3.745   6.711   5.676  1.1475  0.2756 -0.6697
  121OSM   H14B12736   3.702   6.538   5.657  0.8363 -1.1717  1.3486
  121OSM   H14C12737   3.862   6.589   5.704  0.1518  0.5278  1.0190
  121OSM    C1312738   3.579   6.653   5.862  0.0683 -0.0274  0.0428
  121OSM   H13A12739   3.541   6.652   5.963  0.5149 -0.1919  0.2138
  121OSM   H13B12740   3.501   6.598   5.812 -1.8634  1.8467  0.8514
  121OSM   H13C12741   3.572   6.753   5.822 -1.9949  0.0179  0.4151
  121OSM    C1212742   3.815   6.689   5.947 -0.0635 -0.4406 -0.1087
  121OSM   H12A12743   3.806   6.794   5.921 -1.6453 -0.8160 -1.2269
  121OSM   H12B12744   3.907   6.645   5.909 -0.3157 -0.1342 -1.1024
  121OSM    C1112745   3.821   6.670   6.102  0.3140  0.4900  0.2110
  121OSM   H11A12746   3.717   6.697   6.133  1.0071  2.7623  0.7610
  121OSM   H11B12747   3.889   6.743   6.150  0.8363  1.2355 -1.5681
  121OSM      P12748   4.018   6.513   6.132 -0.4882  0.3261 -0.3991
  121OSM    O1312749   4.044   6.368   6.177 -0.3641 -0.9765  0.0243
  121OSM    O1412750   4.070   6.543   5.996  0.2386  0.1597 -0.1498
  121OSM    O1112751   4.093   6.619   6.231  0.4241 -0.4826  0.4516
  121OSM    O1212752   3.863   6.539   6.145  0.4255 -0.1250  0.0795
  121OSM    C1S12753   4.024   6.659   6.353 -0.2570  0.7184  0.6647
  121OSM    H1S12754   3.914   6.640   6.347  0.0675 -0.9468 -0.7490
  121OSM    H1T12755   4.034   6.768   6.372  0.7082  0.5112  1.4291
  121OSM     NF12756   4.014   6.626   6.596 -0.3912  0.0760  0.0046
  121OSM    HNF12757   4.060   6.701   6.642  0.0878  1.0748 -1.9730
  121OSM    C2S12758   4.084   6.586   6.476  0.3620 -0.6237  0.3225
  121OSM    H2S12759   4.074   6.475   6.471 -0.5765 -0.4833 -2.3884
  121OSM    C3S12760   4.244   6.604   6.483  0.0804  0.0941 -0.1529
  121OSM    H3S12761   4.276   6.708   6.507 -1.5144  0.2893  1.3232
  121OSM     O312762   4.312   6.583   6.363  0.0520  0.7717  0.1158
  121OSM    HO312763   4.257   6.601   6.286  1.7574  0.1811 -1.2985
  121OSM    C4S12764   4.297   6.530   6.600 -0.6403  0.9672  0.3302
  121OSM    H4S12765   4.328   6.590   6.687 -2.5710  1.5247  0.6636
  121OSM    C5S12766   4.343   6.397   6.609  0.1958 -0.1211 -0.3978
  121OSM    H5S12767   4.339   6.316   6.535  0.2652  0.1738 -0.7223
  121OSM    C6S12768   4.400   6.321   6.730 -0.7920 -0.5121  0.0193
  121OSM    H6S12769   4.508   6.310   6.711 -0.4171  0.7072  1.3190
  121OSM    H6T12770   4.346   6.226   6.754 -0.6191 -1.2572 -2.3030
  121OSM    C7S12771   4.401   6.403   6.869 -0.4052  0.0195  0.4083
  121OSM    H7S12772   4.305   6.455   6.892  0.2460  1.0513  0.8811
  121OSM    H7T12773   4.477   6.480   6.845 -2.0508  1.0508 -1.7906
  121OSM    C8S12774   4.450   6.316   6.986  0.4038  0.3969  0.6931
  121OSM    H8S12775   4.552   6.280   6.963  0.4809 -0.3321  2.0633
  121OSM    H8T12776   4.390   6.223   6.996  0.3785  0.4994  1.6041
  121OSM    C9S12777   4.452   6.384   7.121  0.2998 -0.2867  0.0894
  121OSM    H9S12778   4.351   6.425   7.142 -0.0245 -1.0110 -0.0204
  121OSM    H9T12779   4.519   6.472   7.112 -1.6729  1.1451 -1.2303
  121OSM   C10S12780   4.505   6.299   7.230 -0.1733 -0.0092  0.0260
  121OSM   H10S12781   4.603   6.255   7.202 -0.6641 -1.2194  0.1244
  121OSM   H10T12782   4.436   6.215   7.255 -1.3951  1.4709  1.8925
  121OSM   C11S12783   4.519   6.373   7.370  0.0013 -0.0100  0.7203
  121OSM   H11S12784   4.426   6.430   7.390 -0.0951  1.0999 -2.3649
  121OSM   H11T12785   4.601   6.447   7.357  0.9029 -0.8007  1.7330
  121OSM   C12S12786   4.558   6.291   7.492 -0.0453  0.5901  0.6593
  121OSM   H12S12787   4.653   6.242   7.462  1.5054  3.4603  0.5073
  121OSM   H12T12788   4.479   6.215   7.507  0.1577 -0.3251 -2.3255
  121OSM   C13S12789   4.590   6.380   7.618 -0.6773  0.1629 -0.2987
  121OSM   H13S12790   4.500   6.430   7.659 -0.9494 -0.2115 -0.4385
  121OSM   H13T12791   4.661   6.460   7.585 -0.2607 -0.6822 -1.5297
  121OSM   C14S12792   4.664   6.297   7.728 -0.0481  0.1381 -0.0469
  121OSM   H14S12793   4.775   6.300   7.729 -0.0452 -0.1423  0.6733
  121OSM   H14T12794   4.627   6.194   7.712  1.5298 -0.3087 -1.0391
  121OSM   C15S12795   4.642   6.345   7.870  0.1333 -0.4403  0.3183
  121OSM   H15S12796   4.536   6.367   7.895 -0.1869  2.1487 -2.6695
  121OSM   H15T12797   4.698   6.441   7.880 -0.7983  0.2200 -0.6319
  121OSM   C16S12798   4.702   6.243   7.967 -0.1785 -0.6601  1.1011
  121OSM   H16S12799   4.801   6.205   7.933 -0.3412  0.2385 -0.4734
  121OSM   H16T12800   4.637   6.153   7.966 -1.0334 -0.0513  0.7865
  121OSM   C17S12801   4.727   6.297   8.105  0.2994 -0.7657  0.3142
  121OSM   H17S12802   4.631   6.348   8.128 -0.4361 -1.2684 -1.4562
  121OSM   H17T12803   4.804   6.377   8.106 -0.9416  0.5062  3.2774
  121OSM   C18S12804   4.750   6.190   8.206 -0.6836  0.2310 -0.1545
  121OSM   H18S12805   4.726   6.216   8.311  2.1376 -0.4128  0.7385
  121OSM   H18T12806   4.853   6.146   8.203 -0.1284  1.4629  0.3671
  121OSM   H18U12807   4.681   6.113   8.166  0.8684 -1.1090 -0.3818
  121OSM    C1F12808   3.887   6.584   6.630 -0.2284  0.3616 -0.5471
  121OSM     OF12809   3.833   6.491   6.571 -0.4603  0.1997 -0.0053
  121OSM    C2F12810   3.809   6.661   6.733 -0.3600  0.1429 -0.3742
  121OSM    H2F12811   3.791   6.765   6.700 -0.5117  1.2449  2.8435
  121OSM    H2G12812   3.881   6.676   6.816 -0.1919  1.6209 -0.7630
  121OSM    C3F12813   3.691   6.572   6.780 -0.3775 -0.2910 -0.7591
  121OSM    H3F12814   3.725   6.477   6.825 -0.0741  1.5615  3.3729
  121OSM    H3G12815   3.625   6.554   6.693 -1.4243 -0.6031  0.0793
  121OSM    C4F12816   3.612   6.630   6.898 -0.4134  0.2842  0.2209
  121OSM    H4F12817   3.528   6.564   6.930 -1.0682  0.8623 -0.2847
  121OSM    H4G12818   3.558   6.720   6.863 -1.5684  0.0819  1.3774
  121OSM    C5F12819   3.693   6.671   7.020  0.2697 -0.4231  0.4171
  121OSM    H5F12820   3.764   6.748   6.984  2.5482 -1.2227  2.8537
  121OSM    H5G12821   3.762   6.589   7.046  1.0798 -0.0383 -0.4850
  121OSM    C6F12822   3.608   6.722   7.140  1.0604  0.1606  0.2624
  121OSM    H6F12823   3.522   6.651   7.135  2.3557 -1.5557  1.1478
  121OSM    H6G12824   3.566   6.821   7.112  0.2795 -0.1585  0.2981
  121OSM    C7F12825   3.697   6.725   7.265 -0.3395 -0.7399  0.6731
  121OSM    H7F12826   3.636   6.798   7.323 -3.0504 -2.2735 -0.0454
  121OSM    H7G12827   3.792   6.775   7.237 -1.1940  1.2426  1.1174
  121OSM    C8F12828   3.706   6.587   7.336 -0.0721 -0.0126  0.6273
  121OSM    H8F12829   3.754   6.516   7.265 -0.6497 -0.1561  0.3788
  121OSM    H8G12830   3.604   6.551   7.360 -0.1840 -1.0327 -1.1868
  121OSM    C9F12831   3.792   6.595   7.458 -0.0084 -0.2053 -0.4502
  121OSM    H9F12832   3.894   6.563   7.430 -0.1138 -2.1750  1.1667
  121OSM   C10F12833   3.760   6.649   7.581 -0.3480  0.3989 -0.0152
  121OSM   H10F12834   3.824   6.650   7.670  0.4497  0.7177 -0.5792
  121OSM   C11F12835   3.628   6.717   7.606  0.4343  0.4762  0.4559
  121OSM   H11F12836   3.573   6.752   7.517 -2.0199 -1.8723  0.9038
  121OSM   H11G12837   3.652   6.803   7.673  3.7704 -0.3388  0.4963
  121OSM   C12F12838   3.537   6.629   7.685 -0.0977  0.0091 -0.2952
  121OSM   H12F12839   3.581   6.583   7.776  1.5752  2.3061  0.1281
  121OSM   H12G12840   3.504   6.543   7.621  1.6109 -1.5496  0.8103
  121OSM   C13F12841   3.414   6.699   7.750 -0.3693 -0.6828  0.5989
  121OSM   H13F12842   3.362   6.738   7.660 -0.3362  0.0340  0.8809
  121OSM   H13G12843   3.426   6.799   7.799 -0.7511  0.3263 -1.2679
  121OSM   C14F12844   3.311   6.615   7.825 -0.1178  0.0130 -0.2937
  121OSM   H14F12845   3.366   6.583   7.915 -0.6502  3.2077  1.3336
  121OSM   H14G12846   3.273   6.536   7.757  0.7006 -1.2025  0.6210
  121OSM   C15F12847   3.185   6.691   7.877 -0.3133 -0.5727 -0.2277
  121OSM   H15F12848   3.101   6.699   7.804 -0.9967 -0.6575  0.5364
  121OSM   H15G12849   3.220   6.787   7.919 -0.3396  0.0098 -1.4897
  121OSM   C16F12850   3.101   6.618   7.991  0.2034  0.0342  0.8841
  121OSM   H16F12851   3.173   6.578   8.066 -0.4194 -1.8311  0.5213
  121OSM   H16G12852   3.039   6.535   7.952 -0.7184  1.0913  0.0178
  121OSM   C17F12853   3.018   6.733   8.063  0.2002 -0.1974 -0.0990
  121OSM   H17F12854   2.948   6.780   7.991 -0.6691 -1.5757 -0.1949
  121OSM   H17G12855   3.088   6.807   8.108  0.4241 -0.1537 -0.5160
  121OSM   C18F12856   2.924   6.679   8.173 -0.3779  0.3219 -0.3831
  121OSM   H18F12857   2.867   6.765   8.215  0.5566  0.8385 -0.1461
  121OSM   H18G12858   2.977   6.631   8.258  0.2124 -1.1305 -1.5259
  121OSM   H18H12859   2.844   6.615   8.131 -0.8300 -0.2139  1.2236
  122OSM      N12860   4.288   1.935   6.085 -0.0837  0.2638 -0.4003
  122OSM    C1512861   4.355   1.807   6.063  0.5771 -0.2936 -0.4351
  122OSM   H15A12862   4.371   1.759   6.158 -0.9570 -2.1670 -1.0730
  122OSM   H15B12863   4.450   1.818   6.012  0.0638  1.3955 -1.1135
  122OSM   H15C12864   4.287   1.742   6.010 -1.1448 -0.2780  1.6216
  122OSM    C1412865   4.389   2.012   6.167  0.9198 -0.0135  0.2505
  122OSM   H14A12866   4.478   2.028   6.109  0.8674 -0.6439 -0.0174
  122OSM   H14B12867   4.410   1.947   6.251  3.8613 -1.4850 -1.4662
  122OSM   H14C12868   4.348   2.107   6.195 -2.5716 -1.2177 -0.2616
  122OSM    C1312869   4.269   2.009   5.956  0.8833 -0.0962 -0.0428
  122OSM   H13A12870   4.239   2.110   5.980 -0.2576 -0.7259  1.3565
  122OSM   H13B12871   4.197   1.968   5.887 -0.9904 -2.1161  2.8699
  122OSM   H13C12872   4.359   2.017   5.897 -0.5855  1.4482 -2.1894
  122OSM    C1212873   4.156   1.923   6.166  0.5351  0.0920 -0.4545
  122OSM   H12A12874   4.123   2.021   6.196  3.5673  0.9953  0.2300
  122OSM   H12B12875   4.176   1.871   6.259 -0.9335 -0.1987 -0.2624
  122OSM    C1112876   4.025   1.867   6.103  0.1364 -0.5217 -0.4581
  122OSM   H11A12877   3.986   1.940   6.029 -2.0705 -2.2599 -1.1351
  122OSM   H11B12878   3.946   1.854   6.181  0.2666 -2.0926 -0.5547
  122OSM      P12879   3.972   1.689   5.925  0.2370 -0.1705  0.1375
  122OSM    O1312880   3.895   1.791   5.859 -0.2423  0.0921  0.3045
  122OSM    O1412881   4.068   1.618   5.837  0.8371 -0.3811 -0.4809
  122OSM    O1112882   3.876   1.588   5.991  0.3451  0.1089 -0.6739
  122OSM    O1212883   4.053   1.747   6.043 -0.1207 -0.4510 -0.1703
  122OSM    C1S12884   3.919   1.474   6.074 -0.3894  0.2930  0.0851
  122OSM    H1S12885   4.013   1.434   6.030 -1.0908 -0.1023 -1.1105
  122OSM    H1T12886   3.855   1.384   6.060  0.1550  0.0763 -1.1668
  122OSM     NF12887   3.965   1.376   6.304  0.4101 -0.0442  0.0229
  122OSM    HNF12888   3.891   1.340   6.361 -2.0789  1.7064 -1.8916
  122OSM    C2S12889   3.920   1.498   6.232 -0.3003  0.4847 -0.4217
  122OSM    H2S12890   3.998   1.574   6.253  0.4802 -1.0393  2.7495
  122OSM    C3S12891   3.784   1.549   6.285  0.8898 -0.4057 -0.7190
  122OSM    H3S12892   3.711   1.466   6.288 -1.1970  1.3389  1.4070
  122OSM     O312893   3.721   1.645   6.201 -0.2138 -0.4965 -0.4499
  122OSM    HO312894   3.774   1.630   6.122  0.6224 -1.1695  0.2145
  122OSM    C4S12895   3.783   1.587   6.433 -0.1705 -0.2120 -0.2401
  122OSM    H4S12896   3.726   1.520   6.499 -0.3145 -0.8345 -0.9726
  122OSM    C5S12897   3.820   1.704   6.485 -0.0103 -0.3798  0.5804
  122OSM    H5S12898   3.852   1.775   6.407 -0.6769 -1.1060 -0.3836
  122OSM    C6S12899   3.813   1.755   6.627 -0.0495 -0.0003  0.8781
  122OSM    H6S12900   3.752   1.847   6.629  1.5546  1.2512 -1.8959
  122OSM    H6T12901   3.915   1.778   6.666  0.6023 -2.1255  0.5400
  122OSM    C7S12902   3.763   1.644   6.724  0.1841  0.1716 -0.0380
  122OSM    H7S12903   3.812   1.548   6.698 -2.0067 -0.7835 -0.8967
  122OSM    H7T12904   3.653   1.636   6.707  0.2771  2.2584 -2.0384
  122OSM    C8S12905   3.781   1.692   6.867  0.1364  0.2493 -0.4057
  122OSM    H8S12906   3.727   1.789   6.875 -0.9695 -0.3012 -0.9695
  122OSM    H8T12907   3.886   1.725   6.880  0.3475 -0.9387  1.0827
  122OSM    C9S12908   3.717   1.595   6.965  0.1774  0.0437 -0.5189
  122OSM    H9S12909   3.759   1.494   6.947  2.2394  1.0392 -1.7939
  122OSM    H9T12910   3.610   1.590   6.939 -0.0074  0.1207  0.1990
  122OSM   C10S12911   3.742   1.642   7.105 -0.4486 -0.3198 -0.6449
  122OSM   H10S12912   3.678   1.727   7.137 -1.5274 -1.3266 -0.0685
  122OSM   H10T12913   3.848   1.674   7.113 -1.3061  2.8202 -0.3645
  122OSM   C11S12914   3.728   1.521   7.200  0.2457 -0.4396  0.1365
  122OSM   H11S12915   3.786   1.435   7.159  0.0955 -0.0234 -0.9859
  122OSM   H11T12916   3.618   1.512   7.191  0.2396 -1.8809  1.2588
  122OSM   C12S12917   3.770   1.546   7.345 -0.5580 -0.3549 -0.1610
  122OSM   H12S12918   3.714   1.627   7.396 -2.0804  0.6403 -3.1481
  122OSM   H12T12919   3.879   1.564   7.334  0.1984 -2.6422  2.4706
  122OSM   C13S12920   3.766   1.421   7.436  0.4529  0.4775  0.0085
  122OSM   H13S12921   3.855   1.357   7.417  0.6897  0.5826  0.7216
  122OSM   H13T12922   3.673   1.363   7.421  0.5946 -0.3503  1.9715
  122OSM   C14S12923   3.781   1.450   7.596  0.2134  0.5242  0.2006
  122OSM   H14S12924   3.710   1.535   7.599 -0.0476  0.4006 -1.4766
  122OSM   H14T12925   3.881   1.496   7.614 -0.1629  1.6689 -0.5210
  122OSM   C15S12926   3.744   1.331   7.672  0.0581 -0.0093 -0.4874
  122OSM   H15S12927   3.803   1.245   7.633 -1.1104 -0.2485 -1.8269
  122OSM   H15T12928   3.634   1.314   7.669 -0.0803 -0.9587  3.5499
  122OSM   C16S12929   3.788   1.342   7.821  0.2419 -0.7036 -0.1943
  122OSM   H16S12930   3.734   1.428   7.865 -1.3122 -3.2467  3.3917
  122OSM   H16T12931   3.898   1.357   7.814  0.8194 -4.0021 -0.1635
  122OSM   C17S12932   3.777   1.208   7.896  0.2674  0.2114 -0.6785
  122OSM   H17S12933   3.826   1.139   7.824 -0.2510  0.1415 -0.9687
  122OSM   H17T12934   3.677   1.166   7.916  1.4980 -3.6998 -1.8161
  122OSM   C18S12935   3.856   1.207   8.033 -0.7033  0.2946  1.1805
  122OSM   H18S12936   3.964   1.223   8.015 -0.5209 -0.0129  1.9674
  122OSM   H18T12937   3.859   1.105   8.077  0.6117  0.1314  0.7357
  122OSM   H18U12938   3.828   1.292   8.099 -1.3793 -0.0045  1.2882
  122OSM    C1F12939   4.086   1.318   6.274 -0.0809  1.0542 -0.6349
  122OSM     OF12940   4.172   1.372   6.206  0.1374  0.1782 -0.0824
  122OSM    C2F12941   4.104   1.170   6.317 -0.1037 -0.0665 -0.1793
  122OSM    H2F12942   4.152   1.116   6.232  0.2052 -0.9399  0.5361
  122OSM    H2G12943   4.003   1.127   6.334 -0.7252  0.7210 -1.6835
  122OSM    C3F12944   4.179   1.170   6.454  0.2426  0.0278  0.3131
  122OSM    H3F12945   4.121   1.222   6.533 -2.5635 -0.0442 -1.5159
  122OSM    H3G12946   4.280   1.212   6.440  0.2268 -0.6789 -2.5880
  122OSM    C4F12947   4.188   1.027   6.499  0.1879  0.4361  0.1313
  122OSM    H4F12948   4.249   0.969   6.426  2.8501  2.4293  0.5958
  122OSM    H4G12949   4.098   0.967   6.526  1.0843 -1.4914 -0.9729
  122OSM    C5F12950   4.268   1.020   6.628 -0.4192 -0.1455  0.0519
  122OSM    H5F12951   4.239   1.098   6.701  0.5170 -0.9574  1.3367
  122OSM    H5G12952   4.373   1.039   6.597 -0.2983  0.5704  0.8854
  122OSM    C6F12953   4.271   0.887   6.707  0.3079 -0.0163  0.3119
  122OSM    H6F12954   4.352   0.874   6.781  0.0200  2.0920  1.0599
  122OSM    H6G12955   4.281   0.802   6.636  4.3802 -0.2497  0.9442
  122OSM    C7F12956   4.141   0.862   6.798 -0.5030  0.6498  0.2915
  122OSM    H7F12957   4.054   0.895   6.737 -0.4221 -2.0030 -1.4198
  122OSM    H7G12958   4.139   0.936   6.880 -3.7860 -0.8185  1.7547
  122OSM    C8F12959   4.120   0.720   6.843  0.1662  0.8503 -0.7713
  122OSM    H8F12960   4.098   0.652   6.758 -2.4681 -0.4334  0.8344
  122OSM    H8G12961   4.028   0.713   6.904 -0.2548  0.5599 -1.4323
  122OSM    C9F12962   4.236   0.656   6.928  0.7382 -0.2643  0.1068
  122OSM    H9F12963   4.338   0.664   6.889  1.5305 -0.5148  1.9814
  122OSM   C10F12964   4.227   0.579   7.042  0.1120 -0.4105  0.3518
  122OSM   H10F12965   4.314   0.539   7.096  0.0487  0.4443  1.1025
  122OSM   C11F12966   4.096   0.551   7.103  0.4199 -0.4060  0.2546
  122OSM   H11F12967   4.036   0.508   7.020 -0.3696  1.0051  0.0605
  122OSM   H11G12968   4.053   0.641   7.152  1.3119  0.4340 -0.4598
  122OSM   C12F12969   4.115   0.470   7.231 -0.3408  0.2839  0.6926
  122OSM   H12F12970   4.181   0.529   7.298  1.2278 -0.9331  0.2742
  122OSM   H12G12971   4.165   0.372   7.212 -1.8241 -0.4659  0.5296
  122OSM   C13F12972   3.982   0.424   7.289 -0.7825 -0.1936  0.1959
  122OSM   H13F12973   3.941   0.353   7.214 -1.6041 -1.8051  2.0798
  122OSM   H13G12974   3.902   0.501   7.296 -0.5373  0.1795 -0.8313
  122OSM   C14F12975   3.997   0.350   7.429 -0.0036  0.0149  0.2524
  122OSM   H14F12976   4.087   0.286   7.415 -1.1970 -2.2670  2.1978
  122OSM   H14G12977   3.905   0.288   7.440 -0.6478  0.9259  0.0431
  122OSM   C15F12978   4.007   0.441   7.558  0.7270 -0.2942  0.0565
  122OSM   H15F12979   3.914   0.492   7.591  1.3325  2.0518 -1.5411
  122OSM   H15G12980   4.065   0.529   7.522  1.6700 -0.3688  1.3097
  122OSM   C16F12981   4.074   0.372   7.677 -0.0070  0.1053 -0.8726
  122OSM   H16F12982   4.071   0.437   7.767 -1.8465  0.7434 -1.3646
  122OSM   H16G12983   4.180   0.368   7.643  0.6767  3.5915  0.3684
  122OSM   C17F12984   4.028   0.227   7.717  0.5466 -0.6421 -0.2035
  122OSM   H17F12985   4.043   0.157   7.632 -0.4443 -1.1595  0.0417
  122OSM   H17G12986   3.923   0.246   7.746  0.3253 -1.8149 -0.2170
  122OSM   C18F12987   4.101   0.197   7.848  0.5139  0.4437 -0.8041
  122OSM   H18F12988   4.211   0.207   7.844  0.5097  0.5720 -0.6196
  122OSM   H18G12989   4.077   0.093   7.879  1.8651 -0.4994 -2.7194
  122OSM   H18H12990   4.059   0.270   7.921 -0.9853 -0.7645 -0.4079
  123OSM      N12991   2.001   4.921   6.699  0.4540  0.0487  0.1399
  123OSM    C1512992   1.937   5.020   6.786  0.0899 -0.1483  0.1383
  123OSM   H15A12993   2.003   5.104   6.804  0.2777 -0.3857  0.5735
  123OSM   H15B12994   1.899   4.968   6.873  0.4778  0.6715  0.8197
  123OSM   H15C12995   1.845   5.057   6.744 -0.7913 -2.3924 -0.0326
  123OSM    C1412996   2.075   4.992   6.598 -0.0613 -0.5229 -0.4546
  123OSM   H14A12997   2.011   5.056   6.540  0.8429  0.7261 -0.1411
  123OSM   H14B12998   2.120   4.919   6.533  2.4536  0.5759 -0.0748
  123OSM   H14C12999   2.157   5.051   6.637  0.2663 -0.7140 -0.8374
  123OSM    C1313000   2.084   4.835   6.783 -0.1177  0.2578  0.3384
  123OSM   H13A13001   2.114   4.745   6.732  2.0489  0.1964  1.5944
  123OSM   H13B13002   2.038   4.800   6.875  1.1173 -1.3288  0.3931
  123OSM   H13C13003   2.178   4.886   6.794 -0.4362  0.8761  0.2666
  123OSM    C1213004   1.888   4.843   6.627 -0.3507 -0.1397 -0.6932
  123OSM   H12A13005   1.800   4.902   6.607 -0.5961  0.5484  2.0464
  123OSM   H12B13006   1.852   4.768   6.696 -1.8936 -0.7335 -2.0574
  123OSM    C1113007   1.926   4.758   6.505 -0.5022 -0.2293 -0.2534
  123OSM   H11A13008   2.004   4.681   6.529  0.5989  1.1601  0.8292
  123OSM   H11B13009   1.987   4.811   6.429  0.6707  0.6580  1.2461
  123OSM      P13010   1.767   4.558   6.486  0.0504  0.1917 -0.0624
  123OSM    O1313011   1.630   4.527   6.441  0.5202 -0.0023 -0.1245
  123OSM    O1413012   1.874   4.466   6.439 -0.2556  0.3914 -0.5617
  123OSM    O1113013   1.774   4.573   6.641  0.3089  0.3483 -0.3075
  123OSM    O1213014   1.807   4.704   6.441 -0.9136 -0.5603  0.0752
  123OSM    C1S13015   1.830   4.471   6.729 -0.0277  0.9897 -0.1927
  123OSM    H1S13016   1.939   4.470   6.709  0.0007 -1.3377 -0.2081
  123OSM    H1T13017   1.794   4.368   6.709 -0.7785  0.3675  3.5783
  123OSM     NF13018   1.887   4.415   6.963 -0.2384 -0.1179 -0.2701
  123OSM    HNF13019   1.857   4.322   6.983 -0.4158  0.4415  2.4755
  123OSM    C2S13020   1.799   4.496   6.877  0.2860 -0.2725 -0.3967
  123OSM    H2S13021   1.830   4.600   6.901  1.3233 -1.2409  2.9747
  123OSM    C3S13022   1.643   4.475   6.904  0.9657 -0.1344 -0.7765
  123OSM    H3S13023   1.608   4.370   6.888 -0.7063  0.3318 -0.3429
  123OSM     O313024   1.560   4.546   6.813 -0.4793 -0.4053 -0.0515
  123OSM    HO313025   1.629   4.564   6.749 -1.4112  2.2186 -0.4593
  123OSM    C4S13026   1.604   4.530   7.047 -0.2448 -0.3283 -0.3825
  123OSM    H4S13027   1.585   4.639   7.050  1.7058  0.0365  0.4163
  123OSM    C5S13028   1.555   4.458   7.147 -0.5053  0.3181  0.8160
  123OSM    H5S13029   1.558   4.349   7.135 -1.4860  0.3744 -0.1746
  123OSM    C6S13030   1.504   4.512   7.277 -0.0929 -0.5477  0.5225
  123OSM    H6S13031   1.394   4.497   7.279 -0.3861  1.0680 -1.1474
  123OSM    H6T13032   1.525   4.621   7.279 -0.5714 -0.4275 -0.3903
  123OSM    C7S13033   1.568   4.435   7.393 -0.3689  0.1860 -0.5960
  123OSM    H7S13034   1.677   4.455   7.383 -0.7482  2.1643 -1.3203
  123OSM    H7T13035   1.550   4.327   7.377  2.0299 -0.4421  0.4944
  123OSM    C8S13036   1.520   4.480   7.536 -0.1807 -0.7381  0.0454
  123OSM    H8S13037   1.409   4.480   7.537 -0.2046  1.3350  1.2716
  123OSM    H8T13038   1.547   4.586   7.557 -2.5026  0.3850 -2.1196
  123OSM    C9S13039   1.565   4.395   7.657  0.2479  0.1173  0.0975
  123OSM    H9S13040   1.672   4.372   7.639  0.4593  1.3648 -0.3316
  123OSM    H9T13041   1.501   4.305   7.656 -1.8280  1.3470  3.9683
  123OSM   C10S13042   1.562   4.456   7.799  0.5492  0.1734 -0.4723
  123OSM   H10S13043   1.657   4.513   7.811  0.7124  0.2474 -1.8968
  123OSM   H10T13044   1.561   4.374   7.874 -1.9262  1.5135  1.0864
  123OSM   C11S13045   1.435   4.525   7.853  0.6230  0.5471 -0.0758
  123OSM   H11S13046   1.367   4.439   7.870  1.2785 -0.2587 -1.3778
  123OSM   H11T13047   1.390   4.586   7.771 -0.2699 -0.5201 -0.4076
  123OSM   C12S13048   1.452   4.601   7.985  0.2643  0.0632 -0.0381
  123OSM   H12S13049   1.369   4.672   8.005  1.5497  1.0287  2.3230
  123OSM   H12T13050   1.533   4.676   7.993  0.8971 -0.6083  0.0007
  123OSM   C13S13051   1.458   4.517   8.112 -0.9596 -0.7654 -1.0580
  123OSM   H13S13052   1.541   4.443   8.116 -2.3321 -2.3014  0.4647
  123OSM   H13T13053   1.363   4.461   8.122  0.0795 -2.2187  1.8690
  123OSM   C14S13054   1.474   4.610   8.240  0.2337 -0.0249 -0.4769
  123OSM   H14S13055   1.400   4.692   8.226  2.3140  2.1111  0.4481
  123OSM   H14T13056   1.574   4.658   8.244 -0.1344  0.7067  2.5105
  123OSM   C15S13057   1.438   4.554   8.372 -0.0830  0.5909 -0.1790
  123OSM   H15S13058   1.468   4.448   8.373  1.4153  1.0003 -0.0498
  123OSM   H15T13059   1.327   4.558   8.385 -0.2800 -1.7889 -0.7524
  123OSM   C16S13060   1.495   4.631   8.495 -0.3597 -0.5477 -0.5421
  123OSM   H16S13061   1.467   4.738   8.487 -1.1064 -0.7812 -1.2060
  123OSM   H16T13062   1.605   4.616   8.484 -0.4516  0.4668 -4.2594
  123OSM   C17S13063   1.447   4.570   8.624  0.0325  0.3490 -0.8378
  123OSM   H17S13064   1.448   4.459   8.615  0.6950  0.4812 -2.8460
  123OSM   H17T13065   1.343   4.599   8.647 -0.3532 -1.0826 -0.7239
  123OSM   C18S13066   1.538   4.613   8.750 -0.3934  0.1771 -0.3545
  123OSM   H18S13067   1.640   4.579   8.723 -0.6453 -2.1496  1.3253
  123OSM   H18T13068   1.528   4.560   8.847  0.6535 -3.3382 -1.9901
  123OSM   H18U13069   1.528   4.723   8.769  5.6241  0.7675  1.8256
  123OSM    C1F13070   2.020   4.435   6.987  0.0080 -0.7124 -0.1097
  123OSM     OF13071   2.073   4.534   6.946  0.0183 -0.3281 -0.1635
  123OSM    C2F13072   2.091   4.335   7.078  0.2075 -0.7557 -0.5757
  123OSM    H2F13073   2.057   4.240   7.033 -0.1579  0.1357 -2.2604
  123OSM    H2G13074   2.038   4.344   7.176 -2.2729 -0.2629 -1.8699
  123OSM    C3F13075   2.242   4.354   7.096  0.5477  0.9948  0.1590
  123OSM    H3F13076   2.268   4.462   7.088 -2.3219  1.8111  0.4016
  123OSM    H3G13077   2.288   4.297   7.013 -1.4156 -1.0137  0.3492
  123OSM    C4F13078   2.293   4.293   7.223 -0.2647 -0.8887  0.6834
  123OSM    H4F13079   2.400   4.268   7.206 -0.6170 -1.5609 -0.6552
  123OSM    H4G13080   2.240   4.199   7.246 -1.6680  0.4326  3.3575
  123OSM    C5F13081   2.288   4.378   7.354 -0.2249  0.1589 -1.1496
  123OSM    H5F13082   2.180   4.395   7.375 -0.1765 -1.2291  0.4146
  123OSM    H5G13083   2.353   4.468   7.338  3.3902 -1.6070  1.9838
  123OSM    C6F13084   2.339   4.286   7.474  0.6463 -0.0915  0.0985
  123OSM    H6F13085   2.437   4.244   7.443  1.2872  0.0665  1.8044
  123OSM    H6G13086   2.264   4.205   7.485  0.0828  0.5104  0.7993
  123OSM    C7F13087   2.349   4.361   7.611  0.1370 -0.9432 -0.0349
  123OSM    H7F13088   2.289   4.453   7.594  0.3168 -0.9944 -1.0257
  123OSM    H7G13089   2.454   4.393   7.626  1.0511 -2.9269 -1.7191
  123OSM    C8F13090   2.295   4.277   7.726 -0.0626 -0.0442  0.4169
  123OSM    H8F13091   2.369   4.195   7.736  0.0569  0.1535  1.2194
  123OSM    H8G13092   2.191   4.251   7.696 -0.5642  1.6845  0.5467
  123OSM    C9F13093   2.294   4.338   7.863  0.0788 -0.4264 -0.6778
  123OSM    H9F13094   2.272   4.445   7.876 -0.7925 -0.7239  0.5303
  123OSM   C10F13095   2.316   4.271   7.978 -0.0112  0.5859  0.6081
  123OSM   H10F13096   2.300   4.336   8.066 -1.6434  1.4194 -0.2525
  123OSM   C11F13097   2.341   4.127   8.005 -0.0861 -0.1966 -0.5595
  123OSM   H11F13098   2.333   4.063   7.914 -1.0145 -2.9176  1.3105
  123OSM   H11G13099   2.267   4.089   8.078  0.8259 -1.0377 -0.0359
  123OSM   C12F13100   2.481   4.105   8.070 -0.0259 -0.2863  0.0750
  123OSM   H12F13101   2.568   4.159   8.027  0.1068 -1.1382 -0.7468
  123OSM   H12G13102   2.512   4.005   8.035 -0.6314 -0.3011 -0.4230
  123OSM   C13F13103   2.490   4.115   8.222  0.7947  0.5264  0.0394
  123OSM   H13F13104   2.410   4.046   8.259  1.3866 -1.1902 -1.6838
  123OSM   H13G13105   2.477   4.219   8.258  2.9844  1.5304 -1.8196
  123OSM   C14F13106   2.621   4.060   8.283 -0.4593 -0.1338  0.0587
  123OSM   H14F13107   2.704   4.120   8.240 -0.8257  0.3180 -0.0186
  123OSM   H14G13108   2.633   3.955   8.249  0.0212 -0.2939  0.6912
  123OSM   C15F13109   2.627   4.057   8.439 -0.3342 -0.4067 -0.7025
  123OSM   H15F13110   2.532   4.023   8.486  0.4231  0.9261  2.0287
  123OSM   H15G13111   2.639   4.163   8.468  2.6108 -0.7492 -0.3482
  123OSM   C16F13112   2.740   3.982   8.500  0.4633  0.2289  0.0417
  123OSM   H16F13113   2.840   4.010   8.461  1.0420  1.1048  1.9893
  123OSM   H16G13114   2.729   3.872   8.509  1.4661 -0.1038 -2.3533
  123OSM   C17F13115   2.767   4.014   8.652 -0.4198 -0.1661 -0.3813
  123OSM   H17F13116   2.853   3.959   8.696 -1.7451 -0.9642  1.3697
  123OSM   H17G13117   2.686   3.993   8.725  2.2745 -2.2874  2.2503
  123OSM   C18F13118   2.814   4.164   8.678  0.1986  0.1587  0.8213
  123OSM   H18F13119   2.838   4.176   8.785 -0.6075 -1.0607  1.1612
  123OSM   H18G13120   2.735   4.230   8.637 -2.0444 -2.8568 -0.0353
  123OSM   H18H13121   2.906   4.171   8.616  0.3377 -0.2827  0.9723
  124OSM      N13122   2.766   0.585   5.849 -0.7467 -0.2271  0.7454
  124OSM    C1513123   2.886   0.627   5.768 -0.3624 -0.0625  0.8102
  124OSM   H15A13124   2.963   0.553   5.757  0.8206  1.1715  0.4834
  124OSM   H15B13125   2.936   0.718   5.796 -1.5543  1.3820 -1.4126
  124OSM   H15C13126   2.864   0.644   5.663  0.3709  0.5669  0.7523
  124OSM    C1413127   2.654   0.676   5.807  0.5871  0.1488 -0.0363
  124OSM   H14A13128   2.676   0.780   5.826  0.1881  0.0464  1.1118
  124OSM   H14B13129   2.564   0.654   5.863 -0.5745 -0.7628 -2.1632
  124OSM   H14C13130   2.638   0.663   5.701  0.7674 -1.1622  0.0888
  124OSM    C1313131   2.729   0.449   5.812  0.7776 -0.5612  0.0098
  124OSM   H13A13132   2.622   0.441   5.827  0.7301 -0.3780 -0.2207
  124OSM   H13B13133   2.779   0.372   5.868  1.4896  0.0727  0.2623
  124OSM   H13C13134   2.742   0.435   5.705 -3.0301 -1.4068 -0.4951
  124OSM    C1213135   2.797   0.594   6.000  0.1784 -0.5858 -0.3812
  124OSM   H12A13136   2.713   0.578   6.066  0.6154 -0.0965  0.3061
  124OSM   H12B13137   2.828   0.696   6.017 -2.4240  0.2110  0.0037
  124OSM    C1113138   2.916   0.502   6.051  0.0016  0.3515  0.2798
  124OSM   H11A13139   2.955   0.534   6.150  1.2211  0.7493 -0.3118
  124OSM   H11B13140   3.000   0.506   5.978 -0.3629  2.8848 -0.0902
  124OSM      P13141   2.794   0.313   6.180  0.1367  0.3642  0.0002
  124OSM    O1313142   2.649   0.296   6.159  0.4865  0.0566  0.0251
  124OSM    O1413143   2.862   0.193   6.235  0.8577  0.7449 -0.8756
  124OSM    O1113144   2.811   0.422   6.294  0.0450 -0.4806  0.3755
  124OSM    O1213145   2.868   0.369   6.051  0.0473  0.5592 -0.2219
  124OSM    C1S13146   2.725   0.414   6.409  0.1971  0.0184 -0.7352
  124OSM    H1S13147   2.708   0.307   6.432  1.7513 -0.3053 -0.9797
  124OSM    H1T13148   2.626   0.461   6.388 -0.7700 -1.0300  1.2359
  124OSM     NF13149   2.739   0.442   6.657 -0.1327 -0.3800  0.5333
  124OSM    HNF13150   2.706   0.516   6.714  0.3756  0.0782  0.2416
  124OSM    C2S13151   2.794   0.481   6.530  0.6542  0.1344  0.4102
  124OSM    H2S13152   2.899   0.444   6.524 -0.1645 -2.2150 -1.9341
  124OSM    C3S13153   2.794   0.637   6.502 -0.3666  0.1449  0.4508
  124OSM    H3S13154   2.692   0.676   6.483 -1.6983 -1.8005  3.0600
  124OSM     O313155   2.864   0.674   6.378  0.6134 -0.1657  0.1315
  124OSM    HO313156   2.856   0.589   6.334 -1.3292 -0.8682  1.7107
  124OSM    C4S13157   2.854   0.721   6.616 -0.5164  0.2308 -0.2257
  124OSM    H4S13158   2.960   0.703   6.639 -0.2159  0.8298 -1.0798
  124OSM    C5S13159   2.777   0.808   6.690 -0.4450 -0.0609  0.4348
  124OSM    H5S13160   2.667   0.803   6.678 -0.2684 -1.5647 -0.6677
  124OSM    C6S13161   2.831   0.907   6.798 -0.0905  0.1096  0.1351
  124OSM    H6S13162   2.786   1.009   6.798 -1.7028 -0.5837  0.2505
  124OSM    H6T13163   2.937   0.931   6.773 -0.4411  1.9311  0.2169
  124OSM    C7S13164   2.816   0.851   6.944  0.4073 -0.3061  0.2582
  124OSM    H7S13165   2.710   0.827   6.964  0.2770 -1.3308 -1.4864
  124OSM    H7T13166   2.846   0.930   7.016  0.0318  0.5660 -0.5252
  124OSM    C8S13167   2.894   0.719   6.981  0.4390 -0.2507 -0.6430
  124OSM    H8S13168   2.999   0.730   6.947  0.8416  0.1431  0.6702
  124OSM    H8T13169   2.857   0.634   6.919 -3.0622 -0.0531  0.9088
  124OSM    C9S13170   2.890   0.678   7.131 -0.0125 -0.1156  0.2709
  124OSM    H9S13171   2.938   0.755   7.194 -1.2181 -0.8884  2.2475
  124OSM    H9T13172   2.949   0.584   7.128 -2.2307 -1.5712 -0.0613
  124OSM   C10S13173   2.751   0.637   7.185  0.4556 -0.4975 -0.2526
  124OSM   H10S13174   2.688   0.580   7.114  0.3783  0.5155 -1.0245
  124OSM   H10T13175   2.714   0.737   7.217 -0.3069 -1.0627  0.6739
  124OSM   C11S13176   2.762   0.563   7.322 -0.3865 -0.1455 -0.3531
  124OSM   H11S13177   2.848   0.612   7.373  0.5025 -3.3061  1.4596
  124OSM   H11T13178   2.794   0.457   7.307  2.7810  0.4901  0.9717
  124OSM   C12S13179   2.631   0.565   7.409 -0.5578 -0.6803 -0.2534
  124OSM   H12S13180   2.547   0.534   7.344 -0.0503 -1.5990 -0.4802
  124OSM   H12T13181   2.608   0.673   7.425 -1.1584 -0.6470 -1.2435
  124OSM   C13S13182   2.643   0.492   7.541 -0.0811  0.1690 -0.2782
  124OSM   H13S13183   2.727   0.539   7.597 -0.2230 -1.2716  1.2482
  124OSM   H13T13184   2.654   0.382   7.524 -0.7995 -0.0686  0.6851
  124OSM   C14S13185   2.525   0.511   7.637 -0.1554  0.1042 -0.3083
  124OSM   H14S13186   2.435   0.466   7.590 -0.6068  1.8806 -1.2437
  124OSM   H14T13187   2.501   0.620   7.634  1.6019  0.6081  1.8994
  124OSM   C15S13188   2.547   0.476   7.786  0.4791  0.3745 -0.1137
  124OSM   H15S13189   2.621   0.549   7.823  2.5780 -2.1353  0.9298
  124OSM   H15T13190   2.600   0.381   7.810 -0.1346  0.0916  0.1503
  124OSM   C16S13191   2.406   0.490   7.857 -0.4717 -0.4064  0.3082
  124OSM   H16S13192   2.326   0.426   7.814 -0.7179  1.1280 -1.6652
  124OSM   H16T13193   2.382   0.597   7.837 -0.4317 -0.8062 -2.1582
  124OSM   C17S13194   2.403   0.487   8.011 -1.1333 -0.7051  0.0235
  124OSM   H17S13195   2.471   0.404   8.038 -0.6518 -0.5074 -0.5445
  124OSM   H17T13196   2.299   0.461   8.042 -2.3013 -0.2038 -3.0741
  124OSM   C18S13197   2.453   0.614   8.080  0.8067 -0.0512  0.5096
  124OSM   H18S13198   2.480   0.600   8.187  0.5758  0.2671  0.6104
  124OSM   H18T13199   2.379   0.696   8.071  0.7680 -0.1250  0.1501
  124OSM   H18U13200   2.544   0.655   8.031 -0.0633  1.2313 -0.0835
  124OSM    C1F13201   2.751   0.317   6.708  0.5869  0.0733  0.5288
  124OSM     OF13202   2.781   0.220   6.635  0.1126  0.6721 -0.5667
  124OSM    C2F13203   2.716   0.308   6.851 -0.3978 -0.5207 -0.4228
  124OSM    H2F13204   2.609   0.333   6.861 -1.1209 -2.5925 -2.1214
  124OSM    H2G13205   2.781   0.381   6.904 -3.0384  2.0355 -0.4962
  124OSM    C3F13206   2.734   0.169   6.923  0.5695 -0.3326  0.0905
  124OSM    H3F13207   2.839   0.132   6.919  0.8055  0.2631  0.5738
  124OSM    H3G13208   2.678   0.097   6.860 -2.0761  1.1263  0.6432
  124OSM    C4F13209   2.687   0.171   7.070 -0.4469  0.3355  0.1978
  124OSM    H4F13210   2.741   0.256   7.117  0.4916  0.1068 -0.4468
  124OSM    H4G13211   2.715   0.070   7.107 -3.6112 -0.8515 -0.3094
  124OSM    C5F13212   2.535   0.186   7.089 -0.0635  0.1087  0.0268
  124OSM    H5F13213   2.474   0.095   7.073 -1.5331  1.1709 -0.5816
  124OSM    H5G13214   2.489   0.270   7.033  0.5224  2.1926  2.4979
  124OSM    C6F13215   2.505   0.229   7.232  0.1283  0.9276 -0.1583
  124OSM    H6F13216   2.421   0.301   7.238 -0.5367  0.3669 -2.0160
  124OSM    H6G13217   2.588   0.288   7.277 -0.1991  1.3880 -0.1524
  124OSM    C7F13218   2.474   0.112   7.321  0.3450  0.6400  0.6647
  124OSM    H7F13219   2.481   0.148   7.427  1.4485 -1.1723  1.2442
  124OSM    H7G13220   2.554   0.038   7.305 -1.7609 -1.4846 -0.6857
  124OSM    C8F13221   2.340   0.048   7.291 -0.0616  0.0157 -0.1392
  124OSM    H8F13222   2.323   0.004   7.191 -1.9157  1.2934 -0.4311
  124OSM    H8G13223   2.266   0.129   7.306 -0.8081 -0.9249  1.6452
  124OSM    C9F13224   2.319  -0.065   7.386  0.1343 -0.0506 -0.0805
  124OSM    H9F13225   2.366  -0.159   7.355  1.4142  0.6781 -0.3961
  124OSM   C10F13226   2.249  -0.060   7.501 -0.6274  0.1505  0.2072
  124OSM   H10F13227   2.245  -0.154   7.559  0.0786  0.7713  1.3024
  124OSM   C11F13228   2.187   0.065   7.558  0.2159 -0.2052  0.3069
  124OSM   H11F13229   2.085   0.074   7.515 -0.2495 -2.6305  0.7462
  124OSM   H11G13230   2.246   0.156   7.532  0.4998  0.2914  2.4587
  124OSM   C12F13231   2.181   0.059   7.710 -0.6666 -0.8502  0.3255
  124OSM   H12F13232   2.286   0.044   7.745 -0.3504  1.9453  0.8170
  124OSM   H12G13233   2.121  -0.031   7.733  0.8263 -2.3674 -1.3996
  124OSM   C13F13234   2.122   0.185   7.778 -0.0639  0.3613  0.7776
  124OSM   H13F13235   2.017   0.198   7.742  0.4762  0.7342 -0.7192
  124OSM   H13G13236   2.166   0.281   7.743  0.9912 -0.8734 -1.4320
  124OSM   C14F13237   2.116   0.180   7.925 -0.2431  0.5548 -0.3605
  124OSM   H14F13238   2.015   0.138   7.944 -0.6910  1.2726 -1.0734
  124OSM   H14G13239   2.114   0.287   7.953  0.4438  0.8127 -1.2450
  124OSM   C15F13240   2.230   0.116   7.999 -1.1203  0.2153 -0.0012
  124OSM   H15F13241   2.321   0.162   7.955 -1.2624  0.5309  0.0331
  124OSM   H15G13242   2.228   0.005   7.987 -0.1961 -0.2473  3.2415
  124OSM   C16F13243   2.240   0.148   8.148 -0.5126  0.2251 -0.3780
  124OSM   H16F13244   2.259   0.258   8.143  2.3428 -0.1767 -0.5173
  124OSM   H16G13245   2.340   0.112   8.181 -0.7266 -0.8925 -0.9042
  124OSM   C17F13246   2.126   0.103   8.234 -0.0003  0.3308  1.4339
  124OSM   H17F13247   2.129  -0.008   8.239 -3.8541 -0.0406 -0.7212
  124OSM   H17G13248   2.030   0.136   8.189  0.7648 -0.2334 -0.7781
  124OSM   C18F13249   2.134   0.160   8.374 -0.1523  0.1896 -0.0198
  124OSM   H18F13250   2.124   0.270   8.380  1.3029  0.3077  0.7590
  124OSM   H18G13251   2.218   0.129   8.440 -0.8127 -0.4838  0.5146
  124OSM   H18H13252   2.047   0.118   8.429 -1.9746  2.3252 -1.1498
  125OSM      N13253   5.011   6.290   6.090 -0.6198  0.1000 -0.5873
  125OSM    C1513254   5.143   6.255   6.023 -0.1767 -0.0333  0.2602
  125OSM   H15A13255   5.174   6.348   5.976 -1.1023 -0.2017 -0.7372
  125OSM   H15B13256   5.125   6.173   5.956  1.7230 -2.2398  2.2874
  125OSM   H15C13257   5.219   6.213   6.086 -1.0668 -1.3190  0.5165
  125OSM    C1413258   4.917   6.350   5.992  0.1641  0.0368 -0.3154
  125OSM   H14A13259   4.930   6.456   5.977 -1.0854  0.5839  1.9614
  125OSM   H14B13260   4.817   6.357   6.032  1.0015 -1.6739  2.3574
  125OSM   H14C13261   4.917   6.296   5.899 -0.2328 -1.9640  0.7712
  125OSM    C1313262   4.955   6.156   6.135  0.6765 -0.1732 -0.1820
  125OSM   H13A13263   5.023   6.104   6.202 -1.8231 -0.3706  2.3954
  125OSM   H13B13264   4.936   6.085   6.056 -2.4320  1.4350 -1.0303
  125OSM   H13C13265   4.859   6.169   6.182  0.0566 -0.7487 -1.2739
  125OSM    C1213266   5.022   6.386   6.207  0.5433  0.0474 -0.0793
  125OSM   H12A13267   5.081   6.346   6.289 -3.5289 -1.1675  2.5415
  125OSM   H12B13268   4.924   6.419   6.238  0.0387  0.3460 -1.8716
  125OSM    C1113269   5.089   6.526   6.186 -0.3628  0.0323 -0.0601
  125OSM   H11A13270   5.196   6.517   6.159 -0.9615  0.5874 -3.0764
  125OSM   H11B13271   5.098   6.573   6.286 -2.2313  2.2588 -0.8577
  125OSM      P13272   4.913   6.708   6.115 -0.2301  0.0862 -0.7115
  125OSM    O1313273   4.956   6.850   6.090 -0.5055  0.1929  0.2746
  125OSM    O1413274   4.803   6.660   6.037 -0.1346 -0.4224  0.4314
  125OSM    O1113275   4.874   6.687   6.270 -0.0925 -0.2000 -0.2622
  125OSM    O1213276   5.036   6.612   6.083  0.6053 -0.4631  0.0439
  125OSM    C1S13277   4.939   6.769   6.367  0.6345 -0.0106 -0.1234
  125OSM    H1S13278   4.896   6.871   6.364  1.1641  0.2406  0.5098
  125OSM    H1T13279   5.049   6.776   6.360  0.6692  0.6468  0.8472
  125OSM     NF13280   4.959   6.819   6.615  0.4136  0.6661  1.0102
  125OSM    HNF13281   5.042   6.793   6.664  1.6817 -0.1472 -1.4135
  125OSM    C2S13282   4.901   6.723   6.518 -0.1239  0.1727 -0.4745
  125OSM    H2S13283   4.791   6.724   6.537 -0.2110  0.8913 -0.9830
  125OSM    C3S13284   4.954   6.590   6.551  0.3732  0.1239  0.5635
  125OSM    H3S13285   5.064   6.594   6.540  0.6157 -0.8660  2.3484
  125OSM     O313286   4.910   6.491   6.461  0.2188 -0.6219 -0.1118
  125OSM    HO313287   4.843   6.534   6.408 -0.5414 -1.5669  0.0496
  125OSM    C4S13288   4.921   6.547   6.696 -0.0305  0.8994  0.4261
  125OSM    H4S13289   5.005   6.548   6.766  0.1223  0.7674  0.2441
  125OSM    C5S13290   4.808   6.491   6.739  1.0129  0.8343  0.0086
  125OSM    H5S13291   4.729   6.474   6.664  1.1625  4.2744 -1.1475
  125OSM    C6S13292   4.781   6.450   6.880 -0.0795  0.4448  0.7688
  125OSM    H6S13293   4.784   6.339   6.885  2.8915  0.4347  0.7854
  125OSM    H6T13294   4.678   6.485   6.901  0.5300  2.7647  0.1874
  125OSM    C7S13295   4.881   6.507   6.983 -0.4278  0.1628 -0.4319
  125OSM    H7S13296   4.883   6.618   6.977 -0.9329  0.1679 -0.5442
  125OSM    H7T13297   4.986   6.479   6.956  0.0623  0.3042  1.2300
  125OSM    C8S13298   4.842   6.469   7.129 -0.0499  0.0532 -0.7104
  125OSM    H8S13299   4.830   6.359   7.140 -1.6450  0.4163  2.2872
  125OSM    H8T13300   4.739   6.499   7.158 -0.2010 -2.2917  1.4553
  125OSM    C9S13301   4.948   6.520   7.228 -0.1578 -0.3973  0.3937
  125OSM    H9S13302   4.969   6.624   7.198 -0.1487 -0.6073 -0.3419
  125OSM    H9T13303   5.042   6.461   7.220 -0.3640 -0.8297  1.0758
  125OSM   C10S13304   4.908   6.525   7.380  0.2008 -0.3240  0.8625
  125OSM   H10S13305   4.922   6.419   7.412 -0.1597 -0.1377  1.6669
  125OSM   H10T13306   4.803   6.553   7.400  0.0264  0.1029 -0.5509
  125OSM   C11S13307   4.996   6.609   7.473 -0.1059  0.2759  0.3080
  125OSM   H11S13308   4.955   6.712   7.462  0.7541  0.4579 -1.5294
  125OSM   H11T13309   5.102   6.608   7.441  0.9013 -1.2184  3.3274
  125OSM   C12S13310   4.998   6.562   7.619 -0.2683  0.7164 -0.6043
  125OSM   H12S13311   5.024   6.455   7.611 -0.0260  0.7389 -0.1408
  125OSM   H12T13312   4.897   6.562   7.667  0.4110  2.1686  0.9135
  125OSM   C13S13313   5.101   6.621   7.713 -0.2858 -0.0220 -0.8695
  125OSM   H13S13314   5.072   6.728   7.726 -2.4124 -0.3818 -2.2000
  125OSM   H13T13315   5.204   6.613   7.672 -0.0393 -0.7772 -0.1351
  125OSM   C14S13316   5.115   6.547   7.852  0.0664 -0.0057 -0.6446
  125OSM   H14S13317   5.131   6.437   7.841  1.1620  0.2677 -2.0874
  125OSM   H14T13318   5.009   6.560   7.883  0.1864  0.1406 -0.2824
  125OSM   C15S13319   5.217   6.610   7.951  0.0410 -0.4825  0.1082
  125OSM   H15S13320   5.187   6.715   7.972  0.7870  0.0192 -1.1697
  125OSM   H15T13321   5.318   6.617   7.904  0.3119  2.3218  0.9166
  125OSM   C16S13322   5.223   6.545   8.091  0.4853  0.1303  0.1311
  125OSM   H16S13323   5.307   6.575   8.156  0.6791  0.7398 -0.3861
  125OSM   H16T13324   5.237   6.436   8.077  0.6982  0.2081 -0.2692
  125OSM   C17S13325   5.097   6.564   8.174  0.6253 -0.3043 -0.3427
  125OSM   H17S13326   5.003   6.537   8.122 -0.4370  0.8286  0.9131
  125OSM   H17T13327   5.091   6.673   8.195 -0.4076 -0.4441  0.1600
  125OSM   C18S13328   5.108   6.490   8.309  0.6703  0.4487 -0.0774
  125OSM   H18S13329   5.083   6.384   8.290 -0.2251  0.2567  1.9052
  125OSM   H18T13330   5.028   6.532   8.375 -1.4014 -0.0571 -2.1401
  125OSM   H18U13331   5.202   6.504   8.366  0.3710  1.1601  0.2629
  125OSM    C1F13332   4.919   6.943   6.623  0.3992  0.1362  0.5630
  125OSM     OF13333   4.810   6.981   6.574 -0.0376 -0.2485  0.1092
  125OSM    C2F13334   5.012   7.037   6.703 -0.1557  0.5492 -0.2964
  125OSM    H2F13335   5.118   7.025   6.674  0.1577 -1.2909  1.3711
  125OSM    H2G13336   5.008   7.004   6.809  0.8411 -0.3830 -0.5363
  125OSM    C3F13337   4.962   7.181   6.693  0.3602 -0.4875  0.5097
  125OSM    H3F13338   4.868   7.195   6.751 -0.2103 -0.0129 -0.4809
  125OSM    H3G13339   4.937   7.213   6.589  3.0975  1.1586  0.2658
  125OSM    C4F13340   5.057   7.285   6.756 -0.8227  0.2234  0.4074
  125OSM    H4F13341   5.006   7.383   6.748  0.3080  0.8200  0.3404
  125OSM    H4G13342   5.152   7.301   6.701  0.1007 -1.8352  1.2636
  125OSM    C5F13343   5.105   7.260   6.896  0.4156  0.0807 -0.5091
  125OSM    H5F13344   5.182   7.179   6.899  0.2115 -0.0956  0.2870
  125OSM    H5G13345   5.023   7.232   6.965  0.6009  1.5934  0.3778
  125OSM    C6F13346   5.174   7.383   6.962  0.2629  0.1541 -0.1905
  125OSM    H6F13347   5.199   7.356   7.067  4.4006 -2.6952 -1.6291
  125OSM    H6G13348   5.098   7.463   6.973 -1.5014 -1.4927  0.0457
  125OSM    C7F13349   5.303   7.439   6.897  0.2046  0.5873 -0.1287
  125OSM    H7F13350   5.282   7.470   6.793  0.4090  0.4681 -0.2069
  125OSM    H7G13351   5.371   7.351   6.904 -1.6193 -0.7657  1.8920
  125OSM    C8F13352   5.373   7.554   6.972  0.2712  0.9049 -0.4086
  125OSM    H8F13353   5.379   7.517   7.076 -0.1032 -1.0513 -1.0470
  125OSM    H8G13354   5.315   7.648   6.986  1.0859  1.3785 -0.1455
  125OSM    C9F13355   5.514   7.580   6.924  0.4016 -0.1272  0.0298
  125OSM    H9F13356   5.546   7.507   6.849 -1.0983  0.7741 -1.5526
  125OSM   C10F13357   5.590   7.682   6.961  0.2898 -0.0923 -0.3349
  125OSM   H10F13358   5.695   7.691   6.933  0.4162 -1.2059 -0.2799
  125OSM   C11F13359   5.563   7.800   7.050  0.2267 -0.2330  0.0568
  125OSM   H11F13360   5.455   7.818   7.068  0.3729  0.6306  0.0786
  125OSM   H11G13361   5.600   7.891   7.000  0.9883 -0.2067  0.6460
  125OSM   C12F13362   5.644   7.781   7.189  0.0977 -0.0829  0.2520
  125OSM   H12F13363   5.645   7.885   7.228  0.5714  0.5655 -1.3900
  125OSM   H12G13364   5.748   7.757   7.159 -0.4761 -1.1536 -1.0057
  125OSM   C13F13365   5.580   7.688   7.287  0.0559 -0.0573  0.3234
  125OSM   H13F13366   5.596   7.587   7.245 -0.3961 -0.2184  0.5263
  125OSM   H13G13367   5.469   7.693   7.287 -0.1459 -2.4780 -1.5216
  125OSM   C14F13368   5.637   7.706   7.426 -0.0141 -0.8960 -1.0323
  125OSM   H14F13369   5.646   7.814   7.448 -2.8576 -0.8716  0.4662
  125OSM   H14G13370   5.736   7.656   7.435 -0.0652 -0.8398 -0.1021
  125OSM   C15F13371   5.571   7.627   7.543 -0.2574  0.2038  0.1898
  125OSM   H15F13372   5.580   7.520   7.513  0.6713  0.6457 -1.2399
  125OSM   H15G13373   5.469   7.670   7.554  0.5215  2.0050  0.7992
  125OSM   C16F13374   5.644   7.642   7.678 -0.2342  1.0221 -0.5934
  125OSM   H16F13375   5.628   7.748   7.705  0.2733  1.5134 -2.1027
  125OSM   H16G13376   5.750   7.610   7.668 -0.1709  1.5854 -1.9470
  125OSM   C17F13377   5.576   7.560   7.783  0.1579 -0.2229  0.2413
  125OSM   H17F13378   5.564   7.456   7.745 -0.1725 -0.5935  1.3182
  125OSM   H17G13379   5.476   7.601   7.807  0.7658  3.6860 -2.8888
  125OSM   C18F13380   5.656   7.555   7.916  0.1451  0.0702  0.4221
  125OSM   H18F13381   5.741   7.484   7.927 -1.0552 -1.4277  0.3382
  125OSM   H18G13382   5.590   7.535   8.003  1.2932  3.0478  2.1158
  125OSM   H18H13383   5.693   7.657   7.939 -0.5688  0.4511 -0.0710
  126OSM      N13384   2.809   3.574   6.225  0.3814  0.8922  0.5654
  126OSM    C1513385   2.673   3.507   6.217  0.0005  0.3025  0.9036
  126OSM   H15A13386   2.591   3.577   6.209  0.8294  1.1756 -0.5207
  126OSM   H15B13387   2.655   3.445   6.303  0.7767 -2.5942 -0.8859
  126OSM   H15C13388   2.683   3.433   6.139 -1.3323 -1.3903  2.2789
  126OSM    C1413389   2.913   3.471   6.200 -0.1515  0.1572 -0.1465
  126OSM   H14A13390   2.904   3.379   6.256  0.8152 -0.3237 -0.7639
  126OSM   H14B13391   3.009   3.507   6.232  0.6364 -1.2432 -0.8565
  126OSM   H14C13392   2.923   3.442   6.097  2.4854  0.3828 -0.0245
  126OSM    C1313393   2.815   3.671   6.113  1.0317  0.1763 -0.1509
  126OSM   H13A13394   2.747   3.753   6.129 -0.8405 -0.7190 -2.9145
  126OSM   H13B13395   2.807   3.614   6.022  2.7041 -0.4875  0.0782
  126OSM   H13C13396   2.910   3.722   6.112  0.3440  1.5391  0.8787
  126OSM    C1213397   2.827   3.645   6.363  0.1991 -0.1242 -0.6299
  126OSM   H12A13398   2.932   3.663   6.379  0.3006 -1.4602  0.3324
  126OSM   H12B13399   2.805   3.576   6.443  0.1841  0.2875 -0.2764
  126OSM    C1113400   2.745   3.772   6.384 -0.1475  1.4313  0.1055
  126OSM   H11A13401   2.637   3.748   6.383 -0.1222  1.3297 -0.6195
  126OSM   H11B13402   2.767   3.838   6.297 -1.3386  1.8619  0.1136
  126OSM      P13403   2.714   3.927   6.608 -0.2073  0.1446 -0.1708
  126OSM    O1313404   2.778   3.929   6.738 -0.2634 -0.0493  0.2637
  126OSM    O1413405   2.681   4.055   6.542 -0.4242 -0.3165  0.8317
  126OSM    O1113406   2.578   3.846   6.624  0.1748 -0.3656  0.0382
  126OSM    O1213407   2.792   3.829   6.509 -0.3499 -0.1746  0.0475
  126OSM    C1S13408   2.575   3.719   6.681  0.0142  0.3951 -0.3043
  126OSM    H1S13409   2.666   3.662   6.650  0.0127  0.5331 -0.5677
  126OSM    H1T13410   2.488   3.663   6.640 -0.8186  2.0470 -0.8940
  126OSM     NF13411   2.548   3.593   6.886  0.3483 -0.8311  0.0085
  126OSM    HNF13412   2.467   3.558   6.932 -1.7061  2.5676 -0.6707
  126OSM    C2S13413   2.544   3.729   6.833 -0.1671  0.5561  0.1267
  126OSM    H2S13414   2.634   3.779   6.876  0.1047  0.1714  0.0217
  126OSM    C3S13415   2.418   3.812   6.854  0.7011 -0.1314 -0.5139
  126OSM    H3S13416   2.334   3.760   6.803  1.2331  0.0116 -1.5733
  126OSM     O313417   2.406   3.944   6.792  0.3052  0.7558  0.5084
  126OSM    HO313418   2.478   3.941   6.729 -0.9806 -1.3496 -0.9926
  126OSM    C4S13419   2.392   3.841   7.001 -0.1302  0.0184  0.2184
  126OSM    H4S13420   2.478   3.864   7.065 -1.9741  1.0848  2.4481
  126OSM    C5S13421   2.267   3.841   7.060  0.6232 -0.2401 -0.5830
  126OSM    H5S13422   2.179   3.827   6.997 -0.1916  0.5961  0.3368
  126OSM    C6S13423   2.223   3.857   7.205 -0.1149  0.0284  0.2574
  126OSM    H6S13424   2.173   3.766   7.243  1.2782 -1.2824 -0.8803
  126OSM    H6T13425   2.148   3.937   7.215 -2.2897 -1.8894  0.1458
  126OSM    C7S13426   2.338   3.878   7.304  0.1200  0.2562  0.0009
  126OSM    H7S13427   2.392   3.970   7.272 -0.1194  0.4098  0.0366
  126OSM    H7T13428   2.406   3.790   7.299  1.0010  0.9298 -0.1954
  126OSM    C8S13429   2.292   3.907   7.450 -0.0931 -0.1579 -0.0804
  126OSM    H8S13430   2.204   3.844   7.475 -0.3951  0.8609  1.6103
  126OSM    H8T13431   2.263   4.014   7.462 -0.6223 -0.4640  1.5802
  126OSM    C9S13432   2.390   3.860   7.551 -0.6051  0.0080 -0.1189
  126OSM    H9S13433   2.468   3.936   7.575 -0.5537 -0.4509  1.2597
  126OSM    H9T13434   2.464   3.785   7.514  2.3215  3.1731 -1.2976
  126OSM   C10S13435   2.317   3.824   7.679  0.4830 -0.1930  0.1000
  126OSM   H10S13436   2.240   3.748   7.653 -0.8731  0.8372  0.9915
  126OSM   H10T13437   2.276   3.916   7.726  1.7483  0.4950 -0.0992
  126OSM   C11S13438   2.407   3.758   7.780  0.2585 -0.2802 -0.4926
  126OSM   H11S13439   2.478   3.826   7.832 -0.0952  0.2385 -0.6762
  126OSM   H11T13440   2.473   3.684   7.729  2.6298  0.1095  1.7869
  126OSM   C12S13441   2.319   3.713   7.900  0.2487 -0.0467 -0.5553
  126OSM   H12S13442   2.260   3.622   7.877 -0.3491  0.2436 -0.1841
  126OSM   H12T13443   2.245   3.793   7.924  0.6872  0.2871 -0.3069
  126OSM   C13S13444   2.401   3.689   8.029  0.8560  0.0915 -0.0151
  126OSM   H13S13445   2.487   3.760   8.028 -0.9114  2.3680  0.0050
  126OSM   H13T13446   2.436   3.585   8.018  1.8478  0.3277  0.7291
  126OSM   C14S13447   2.317   3.710   8.153 -0.2485  0.2841  0.1057
  126OSM   H14S13448   2.227   3.646   8.141 -0.2325  0.4012 -0.6823
  126OSM   H14T13449   2.274   3.811   8.172 -2.1974 -0.8142  2.0906
  126OSM   C15S13450   2.403   3.679   8.282 -0.5515  0.2134 -0.4655
  126OSM   H15S13451   2.502   3.729   8.282 -0.2593 -0.2574 -2.8403
  126OSM   H15T13452   2.415   3.568   8.278 -0.4763  0.2488 -1.1875
  126OSM   C16S13453   2.339   3.726   8.410  0.3505 -0.2130 -0.0884
  126OSM   H16S13454   2.236   3.686   8.411  0.8732 -1.8875  3.3898
  126OSM   H16T13455   2.335   3.837   8.409  5.2254  0.2162  1.0755
  126OSM   C17S13456   2.416   3.691   8.541 -0.6749  1.1667  0.7064
  126OSM   H17S13457   2.365   3.734   8.629 -0.3882 -1.8774  2.5153
  126OSM   H17T13458   2.522   3.721   8.530 -0.1637 -0.9865 -0.9226
  126OSM   C18S13459   2.427   3.539   8.562 -0.2565  0.4124  0.1643
  126OSM   H18S13460   2.326   3.500   8.540  0.6084 -0.3530 -2.9666
  126OSM   H18T13461   2.468   3.521   8.664  4.7685 -0.1920 -1.6542
  126OSM   H18U13462   2.500   3.501   8.488  1.4329  0.0923  1.9175
  126OSM    C1F13463   2.652   3.511   6.882 -0.4042  0.4093  0.2534
  126OSM     OF13464   2.765   3.550   6.854  0.3335 -0.1369  0.0657
  126OSM    C2F13465   2.617   3.362   6.896 -0.1791  0.1582 -0.4172
  126OSM    H2F13466   2.606   3.317   6.795  0.1184 -2.4333  0.6395
  126OSM    H2G13467   2.512   3.360   6.932  0.0354 -0.7755  0.1886
  126OSM    C3F13468   2.717   3.267   6.961 -0.6367 -0.6672  0.1115
  126OSM    H3F13469   2.815   3.273   6.909  0.5122 -0.7381  2.1526
  126OSM    H3G13470   2.675   3.164   6.958  0.2652 -1.0286 -0.4383
  126OSM    C4F13471   2.746   3.314   7.105 -0.0013  0.6571  0.2364
  126OSM    H4F13472   2.651   3.303   7.161 -0.4046 -1.6119 -0.7883
  126OSM    H4G13473   2.789   3.416   7.100  2.4198 -0.3472 -2.5633
  126OSM    C5F13474   2.844   3.225   7.190  0.1841 -0.5546  0.0726
  126OSM    H5F13475   2.947   3.235   7.150  1.2427  2.1416  3.0346
  126OSM    H5G13476   2.809   3.120   7.194 -1.6952 -0.0274 -1.2723
  126OSM    C6F13477   2.852   3.275   7.336 -0.4748 -0.1361 -0.6384
  126OSM    H6F13478   2.752   3.289   7.384  0.1465  0.8639  0.4132
  126OSM    H6G13479   2.894   3.376   7.322  3.0626 -1.2678  0.6114
  126OSM    C7F13480   2.928   3.180   7.420  0.4567  1.1387 -0.7235
  126OSM    H7F13481   3.030   3.162   7.381  0.9822 -0.0798  1.0854
  126OSM    H7G13482   2.878   3.081   7.424  1.2833  0.7387  0.3313
  126OSM    C8F13483   2.936   3.221   7.568 -0.8674 -0.4409  0.5717
  126OSM    H8F13484   2.835   3.202   7.609 -2.4883  1.4191 -2.2518
  126OSM    H8G13485   2.966   3.328   7.578 -0.8406 -0.3985  0.0652
  126OSM    C9F13486   3.050   3.145   7.639  0.6821 -0.1391  0.5093
  126OSM    H9F13487   3.139   3.118   7.580 -0.0781  0.2548 -0.8710
  126OSM   C10F13488   3.037   3.093   7.759 -0.1719  0.2578  0.5962
  126OSM   H10F13489   3.118   3.029   7.797  0.7679  0.2269 -1.3308
  126OSM   C11F13490   2.926   3.111   7.852 -0.0860 -0.5408  0.3105
  126OSM   H11F13491   2.878   3.018   7.888 -1.5890 -0.0167 -0.2500
  126OSM   H11G13492   2.849   3.178   7.807  0.8543  1.1752  1.1984
  126OSM   C12F13493   2.975   3.184   7.983  0.3376 -0.5181 -0.2526
  126OSM   H12F13494   2.886   3.212   8.044  1.8685  1.8195  1.0748
  126OSM   H12G13495   3.029   3.276   7.950 -0.2563 -0.0638  0.0209
  126OSM   C13F13496   3.076   3.099   8.064  0.8254  0.1149  0.7569
  126OSM   H13F13497   3.181   3.122   8.037  1.0440 -0.2047  1.3280
  126OSM   H13G13498   3.056   2.992   8.043  1.3014  0.0450  0.6545
  126OSM   C14F13499   3.046   3.113   8.215  0.4954  0.4912 -0.7489
  126OSM   H14F13500   2.935   3.106   8.224  0.4399  0.1011 -1.5938
  126OSM   H14G13501   3.086   3.209   8.253  1.0247  0.4750 -1.2621
  126OSM   C15F13502   3.127   3.017   8.298 -1.0147 -0.5702 -0.7364
  126OSM   H15F13503   3.229   3.009   8.255 -0.8538 -3.0507 -0.0514
  126OSM   H15G13504   3.079   2.916   8.295  1.3491 -1.9356  2.2504
  126OSM   C16F13505   3.132   3.058   8.446 -0.1392 -0.1341 -0.9334
  126OSM   H16F13506   3.028   3.064   8.484  1.1162  0.7853  2.7095
  126OSM   H16G13507   3.182   3.155   8.469 -2.6227  0.3394  3.6478
  126OSM   C17F13508   3.186   2.932   8.522 -0.5901  0.4185  0.9406
  126OSM   H17F13509   3.123   2.845   8.494 -1.7393  1.1361  1.2207
  126OSM   H17G13510   3.165   2.937   8.631  0.5603 -0.9700  1.2572
  126OSM   C18F13511   3.336   2.918   8.506 -0.2625 -0.7462  0.5029
  126OSM   H18F13512   3.381   3.014   8.537 -1.9797  0.4229 -0.4340
  126OSM   H18G13513   3.371   2.916   8.400  1.0774 -0.9829  0.9329
  126OSM   H18H13514   3.385   2.833   8.558 -1.1597 -1.0331  0.8926
  127OSM      N13515   0.178   5.053   5.939 -0.2404  0.1933 -0.0653
  127OSM    C1513516   0.043   5.102   5.897  1.1225 -0.1516 -0.2567
  127OSM   H15A13517   0.040   5.125   5.792 -1.4423 -2.3265 -0.7500
  127OSM   H15B13518   0.014   5.191   5.952  1.7055  1.2609 -2.1485
  127OSM   H15C13519  -0.034   5.028   5.913 -1.7939  2.6281 -0.3871
  127OSM    C1413520   0.215   4.928   5.857  0.3278  0.2672 -0.2286
  127OSM   H14A13521   0.216   4.957   5.753 -1.3905  0.4643 -0.2104
  127OSM   H14B13522   0.141   4.853   5.880  0.6185 -0.0190 -0.2132
  127OSM   H14C13523   0.315   4.898   5.885  0.1722 -0.6470 -0.6122
  127OSM    C1313524   0.272   5.164   5.912  0.9025 -0.0373 -0.0080
  127OSM   H13A13525   0.225   5.254   5.949 -0.7940 -1.1455  0.6278
  127OSM   H13B13526   0.296   5.170   5.807  2.6925  0.3927  0.3901
  127OSM   H13C13527   0.366   5.141   5.961 -0.0522 -1.4307  1.2524
  127OSM    C1213528   0.183   5.028   6.087  0.0790 -1.1173 -0.3632
  127OSM   H12A13529   0.279   4.987   6.114 -0.1412 -1.8296 -0.6494
  127OSM   H12B13530   0.117   4.947   6.117 -0.4205 -0.4398  0.4300
  127OSM    C1113531   0.165   5.147   6.183 -0.1629 -0.4394  0.7477
  127OSM   H11A13532   0.162   5.104   6.286  1.5962 -0.2230  0.9221
  127OSM   H11B13533   0.074   5.203   6.153  1.4162  2.4972  1.0858
  127OSM      P13534   0.268   5.374   6.264 -0.1796  0.3331 -0.3093
  127OSM    O1313535   0.403   5.421   6.279  0.1561  0.3863 -0.1594
  127OSM    O1413536   0.172   5.461   6.195  0.3001 -0.5269 -0.5480
  127OSM    O1113537   0.208   5.335   6.404  0.5952  0.2314  0.4788
  127OSM    O1213538   0.285   5.237   6.180 -0.4933  0.2761  0.3601
  127OSM    C1S13539   0.274   5.384   6.520  0.3859 -0.9220 -0.2115
  127OSM    H1S13540   0.292   5.493   6.510 -3.4204 -0.1087  0.1512
  127OSM    H1T13541   0.376   5.345   6.539  0.8251 -0.7378 -2.0240
  127OSM     NF13542   0.221   5.435   6.762  0.3736  0.5935 -0.2893
  127OSM    HNF13543   0.256   5.390   6.844 -2.4644  2.6358  2.2759
  127OSM    C2S13544   0.182   5.356   6.645  0.0044 -0.6498  0.6291
  127OSM    H2S13545   0.079   5.390   6.619  0.4711  0.2544 -0.1175
  127OSM    C3S13546   0.175   5.205   6.672  0.1833  0.3462  0.8268
  127OSM    H3S13547   0.272   5.162   6.706 -0.1954 -0.4230  0.9624
  127OSM     O313548   0.126   5.141   6.555 -0.3240  0.5004  0.7770
  127OSM    HO313549   0.122   5.204   6.483  0.3781 -1.8188 -1.4336
  127OSM    C4S13550   0.076   5.180   6.785  0.5877 -0.4739 -0.5663
  127OSM    H4S13551  -0.019   5.233   6.770 -0.8558 -1.4887  3.6845
  127OSM    C5S13552   0.094   5.131   6.911  0.1567  0.2873 -0.2332
  127OSM    H5S13553   0.198   5.099   6.930  0.0872 -0.6298 -1.2872
  127OSM    C6S13554  -0.006   5.118   7.024 -0.4631 -0.1055  0.4172
  127OSM    H6S13555   0.031   5.041   7.095 -1.4309  1.3004  2.5445
  127OSM    H6T13556  -0.104   5.077   6.991 -1.6416  1.6058  1.6539
  127OSM    C7S13557  -0.017   5.254   7.097  0.3757 -0.3797 -0.4689
  127OSM    H7S13558  -0.044   5.330   7.020 -1.7139 -1.0842 -0.4728
  127OSM    H7T13559   0.085   5.276   7.136  0.6723 -2.2000 -0.1516
  127OSM    C8S13560  -0.118   5.246   7.213 -0.2287 -0.0504  0.1227
  127OSM    H8S13561  -0.097   5.156   7.276 -0.8918  0.5772  1.2750
  127OSM    H8T13562  -0.225   5.247   7.183  0.0427 -2.4694 -1.1764
  127OSM    C9S13563  -0.096   5.370   7.298  0.1779 -0.5945 -0.2011
  127OSM    H9S13564  -0.142   5.462   7.256  0.2176  0.1993  1.3990
  127OSM    H9T13565   0.012   5.394   7.296 -0.3741  2.1378 -1.5099
  127OSM   C10S13566  -0.157   5.348   7.437 -0.2955 -0.6073 -0.7169
  127OSM   H10S13567  -0.119   5.251   7.475 -0.7810 -1.6509 -2.7383
  127OSM   H10T13568  -0.268   5.338   7.442 -0.2468 -0.6298  2.3574
  127OSM   C11S13569  -0.142   5.473   7.525 -0.5917  0.2803 -0.5494
  127OSM   H11S13570  -0.186   5.561   7.474  0.7219  0.9050 -0.6397
  127OSM   H11T13571  -0.035   5.503   7.527  0.6895 -3.6877  1.1800
  127OSM   C12S13572  -0.204   5.441   7.660  0.2495 -0.1856 -0.1992
  127OSM   H12S13573  -0.259   5.345   7.655 -0.1214 -0.1231  1.6306
  127OSM   H12T13574  -0.283   5.518   7.674 -0.5861 -1.1467  0.5111
  127OSM   C13S13575  -0.098   5.446   7.780  0.3066 -0.0465  0.1001
  127OSM   H13S13576  -0.024   5.529   7.781  1.1794 -0.8009 -0.5868
  127OSM   H13T13577  -0.043   5.350   7.786  0.0052 -0.2151  0.1653
  127OSM   C14S13578  -0.177   5.431   7.906  0.1902 -0.0120  0.6878
  127OSM   H14S13579  -0.113   5.408   7.994  1.5767  1.4026  0.0928
  127OSM   H14T13580  -0.257   5.356   7.893 -0.7071  0.3931  3.2226
  127OSM   C15S13581  -0.243   5.556   7.961  0.0773  0.5266  0.3239
  127OSM   H15S13582  -0.293   5.613   7.880 -1.2406  0.0429  0.7612
  127OSM   H15T13583  -0.164   5.625   7.997 -0.5696  1.7706 -0.5993
  127OSM   C16S13584  -0.348   5.526   8.067 -0.2490 -0.3889 -0.5637
  127OSM   H16S13585  -0.294   5.497   8.160  0.4313 -0.8835 -1.1060
  127OSM   H16T13586  -0.414   5.440   8.041  1.9148 -2.5614  0.7332
  127OSM   C17S13587  -0.435   5.654   8.089 -0.3066 -0.0372 -0.0275
  127OSM   H17S13588  -0.482   5.690   7.994  0.4552 -0.3329 -0.5221
  127OSM   H17T13589  -0.375   5.739   8.125  1.2839 -1.3250  0.4561
  127OSM   C18S13590  -0.551   5.628   8.180  0.5484 -0.2117  0.2610
  127OSM   H18S13591  -0.629   5.574   8.122  1.3659  0.7855 -1.8693
  127OSM   H18T13592  -0.593   5.721   8.225  1.2601  0.8532 -1.1525
  127OSM   H18U13593  -0.523   5.560   8.262  0.3117 -1.7491 -0.8903
  127OSM    C1F13594   0.215   5.572   6.771  0.1236  0.8668  0.0574
  127OSM     OF13595   0.189   5.643   6.668 -0.1792 -0.0732 -1.1692
  127OSM    C2F13596   0.250   5.633   6.901  0.9121 -0.2155 -0.2175
  127OSM    H2F13597   0.356   5.621   6.930  0.0099 -1.5515  2.9566
  127OSM    H2G13598   0.191   5.590   6.985  0.6553  1.9397  0.7845
  127OSM    C3F13599   0.223   5.789   6.890  1.5341  0.3446  0.1831
  127OSM    H3F13600   0.117   5.787   6.857  2.1951  1.2214 -2.1670
  127OSM    H3G13601   0.278   5.834   6.805 -1.9961  2.2014 -1.3099
  127OSM    C4F13602   0.245   5.865   7.012  0.0470 -0.2835 -0.7815
  127OSM    H4F13603   0.237   5.975   7.003 -0.2603 -0.2498 -0.1236
  127OSM    H4G13604   0.347   5.846   7.051 -0.1198 -0.4208 -0.4099
  127OSM    C5F13605   0.153   5.820   7.125 -0.2960  0.4364  1.0010
  127OSM    H5F13606   0.146   5.710   7.133 -1.9251  0.1784 -2.3037
  127OSM    H5G13607   0.052   5.845   7.088 -1.1704 -2.0771  1.4862
  127OSM    C6F13608   0.183   5.885   7.259  0.2487 -0.9072  0.2524
  127OSM    H6F13609   0.160   5.993   7.249  0.0347 -1.0091 -0.3576
  127OSM    H6G13610   0.289   5.869   7.290  0.0983 -0.6504  0.9164
  127OSM    C7F13611   0.096   5.834   7.363  0.2518  0.1017 -0.4721
  127OSM    H7F13612   0.091   5.723   7.369 -0.7432  0.1822  0.6329
  127OSM    H7G13613  -0.009   5.868   7.347  0.1819  0.9938  1.6050
  127OSM    C8F13614   0.137   5.893   7.500 -0.0578  0.2131  0.5880
  127OSM    H8F13615   0.116   6.002   7.505 -1.0273  0.0686 -0.0376
  127OSM    H8G13616   0.248   5.894   7.501  0.0297  2.5363 -1.1860
  127OSM    C9F13617   0.074   5.825   7.617  0.7134  0.1777 -0.2651
  127OSM    H9F13618  -0.022   5.778   7.592  0.6034  0.4600 -0.3773
  127OSM   C10F13619   0.127   5.826   7.742  0.8535 -0.0233  0.1053
  127OSM   H10F13620   0.062   5.772   7.813 -1.2886 -1.5870 -2.7980
  127OSM   C11F13621   0.256   5.885   7.791  0.0792 -0.3597  0.1626
  127OSM   H11F13622   0.317   5.912   7.701  2.9832 -0.4925  1.9434
  127OSM   H11G13623   0.308   5.822   7.866 -2.0436 -0.1856  1.8533
  127OSM   C12F13624   0.222   6.010   7.881 -0.2999  0.3313 -0.1011
  127OSM   H12F13625   0.173   5.972   7.974  0.0976 -1.8789 -0.7349
  127OSM   H12G13626   0.147   6.069   7.824  0.2598  1.2271  0.0821
  127OSM   C13F13627   0.340   6.097   7.913 -0.6069 -0.2196  0.6586
  127OSM   H13F13628   0.395   6.124   7.820 -2.4178 -1.8768 -0.9780
  127OSM   H13G13629   0.410   6.028   7.964  1.6182  1.8026  0.5740
  127OSM   C14F13630   0.313   6.228   7.993 -0.0740  0.1524  0.5594
  127OSM   H14F13631   0.413   6.271   8.015 -0.1886  1.1906 -0.8626
  127OSM   H14G13632   0.247   6.206   8.080 -0.0940 -1.0266  0.2655
  127OSM   C15F13633   0.232   6.328   7.905 -0.1298 -0.3705 -0.0002
  127OSM   H15F13634   0.142   6.272   7.872  0.0025 -0.5027 -0.1380
  127OSM   H15G13635   0.292   6.350   7.814  0.4513 -2.3135 -0.1204
  127OSM   C16F13636   0.204   6.460   7.984 -0.6413 -0.4874 -0.0206
  127OSM   H16F13637   0.166   6.438   8.086 -1.3292 -1.3731 -0.4549
  127OSM   H16G13638   0.121   6.517   7.939 -1.2260  0.0947  1.7421
  127OSM   C17F13639   0.319   6.567   8.002  0.4603  0.6039 -0.0213
  127OSM   H17F13640   0.367   6.588   7.904 -1.7576  0.1299 -1.2831
  127OSM   H17G13641   0.405   6.531   8.062  0.9490  1.9711  0.1329
  127OSM   C18F13642   0.279   6.700   8.071 -0.5187 -0.3688  0.1705
  127OSM   H18F13643   0.345   6.788   8.058 -2.1413  1.2192  1.9490
  127OSM   H18G13644   0.271   6.680   8.180 -2.5158 -0.1978  0.0793
  127OSM   H18H13645   0.176   6.722   8.038 -0.3586 -1.4330 -1.1092
  128OSM      N13646   1.546   1.611   6.122  0.0413 -0.1127 -0.2074
  128OSM    C1513647   1.631   1.599   6.247  0.0519  0.1278 -0.2135
  128OSM   H15A13648   1.736   1.584   6.229  0.5394 -1.6034  3.2457
  128OSM   H15B13649   1.597   1.523   6.315  0.1998  1.6644  1.6585
  128OSM   H15C13650   1.625   1.694   6.298 -0.2757  0.3882 -0.7177
  128OSM    C1413651   1.411   1.670   6.165 -0.4936  0.5053 -0.3111
  128OSM   H14A13652   1.413   1.766   6.213 -0.7382  1.8265 -2.7422
  128OSM   H14B13653   1.367   1.605   6.239 -0.2340  0.9122  0.2093
  128OSM   H14C13654   1.335   1.681   6.088 -1.0724 -0.3941  0.1169
  128OSM    C1313655   1.605   1.708   6.026 -0.1055  0.1481 -0.1250
  128OSM   H13A13656   1.546   1.724   5.937 -2.0877 -0.8570  0.9454
  128OSM   H13B13657   1.700   1.665   5.998  1.3691  2.7757  0.5215
  128OSM   H13C13658   1.621   1.804   6.073  1.1834  0.5159 -1.2469
  128OSM    C1213659   1.533   1.480   6.054 -0.0395  0.4906 -0.1355
  128OSM   H12A13660   1.628   1.452   6.010 -0.8219 -1.8985 -0.4663
  128OSM   H12B13661   1.464   1.487   5.971 -0.5620 -1.6735  0.0515
  128OSM    C1113662   1.466   1.368   6.139  0.3632  0.3677 -0.3226
  128OSM   H11A13663   1.536   1.343   6.222  2.4764  2.8696 -1.2245
  128OSM   H11B13664   1.467   1.272   6.083 -1.2945  0.9474 -1.4115
  128OSM      P13665   1.216   1.378   6.088 -0.0178 -0.2949 -0.1221
  128OSM    O1313666   1.208   1.504   6.010 -0.3045  0.1765 -0.0900
  128OSM    O1413667   1.234   1.250   6.013  0.1666  0.5585 -0.3943
  128OSM    O1113668   1.098   1.371   6.191  0.3029 -0.0402  1.1702
  128OSM    O1213669   1.335   1.391   6.185  0.3996 -0.6139 -0.1383
  128OSM    C1S13670   1.086   1.260   6.279  0.3003 -1.0231 -0.1489
  128OSM    H1S13671   1.188   1.240   6.319  0.0079  1.3645  2.0204
  128OSM    H1T13672   1.048   1.166   6.234 -1.0703 -0.4696 -0.1762
  128OSM     NF13673   1.018   1.184   6.510  0.0500  0.2360 -0.6157
  128OSM    HNF13674   0.939   1.127   6.533  0.5240 -0.5961 -1.0048
  128OSM    C2S13675   1.005   1.293   6.413  0.3078  0.1861  0.8457
  128OSM    H2S13676   1.048   1.378   6.470 -0.0825 -0.7628  2.6069
  128OSM    C3S13677   0.858   1.314   6.374 -0.2995  0.2092  0.2783
  128OSM    H3S13678   0.811   1.215   6.354  1.0370 -0.4692  0.3681
  128OSM     O313679   0.840   1.374   6.242  0.8050 -0.8059  0.4373
  128OSM    HO313680   0.933   1.386   6.224  0.3397  0.8500 -1.2086
  128OSM    C4S13681   0.783   1.376   6.489 -0.6941  0.4196 -0.3083
  128OSM    H4S13682   0.772   1.301   6.569  1.1154 -1.9370 -2.1165
  128OSM    C5S13683   0.743   1.503   6.499 -0.1788 -0.6335 -0.1387
  128OSM    H5S13684   0.770   1.571   6.417 -0.4553  0.6179  0.7672
  128OSM    C6S13685   0.690   1.574   6.624 -0.1206 -0.3903 -0.1490
  128OSM    H6S13686   0.581   1.588   6.607 -0.5726 -0.1063  2.5565
  128OSM    H6T13687   0.742   1.670   6.644 -0.7011 -0.1399  0.1997
  128OSM    C7S13688   0.707   1.499   6.763 -0.0228  0.0501 -0.2441
  128OSM    H7S13689   0.815   1.474   6.773 -0.8395 -3.4229  1.6351
  128OSM    H7T13690   0.643   1.409   6.764  0.9380 -0.7018  2.4382
  128OSM    C8S13691   0.673   1.576   6.888  0.1954  0.1744 -0.1106
  128OSM    H8S13692   0.581   1.638   6.875 -0.0656  0.6386  3.2218
  128OSM    H8T13693   0.757   1.640   6.919  0.0910  1.2447 -1.8898
  128OSM    C9S13694   0.640   1.479   7.005 -0.0060 -0.4913 -0.0883
  128OSM    H9S13695   0.743   1.443   7.027 -0.5631 -2.1007 -0.0101
  128OSM    H9T13696   0.565   1.401   6.979 -0.5974  0.6502 -2.0059
  128OSM   C10S13697   0.588   1.544   7.134  0.9223  0.0681 -0.4663
  128OSM   H10S13698   0.567   1.466   7.210 -2.3290 -0.6282 -1.8966
  128OSM   H10T13699   0.489   1.588   7.109  1.4983  1.6119 -0.1347
  128OSM   C11S13700   0.670   1.659   7.188 -0.3191  0.0462 -0.0379
  128OSM   H11S13701   0.676   1.736   7.109 -1.4439  0.1521 -0.0453
  128OSM   H11T13702   0.773   1.621   7.203 -0.6508 -0.9579 -0.1846
  128OSM   C12S13703   0.610   1.717   7.315  0.3653  1.0121  0.7746
  128OSM   H12S13704   0.501   1.731   7.303  0.3812  1.3218  0.9664
  128OSM   H12T13705   0.651   1.821   7.325  2.2836  0.5376 -1.2605
  128OSM   C13S13706   0.651   1.633   7.436 -0.1161 -0.3838 -0.2756
  128OSM   H13S13707   0.761   1.632   7.448 -0.2089 -1.7918  0.6521
  128OSM   H13T13708   0.623   1.526   7.419  0.8119 -0.6859  0.0541
  128OSM   C14S13709   0.592   1.687   7.561  0.1099 -0.1197 -0.5100
  128OSM   H14S13710   0.490   1.647   7.577  1.1422 -2.3282  1.0775
  128OSM   H14T13711   0.583   1.798   7.565  0.8295 -0.0842  1.3965
  128OSM   C15S13712   0.684   1.648   7.682  0.1328 -1.0849  0.8720
  128OSM   H15S13713   0.788   1.676   7.656  0.0636 -1.5965  0.0129
  128OSM   H15T13714   0.679   1.537   7.682  1.1870 -1.1645 -0.6421
  128OSM   C16S13715   0.636   1.716   7.809 -0.1165 -0.1574  0.2601
  128OSM   H16S13716   0.531   1.683   7.825 -0.2582  0.3776  0.4685
  128OSM   H16T13717   0.629   1.826   7.794 -0.4447 -0.3820 -1.3765
  128OSM   C17S13718   0.721   1.690   7.927 -0.0786  0.3486 -0.3944
  128OSM   H17S13719   0.815   1.748   7.913 -1.1918  2.3253  0.0395
  128OSM   H17T13720   0.756   1.585   7.935 -0.0720  0.4966  3.5600
  128OSM   C18S13721   0.674   1.741   8.064  0.6344 -0.8347  0.0006
  128OSM   H18S13722   0.699   1.663   8.139  0.2130 -1.2125 -0.2544
  128OSM   H18T13723   0.563   1.741   8.066  0.6078 -2.1512 -0.4183
  128OSM   H18U13724   0.711   1.843   8.091  0.0619 -0.7559  0.5086
  128OSM    C1F13725   1.141   1.156   6.573  0.3279 -0.0788  0.4988
  128OSM     OF13726   1.238   1.224   6.552 -0.7884 -0.2034  0.1670
  128OSM    C2F13727   1.139   1.049   6.676 -0.4423 -0.1153  0.8005
  128OSM    H2F13728   1.138   0.954   6.618  0.2973  1.1434 -1.3799
  128OSM    H2G13729   1.043   1.067   6.729  0.3593 -0.4279  2.4255
  128OSM    C3F13730   1.260   1.064   6.778  0.2684 -0.4810 -0.3301
  128OSM    H3F13731   1.248   1.169   6.812  0.5614 -0.4842 -0.2153
  128OSM    H3G13732   1.356   1.061   6.722  1.3543  2.2991  1.2087
  128OSM    C4F13733   1.254   0.969   6.899 -0.4283 -1.1864  0.3508
  128OSM    H4F13734   1.277   0.866   6.863  2.1140 -0.5218 -0.1622
  128OSM    H4G13735   1.150   0.970   6.938 -0.7781 -0.7568 -0.5534
  128OSM    C5F13736   1.350   1.020   6.997 -0.4721  0.3044 -0.3465
  128OSM    H5F13737   1.317   1.120   7.034 -0.9114  1.4267 -3.5151
  128OSM    H5G13738   1.453   1.036   6.958  0.2773  0.8095  1.6917
  128OSM    C6F13739   1.361   0.934   7.125  0.2427 -0.0874  0.1899
  128OSM    H6F13740   1.390   0.830   7.099 -0.4433 -0.7146  1.7713
  128OSM    H6G13741   1.259   0.927   7.170 -0.3798  1.6662 -0.8664
  128OSM    C7F13742   1.458   0.991   7.228  0.0821  0.2762 -0.4725
  128OSM    H7F13743   1.483   1.097   7.205  0.1318  0.5155  0.6503
  128OSM    H7G13744   1.552   0.935   7.209 -0.9992 -1.3463 -1.2161
  128OSM    C8F13745   1.414   0.974   7.375 -0.6836 -0.4494  0.3370
  128OSM    H8F13746   1.388   0.867   7.392 -0.7798 -0.6326 -0.8959
  128OSM    H8G13747   1.320   1.032   7.389 -0.1207  0.3446  0.9175
  128OSM    C9F13748   1.530   1.018   7.458 -0.1057  1.2644 -0.5501
  128OSM    H9F13749   1.629   1.011   7.410 -0.0799 -1.4095 -0.2536
  128OSM   C10F13750   1.527   1.062   7.589 -0.3113  0.0318  0.0869
  128OSM   H10F13751   1.615   1.114   7.629 -1.1631  2.2472 -0.7980
  128OSM   C11F13752   1.412   1.074   7.679 -0.2441 -0.0138 -0.2124
  128OSM   H11F13753   1.423   0.997   7.758  2.1458 -1.5796 -1.8997
  128OSM   H11G13754   1.317   1.061   7.622 -0.9552  1.3453  0.6106
  128OSM   C12F13755   1.406   1.212   7.747  0.4606  0.0552  0.4455
  128OSM   H12F13756   1.401   1.287   7.665  0.2631  0.4798  0.8480
  128OSM   H12G13757   1.503   1.227   7.799  0.6824 -1.8096  0.6573
  128OSM   C13F13758   1.288   1.242   7.848  0.3937  0.3467  0.0255
  128OSM   H13F13759   1.194   1.239   7.789  0.3400  0.4082  0.1082
  128OSM   H13G13760   1.306   1.347   7.880 -0.1266  1.1131 -2.0268
  128OSM   C14F13761   1.287   1.159   7.976 -0.8611  0.1201 -0.0625
  128OSM   H14F13762   1.391   1.135   8.008 -0.5111 -2.2038 -2.5604
  128OSM   H14G13763   1.236   1.061   7.962 -0.9314  0.0303  0.7791
  128OSM   C15F13764   1.217   1.239   8.098 -0.0187  0.2823  0.4322
  128OSM   H15F13765   1.107   1.228   8.097 -0.1340  1.2734  0.8144
  128OSM   H15G13766   1.244   1.347   8.089  1.0645 -0.1084 -1.6987
  128OSM   C16F13767   1.259   1.176   8.234  0.2061  0.6202  0.6226
  128OSM   H16F13768   1.370   1.181   8.237  0.1821  0.9186  1.0233
  128OSM   H16G13769   1.241   1.067   8.226  2.5687  0.1653  0.7800
  128OSM   C17F13770   1.174   1.231   8.349  0.6497  0.0346 -0.0274
  128OSM   H17F13771   1.194   1.168   8.439  0.7569  0.5512  0.3162
  128OSM   H17G13772   1.070   1.206   8.321  0.1291  0.4767  1.3970
  128OSM   C18F13773   1.191   1.372   8.385 -0.0200 -0.0008  0.1790
  128OSM   H18F13774   1.102   1.406   8.443  1.4304  0.7160  2.0675
  128OSM   H18G13775   1.197   1.441   8.298 -0.0873 -0.0505  0.1348
  128OSM   H18H13776   1.282   1.401   8.442  0.5885 -0.5359 -0.5029
  129OSM      N13777   5.361   3.314   5.766 -0.0260 -0.3915  0.5162
  129OSM    C1513778   5.366   3.167   5.760  0.1827  0.2724  0.2885
  129OSM   H15A13779   5.301   3.119   5.688  0.3233  0.4517  0.0383
  129OSM   H15B13780   5.336   3.125   5.855  2.7950 -2.0234  0.2365
  129OSM   H15C13781   5.467   3.136   5.740  0.0285  0.8251 -1.5316
  129OSM    C1413782   5.426   3.358   5.643 -0.6804  0.2736 -0.0840
  129OSM   H14A13783   5.355   3.335   5.565 -2.1396  1.3433  0.8757
  129OSM   H14B13784   5.528   3.325   5.638 -0.6515  0.3714 -0.1167
  129OSM   H14C13785   5.433   3.465   5.633  1.3204  0.0028 -2.2190
  129OSM    C1313786   5.220   3.354   5.763  0.5145 -0.7575 -0.4354
  129OSM   H13A13787   5.208   3.461   5.755 -1.5581 -0.9334 -0.3131
  129OSM   H13B13788   5.172   3.323   5.855  0.0523 -3.1645 -1.4376
  129OSM   H13C13789   5.159   3.309   5.686 -2.1079  1.5127  0.1445
  129OSM    C1213790   5.427   3.374   5.892  0.6609  0.4558 -0.2696
  129OSM   H12A13791   5.413   3.481   5.886 -0.8327  0.2798 -0.1980
  129OSM   H12B13792   5.533   3.356   5.879  0.9310  1.4856  0.3346
  129OSM    C1113793   5.371   3.326   6.023 -0.0082  0.0316 -0.2429
  129OSM   H11A13794   5.424   3.367   6.112 -2.1800 -0.1183  1.1986
  129OSM   H11B13795   5.372   3.215   6.031 -0.7727  0.0664  0.4773
  129OSM      P13796   5.197   3.508   6.095 -0.2369  0.1168  0.2221
  129OSM    O1313797   5.311   3.604   6.088  0.2230  0.2664  0.1539
  129OSM    O1413798   5.079   3.557   6.021  0.1007  0.0818 -0.2556
  129OSM    O1113799   5.160   3.488   6.248  0.1235 -0.0065  0.6956
  129OSM    O1213800   5.235   3.368   6.039  0.0634 -0.1209  0.8141
  129OSM    C1S13801   5.191   3.360   6.308 -0.3847  0.2767  0.6521
  129OSM    H1S13802   5.296   3.331   6.286 -1.3579 -2.3399 -1.1030
  129OSM    H1T13803   5.133   3.280   6.258  0.7520 -0.6132  0.7186
  129OSM     NF13804   5.221   3.231   6.510 -0.1326 -0.1871  0.6228
  129OSM    HNF13805   5.167   3.147   6.520 -0.1134 -0.3837 -0.7181
  129OSM    C2S13806   5.163   3.350   6.455 -0.3690 -0.4565 -0.9576
  129OSM    H2S13807   5.214   3.428   6.516 -1.5285  0.1093 -0.6791
  129OSM    C3S13808   5.017   3.359   6.487 -0.0612  0.1073 -0.1452
  129OSM    H3S13809   4.967   3.271   6.441  0.4551 -0.2529 -0.0183
  129OSM     O313810   4.957   3.478   6.426 -0.4250  0.3043 -0.1344
  129OSM    HO313811   5.025   3.498   6.361  1.7339 -0.1785  1.8118
  129OSM    C4S13812   4.981   3.361   6.641 -0.1621  0.0828 -0.2677
  129OSM    H4S13813   4.988   3.267   6.697 -0.7534  0.9873  1.4094
  129OSM    C5S13814   4.955   3.466   6.718  0.1669 -0.1419 -0.2300
  129OSM    H5S13815   4.970   3.567   6.677 -1.7442  0.6223  0.7939
  129OSM    C6S13816   4.945   3.462   6.868  0.6328  0.5240  0.3963
  129OSM    H6S13817   4.838   3.442   6.891  0.1424 -0.4324 -2.3629
  129OSM    H6T13818   4.971   3.566   6.899  0.2746  1.1131 -1.1783
  129OSM    C7S13819   5.043   3.356   6.932  0.4710  0.1355 -0.5966
  129OSM    H7S13820   5.143   3.379   6.889  0.6023  0.2223 -0.2445
  129OSM    H7T13821   5.023   3.253   6.895  0.9105 -0.4048  0.6166
  129OSM    C8S13822   5.037   3.371   7.085  0.0375  0.0923 -0.4704
  129OSM    H8S13823   4.935   3.355   7.126  0.7082 -3.6020  0.0764
  129OSM    H8T13824   5.062   3.472   7.124  0.8379 -1.0188  2.1307
  129OSM    C9S13825   5.124   3.261   7.146 -0.2227 -0.0157 -0.2426
  129OSM    H9S13826   5.229   3.293   7.131 -0.9286  2.4668 -0.3752
  129OSM    H9T13827   5.109   3.164   7.094  0.7414 -0.1578 -0.2672
  129OSM   C10S13828   5.107   3.242   7.296 -0.1669  0.2417  0.0804
  129OSM   H10S13829   5.006   3.209   7.328  0.3926 -2.5579 -0.7534
  129OSM   H10T13830   5.138   3.340   7.338  0.7261 -0.5110  1.2386
  129OSM   C11S13831   5.206   3.132   7.335 -0.0624  0.1324  0.0795
  129OSM   H11S13832   5.298   3.162   7.280 -0.3018  1.0352  0.1461
  129OSM   H11T13833   5.173   3.029   7.310  3.1503 -1.2741  1.1582
  129OSM   C12S13834   5.245   3.143   7.483 -1.0401  0.8408  0.4175
  129OSM   H12S13835   5.274   3.042   7.519 -1.2997  0.3045 -0.8375
  129OSM   H12T13836   5.147   3.171   7.526 -3.1679  0.4261 -3.6547
  129OSM   C13S13837   5.356   3.245   7.509  0.4246 -0.6474  0.3313
  129OSM   H13S13838   5.323   3.349   7.490 -2.5015 -1.5672 -0.1426
  129OSM   H13T13839   5.439   3.215   7.442  2.3248  0.6767  2.0032
  129OSM   C14S13840   5.407   3.246   7.652 -0.2198 -0.4873  0.3959
  129OSM   H14S13841   5.320   3.261   7.719 -0.3029 -1.2103  0.4499
  129OSM   H14T13842   5.482   3.327   7.663 -1.3301  0.5684  0.3952
  129OSM   C15S13843   5.476   3.117   7.697  0.1015  0.1830 -0.1227
  129OSM   H15S13844   5.560   3.092   7.628 -0.5363  1.3393 -1.3508
  129OSM   H15T13845   5.409   3.031   7.677  1.7189 -1.0387 -0.5471
  129OSM   C16S13846   5.510   3.131   7.846  0.3994  0.7844 -0.2648
  129OSM   H16S13847   5.420   3.182   7.886 -0.0149 -1.1556  1.3959
  129OSM   H16T13848   5.600   3.194   7.862 -1.5023  3.5915 -0.0485
  129OSM   C17S13849   5.513   2.993   7.914  0.1183  0.1048  1.2792
  129OSM   H17S13850   5.601   2.934   7.880 -0.9832 -0.7425 -0.2266
  129OSM   H17T13851   5.431   2.926   7.879 -0.6381  0.4699  2.3209
  129OSM   C18S13852   5.521   2.998   8.069  0.7654 -0.8183 -0.0253
  129OSM   H18S13853   5.586   3.078   8.110  0.4294  0.2694 -1.5047
  129OSM   H18T13854   5.543   2.902   8.120 -0.7791 -0.5852  1.1501
  129OSM   H18U13855   5.422   3.034   8.104  0.0104 -2.1824 -0.6919
  129OSM    C1F13856   5.354   3.222   6.528  0.1176 -0.1941 -0.4575
  129OSM     OF13857   5.427   3.310   6.492 -0.6773 -0.2240 -0.7004
  129OSM    C2F13858   5.403   3.092   6.594 -0.0539 -0.4050  0.0473
  129OSM    H2F13859   5.509   3.087   6.559 -0.4965  0.9712 -1.6742
  129OSM    H2G13860   5.341   3.002   6.571 -1.4181 -0.2477  2.8026
  129OSM    C3F13861   5.403   3.087   6.748  0.2049  0.3727 -0.6051
  129OSM    H3F13862   5.297   3.077   6.782  0.8635 -0.7878  1.2498
  129OSM    H3G13863   5.456   3.180   6.780  1.8237  0.7549 -3.9631
  129OSM    C4F13864   5.494   2.974   6.796 -0.0639  0.0701 -1.0645
  129OSM    H4F13865   5.590   2.982   6.742  1.4988 -0.7259  1.4286
  129OSM    H4G13866   5.455   2.871   6.775 -1.2340  0.6565 -1.9099
  129OSM    C5F13867   5.535   2.997   6.942  1.0357 -0.7880  0.4639
  129OSM    H5F13868   5.461   3.053   7.002  1.5477 -1.5513  1.8606
  129OSM    H5G13869   5.618   3.069   6.927 -0.7817  1.1629 -0.7128
  129OSM    C6F13870   5.589   2.874   7.006 -0.5873 -0.1133  0.5714
  129OSM    H6F13871   5.675   2.823   6.958 -1.6577 -1.1000 -0.3549
  129OSM    H6G13872   5.506   2.800   7.018  0.7710 -1.6799  0.7485
  129OSM    C7F13873   5.630   2.916   7.150 -0.6320 -0.2947  0.0461
  129OSM    H7F13874   5.642   3.026   7.146  0.7283 -0.3674  1.2401
  129OSM    H7G13875   5.733   2.875   7.158  1.1993  3.8299  0.2334
  129OSM    C8F13876   5.536   2.881   7.269  0.2262  0.0525 -0.9795
  129OSM    H8F13877   5.513   2.773   7.265  2.0191 -0.4444  0.7758
  129OSM    H8G13878   5.442   2.940   7.259  0.7280  0.8820 -0.8931
  129OSM    C9F13879   5.605   2.910   7.401  0.5411  0.3211 -0.1228
  129OSM    H9F13880   5.631   3.016   7.415 -0.7483  0.8060 -1.0821
  129OSM   C10F13881   5.614   2.818   7.500 -0.4925  0.0989  0.0121
  129OSM   H10F13882   5.654   2.847   7.599 -2.0334 -0.6261  0.8781
  129OSM   C11F13883   5.573   2.674   7.500  0.4302 -0.0065 -0.0486
  129OSM   H11F13884   5.531   2.640   7.403 -3.9435 -0.8167  1.9038
  129OSM   H11G13885   5.492   2.676   7.576  0.6150  1.4259  0.1218
  129OSM   C12F13886   5.683   2.565   7.531  0.2672 -0.1720  0.2200
  129OSM   H12F13887   5.643   2.462   7.545  1.8229 -1.1567 -2.1219
  129OSM   H12G13888   5.741   2.598   7.620 -0.1863  2.2803 -0.3298
  129OSM   C13F13889   5.782   2.540   7.417  0.2828  0.2687  0.8004
  129OSM   H13F13890   5.864   2.470   7.442  0.9351  0.4716 -0.6585
  129OSM   H13G13891   5.833   2.639   7.408 -0.6029  0.5514 -2.6857
  129OSM   C14F13892   5.734   2.526   7.269 -0.9040 -0.2695 -0.0480
  129OSM   H14F13893   5.673   2.612   7.234 -0.6491 -0.8470 -2.0066
  129OSM   H14G13894   5.662   2.445   7.245 -2.8325  1.4475 -0.4035
  129OSM   C15F13895   5.859   2.516   7.182  0.0467  0.5691  0.0462
  129OSM   H15F13896   5.921   2.435   7.226  1.0369  2.0219  1.4188
  129OSM   H15G13897   5.917   2.608   7.200 -0.3237  0.7166  0.5194
  129OSM   C16F13898   5.829   2.483   7.037 -0.4977  0.4298  0.2832
  129OSM   H16F13899   5.728   2.517   7.007 -1.1623  0.0366  1.9509
  129OSM   H16G13900   5.808   2.374   7.030  1.9099 -0.1136  0.4301
  129OSM   C17F13901   5.943   2.517   6.939  0.3264  0.1991  0.4590
  129OSM   H17F13902   6.024   2.449   6.975  0.1946 -1.2964 -1.8367
  129OSM   H17G13903   5.982   2.620   6.950  1.1989 -0.1131  0.3696
  129OSM   C18F13904   5.901   2.481   6.799 -0.0213  0.3278  0.2312
  129OSM   H18F13905   5.985   2.506   6.731 -2.2113  0.4227 -2.6149
  129OSM   H18G13906   5.826   2.556   6.767  0.8953  0.4509 -1.8065
  129OSM   H18H13907   5.871   2.376   6.782 -2.3978  1.0219 -0.2344
  130OSM      N13908   6.596   0.902   6.214  0.1701 -0.0582 -0.6545
  130OSM    C1513909   6.584   0.847   6.353 -0.2575  0.1106  0.2522
  130OSM   H15A13910   6.523   0.904   6.422 -1.5948 -0.6939 -0.2384
  130OSM   H15B13911   6.674   0.825   6.408  0.2382  0.5085 -0.3908
  130OSM   H15C13912   6.533   0.752   6.345 -1.5840  0.9592 -2.7455
  130OSM    C1413913   6.652   1.042   6.248  0.7444  0.2130  0.6286
  130OSM   H14A13914   6.658   1.100   6.157 -2.7314  0.3207  0.3477
  130OSM   H14B13915   6.754   1.042   6.282  1.1049  0.7960 -0.3918
  130OSM   H14C13916   6.585   1.089   6.319  0.9872  2.6132 -0.6175
  130OSM    C1313917   6.698   0.840   6.131  0.2409  0.4833 -0.4697
  130OSM   H13A13918   6.667   0.742   6.096  1.1580  0.2436 -0.6359
  130OSM   H13B13919   6.789   0.816   6.185 -0.1217 -0.7573 -0.3923
  130OSM   H13C13920   6.722   0.895   6.041  2.0715 -0.0789 -0.3799
  130OSM    C1213921   6.463   0.905   6.151 -0.6511 -0.1300  0.4590
  130OSM   H12A13922   6.474   0.961   6.059 -1.5288 -0.1861  0.3048
  130OSM   H12B13923   6.396   0.968   6.208 -0.0722  2.3064 -1.3614
  130OSM    C1113924   6.392   0.771   6.117  0.2295 -0.2601  0.0789
  130OSM   H11A13925   6.468   0.697   6.084 -0.8577 -0.5784 -1.8664
  130OSM   H11B13926   6.330   0.774   6.025 -0.6690  0.2868  0.6859
  130OSM      P13927   6.169   0.731   6.217  0.0438  0.3985 -0.2687
  130OSM    O1313928   6.135   0.864   6.167  0.2664 -0.0240 -0.0586
  130OSM    O1413929   6.088   0.621   6.166 -0.6011  0.0104 -0.3869
  130OSM    O1113930   6.142   0.739   6.373 -0.3571  0.4298 -1.0490
  130OSM    O1213931   6.329   0.709   6.224  0.2027  0.4479 -0.0223
  130OSM    C1S13932   6.167   0.863   6.440 -1.1213 -0.2539 -0.4790
  130OSM    H1S13933   6.087   0.940   6.435 -0.4735  0.3922 -1.1574
  130OSM    H1T13934   6.259   0.909   6.397 -3.1636  2.3719 -2.3969
  130OSM     NF13935   6.204   0.952   6.662  0.2776  0.5017 -1.0294
  130OSM    HNF13936   6.290   0.999   6.684 -1.6804  3.9292  0.0706
  130OSM    C2S13937   6.210   0.834   6.587  0.4691  0.2576  0.0510
  130OSM    H2S13938   6.133   0.762   6.623 -0.3056  0.8673 -0.3584
  130OSM    C3S13939   6.344   0.757   6.606  0.3305 -0.2745  0.6493
  130OSM    H3S13940   6.438   0.811   6.582  0.9939 -1.5601  0.2425
  130OSM     O313941   6.357   0.643   6.522 -0.1458 -0.1771  0.3615
  130OSM    HO313942   6.291   0.657   6.453 -0.8547  0.1038  1.0755
  130OSM    C4S13943   6.344   0.705   6.748 -0.2462 -1.1158  0.3799
  130OSM    H4S13944   6.396   0.781   6.809 -0.6041 -0.3063 -0.2963
  130OSM    C5S13945   6.290   0.596   6.804 -0.7915  0.2840  0.1119
  130OSM    H5S13946   6.240   0.519   6.744 -0.0952 -0.4158  0.4030
  130OSM    C6S13947   6.297   0.573   6.953  0.0925  0.2181 -0.5365
  130OSM    H6S13948   6.394   0.541   6.997  0.2269 -0.0764 -1.0456
  130OSM    H6T13949   6.223   0.496   6.983  1.0889 -0.6987 -0.3755
  130OSM    C7S13950   6.244   0.699   7.032  0.5539 -0.6585  0.4496
  130OSM    H7S13951   6.150   0.731   6.981  2.1925  1.9245 -1.1562
  130OSM    H7T13952   6.313   0.785   7.016 -0.1172 -0.2130 -0.1070
  130OSM    C8S13953   6.228   0.671   7.183 -0.4732 -0.1672  0.1982
  130OSM    H8S13954   6.324   0.629   7.220 -0.7151  0.7796  2.0408
  130OSM    H8T13955   6.152   0.592   7.197  0.1261 -1.1388 -1.6309
  130OSM    C9S13956   6.183   0.788   7.261 -0.4322  0.1068  0.6347
  130OSM    H9S13957   6.089   0.809   7.207 -0.3823 -2.6373 -0.6904
  130OSM    H9T13958   6.255   0.873   7.263 -1.0432  0.6463  3.1616
  130OSM   C10S13959   6.172   0.739   7.411  0.6169 -0.9455  0.1583
  130OSM   H10S13960   6.277   0.716   7.439  1.3482  0.3449 -1.3418
  130OSM   H10T13961   6.120   0.641   7.408 -1.4772  0.1225 -2.3077
  130OSM   C11S13962   6.093   0.846   7.491 -0.0066 -0.3733  0.2648
  130OSM   H11S13963   5.995   0.855   7.440  0.6178  0.0256 -0.9214
  130OSM   H11T13964   6.146   0.944   7.488 -0.1503 -0.2987  0.1651
  130OSM   C12S13965   6.059   0.795   7.628 -0.0424 -0.7902  0.5655
  130OSM   H12S13966   6.009   0.698   7.606 -1.9169  0.3760 -0.6582
  130OSM   H12T13967   5.987   0.865   7.676 -2.0431 -1.9247 -0.6238
  130OSM   C13S13968   6.167   0.778   7.726  0.1157 -0.2141  0.7054
  130OSM   H13S13969   6.245   0.714   7.680 -0.2840 -0.7647  0.7790
  130OSM   H13T13970   6.129   0.722   7.815 -1.0171  1.3430  1.2520
  130OSM   C14S13971   6.211   0.907   7.791 -0.8380  0.0613 -0.0704
  130OSM   H14S13972   6.264   0.968   7.715  0.6217 -0.0420  0.8354
  130OSM   H14T13973   6.298   0.880   7.855 -1.3092 -0.7819  0.2269
  130OSM   C15S13974   6.117   0.996   7.862 -0.4145 -0.6257 -0.3130
  130OSM   H15S13975   6.051   1.050   7.790 -0.1126 -1.5718 -1.3222
  130OSM   H15T13976   6.177   1.077   7.909 -0.5509 -0.4128 -0.4992
  130OSM   C16S13977   6.037   0.925   7.973  0.2105 -0.2351  1.2204
  130OSM   H16S13978   6.104   0.861   8.035  2.3932  2.5809  1.9434
  130OSM   H16T13979   5.971   0.861   7.911  0.0983  1.6152 -0.6538
  130OSM   C17S13980   5.954   1.019   8.053  0.5356  0.5153  0.0978
  130OSM   H17S13981   5.884   1.070   7.984 -2.4262 -2.9463  0.2916
  130OSM   H17T13982   6.029   1.092   8.092 -1.2894  2.5809 -0.0487
  130OSM   C18S13983   5.869   0.948   8.159  0.5882  0.0368  0.1165
  130OSM   H18S13984   5.780   1.006   8.190  1.2437  1.3681 -0.4433
  130OSM   H18T13985   5.919   0.920   8.254  0.3545 -0.5527  0.0726
  130OSM   H18U13986   5.818   0.853   8.133  1.3728 -0.4650  0.3511
  130OSM    C1F13987   6.089   1.012   6.694 -0.4965 -0.2633 -0.8536
  130OSM     OF13988   5.980   0.960   6.682  0.6433  0.1076  0.5393
  130OSM    C2F13989   6.108   1.150   6.738 -0.3085  0.0393  0.6067
  130OSM    H2F13990   6.119   1.211   6.645  0.5468  1.9853  1.9305
  130OSM    H2G13991   6.210   1.162   6.779  0.9989 -0.4099 -2.2628
  130OSM    C3F13992   5.987   1.203   6.819 -0.0317  0.2980 -0.0670
  130OSM    H3F13993   5.892   1.186   6.763 -0.1108  4.2290 -1.4656
  130OSM    H3G13994   6.006   1.311   6.836 -0.4378  0.3617 -0.0193
  130OSM    C4F13995   5.971   1.142   6.959  0.1503 -0.2846  0.3990
  130OSM    H4F13996   5.952   1.033   6.958  0.9097 -0.4891  2.7582
  130OSM    H4G13997   5.874   1.187   6.990 -1.3470 -2.9551 -0.1215
  130OSM    C5F13998   6.081   1.169   7.059 -0.3854  0.0570 -0.1027
  130OSM    H5F13999   6.119   1.274   7.064  2.6198 -0.8628 -1.3643
  130OSM    H5G14000   6.163   1.103   7.022 -2.3406 -0.9577 -2.9661
  130OSM    C6F14001   6.040   1.129   7.209  0.6645  0.1532  0.2209
  130OSM    H6F14002   6.135   1.114   7.265  0.3460 -0.1237  0.6966
  130OSM    H6G14003   5.995   1.029   7.194  2.6482 -1.2168  2.6571
  130OSM    C7F14004   5.933   1.232   7.270 -0.5569  0.2237  0.4316
  130OSM    H7F14005   5.839   1.232   7.210 -0.2554 -0.3622 -0.0472
  130OSM    H7G14006   5.977   1.334   7.262  1.3369 -0.7009 -2.0051
  130OSM    C8F14007   5.889   1.205   7.420  0.2596  0.3572  0.5684
  130OSM    H8F14008   5.838   1.109   7.443  0.1947  0.1529 -0.3694
  130OSM    H8G14009   5.816   1.287   7.436  0.0304  1.0697 -3.2359
  130OSM    C9F14010   6.003   1.229   7.511  0.1858 -0.5636 -0.7497
  130OSM    H9F14011   6.101   1.201   7.471  0.1147  0.6651 -1.8583
  130OSM   C10F14012   5.996   1.300   7.633 -0.2458 -0.3878  0.2350
  130OSM   H10F14013   6.086   1.310   7.696 -0.1314  0.2224 -0.0176
  130OSM   C11F14014   5.863   1.360   7.683  0.3981  0.1688  0.3447
  130OSM   H11F14015   5.817   1.429   7.610 -1.8700 -0.8928  0.7040
  130OSM   H11G14016   5.891   1.427   7.767  0.3006  0.7307 -0.0710
  130OSM   C12F14017   5.754   1.266   7.739 -0.6896  0.0789 -0.6383
  130OSM   H12F14018   5.801   1.194   7.810  0.2341 -0.1182 -1.4238
  130OSM   H12G14019   5.727   1.200   7.654 -1.7969 -0.5188  0.1489
  130OSM   C13F14020   5.636   1.335   7.817  0.0311 -0.0474 -0.6619
  130OSM   H13F14021   5.555   1.261   7.836 -0.5530  0.6356 -0.4462
  130OSM   H13G14022   5.592   1.407   7.745 -3.2270 -0.2581  0.9327
  130OSM   C14F14023   5.672   1.408   7.951  0.2207  0.5102 -0.6753
  130OSM   H14F14024   5.589   1.455   8.007  0.3012 -0.4273  0.2534
  130OSM   H14G14025   5.741   1.496   7.950  0.9491 -0.0447 -0.3767
  130OSM   C15F14026   5.740   1.310   8.049  0.0593 -0.6700 -1.1337
  130OSM   H15F14027   5.835   1.286   7.997 -0.4044  2.4119 -3.7209
  130OSM   H15G14028   5.676   1.218   8.050  1.7898 -1.9376  0.6088
  130OSM   C16F14029   5.779   1.345   8.195 -0.3471 -0.4570  0.5630
  130OSM   H16F14030   5.840   1.260   8.231  1.7330  0.6954 -0.0646
  130OSM   H16G14031   5.686   1.354   8.255  0.2534 -1.1653  1.6342
  130OSM   C17F14032   5.855   1.480   8.214  0.1840  0.0185  0.1893
  130OSM   H17F14033   5.891   1.489   8.318  1.9201  1.5179 -0.4840
  130OSM   H17G14034   5.773   1.552   8.195 -0.5005 -1.1115 -1.3709
  130OSM   C18F14035   5.975   1.504   8.115  0.5887 -0.0512 -0.0029
  130OSM   H18F14036   5.953   1.480   8.009 -0.0948  2.0873 -0.3969
  130OSM   H18G14037   6.063   1.446   8.151  1.8101  0.8315 -1.4380
  130OSM   H18H14038   6.012   1.609   8.116  0.6749 -0.0842  0.2649
  131OSM      N14039   6.024   4.880   5.778  0.2100  0.4208  0.3886
  131OSM    C1514040   6.055   4.953   5.905  0.4274 -0.2618  0.1256
  131OSM   H15A14041   5.986   5.035   5.913  0.4364 -0.1606 -0.7513
  131OSM   H15B14042   6.158   4.986   5.900  0.3243  0.3690  1.6014
  131OSM   H15C14043   6.054   4.882   5.987  2.2451 -2.6099 -1.7303
  131OSM    C1414044   5.886   4.830   5.791 -0.3664 -0.2120  0.0642
  131OSM   H14A14045   5.845   4.802   5.695  0.5155  2.7854 -1.3058
  131OSM   H14B14046   5.822   4.905   5.835 -1.3396 -2.0041  1.9000
  131OSM   H14C14047   5.888   4.749   5.863 -0.1498 -1.7976 -1.6457
  131OSM    C1314048   6.042   4.984   5.668 -1.0899  0.6223 -0.2420
  131OSM   H13A14049   6.139   5.031   5.680 -0.1544 -1.5727  1.6566
  131OSM   H13B14050   5.974   5.066   5.682 -1.8458 -0.2293  1.2948
  131OSM   H13C14051   6.043   4.946   5.567  1.6738  0.1559 -0.1254
  131OSM    C1214052   6.116   4.761   5.748 -0.3472  1.0114  0.0055
  131OSM   H12A14053   6.214   4.807   5.750  0.1491 -0.0340  0.5847
  131OSM   H12B14054   6.090   4.727   5.649  0.8961 -0.2616  0.0823
  131OSM    C1114055   6.121   4.633   5.835 -0.7654 -1.1849  0.8246
  131OSM   H11A14056   6.191   4.554   5.802 -0.6764 -1.4505  1.6370
  131OSM   H11B14057   6.026   4.575   5.842 -2.0683  0.7608  0.1121
  131OSM      P14058   6.313   4.670   6.012 -0.1110  0.0959 -0.0204
  131OSM    O1314059   6.371   4.539   5.989 -0.1258  0.6592  0.2306
  131OSM    O1414060   6.370   4.779   5.928 -0.2484  0.4245 -0.4279
  131OSM    O1114061   6.313   4.703   6.169 -0.0013 -0.5436 -0.0403
  131OSM    O1214062   6.159   4.663   5.977  0.2691  0.1159 -0.3171
  131OSM    C1S14063   6.269   4.829   6.219  0.4335  0.3716  0.0257
  131OSM    H1S14064   6.159   4.841   6.212  0.5828  1.4015 -0.8150
  131OSM    H1T14065   6.307   4.913   6.157  2.7577 -0.8922 -0.3526
  131OSM     NF14066   6.222   4.965   6.418 -0.3107  0.1598 -1.2230
  131OSM    HNF14067   6.262   5.055   6.407 -1.2470  0.6991 -0.3974
  131OSM    C2S14068   6.296   4.849   6.369  0.6031 -0.2882 -0.2979
  131OSM    H2S14069   6.251   4.757   6.412 -0.8802  0.2074 -0.7487
  131OSM    C3S14070   6.446   4.858   6.397  0.3840  0.6309 -0.4898
  131OSM    H3S14071   6.495   4.951   6.361  0.1066  0.4394 -1.3948
  131OSM     O314072   6.511   4.741   6.335 -0.3422  0.1293  0.1017
  131OSM    HO314073   6.444   4.707   6.275 -0.2804  0.5662 -0.2230
  131OSM    C4S14074   6.481   4.844   6.540 -0.6331 -0.4242 -0.5930
  131OSM    H4S14075   6.455   4.751   6.591  1.0957  0.2161  1.5749
  131OSM    C5S14076   6.542   4.938   6.616 -0.4076 -0.3623  0.2130
  131OSM    H5S14077   6.533   5.040   6.574 -0.6823 -0.3924  0.1999
  131OSM    C6S14078   6.569   4.931   6.763  0.4216 -0.5130  0.0937
  131OSM    H6S14079   6.516   5.011   6.819  0.1546 -2.3426  2.6185
  131OSM    H6T14080   6.677   4.939   6.787  0.7583 -1.6893 -0.9338
  131OSM    C7S14081   6.526   4.796   6.838 -0.7409  0.0453 -0.1279
  131OSM    H7S14082   6.593   4.719   6.795 -0.8627  0.3553 -0.8848
  131OSM    H7T14083   6.419   4.777   6.811 -0.2787 -1.4979 -1.0242
  131OSM    C8S14084   6.541   4.789   6.989  0.7340  0.1082  0.6463
  131OSM    H8S14085   6.644   4.825   7.013  0.1510  1.3293  1.4250
  131OSM    H8T14086   6.515   4.684   7.013  0.0072  0.2483  0.5017
  131OSM    C9S14087   6.444   4.894   7.046 -0.2721  0.8865  0.2144
  131OSM    H9S14088   6.344   4.871   7.004  0.4782 -1.4010 -0.4821
  131OSM    H9T14089   6.474   4.998   7.023 -1.6762  1.3181  0.2812
  131OSM   C10S14090   6.427   4.888   7.202  0.1164 -0.7638  0.1421
  131OSM   H10S14091   6.394   4.786   7.232 -1.0825 -0.2079  0.7931
  131OSM   H10T14092   6.353   4.966   7.231  2.5995  1.6042  0.4996
  131OSM   C11S14093   6.550   4.917   7.282 -0.4657 -0.6176 -0.3247
  131OSM   H11S14094   6.602   4.991   7.217 -1.0964 -0.3772 -0.5591
  131OSM   H11T14095   6.616   4.828   7.293 -1.4448 -1.1607  1.5297
  131OSM   C12S14096   6.544   4.985   7.423  0.5554  0.1125  0.0904
  131OSM   H12S14097   6.465   5.063   7.430  0.5221  0.4180 -2.5807
  131OSM   H12T14098   6.643   5.035   7.429  0.5775 -0.0088  0.8089
  131OSM   C13S14099   6.511   4.878   7.521 -0.2988  0.8815  0.2712
  131OSM   H13S14100   6.575   4.788   7.512 -1.6760 -0.7879  4.5734
  131OSM   H13T14101   6.409   4.842   7.494  0.0102  0.1518  0.0568
  131OSM   C14S14102   6.497   4.936   7.664  0.0406  0.0261 -0.2013
  131OSM   H14S14103   6.413   5.008   7.655 -0.5315 -0.8678 -3.1934
  131OSM   H14T14104   6.588   4.996   7.682 -1.4931  2.7146 -0.8104
  131OSM   C15S14105   6.464   4.834   7.774 -0.2642  0.6957 -0.0057
  131OSM   H15S14106   6.553   4.767   7.782 -0.7995  0.0437  0.5775
  131OSM   H15T14107   6.377   4.773   7.742  1.5213 -2.2695  0.3366
  131OSM   C16S14108   6.444   4.915   7.906 -0.3815 -0.3101 -0.1444
  131OSM   H16S14109   6.401   5.016   7.885  0.8640 -0.2089 -2.6428
  131OSM   H16T14110   6.545   4.928   7.951 -0.9967 -0.9674  1.4893
  131OSM   C17S14111   6.346   4.844   8.013 -0.4984 -0.2771  0.9626
  131OSM   H17S14112   6.354   4.913   8.099 -1.9803  0.6412  0.3949
  131OSM   H17T14113   6.384   4.742   8.037 -2.1534 -1.6720 -1.8149
  131OSM   C18S14114   6.195   4.839   7.972 -0.4719  0.2610  0.4589
  131OSM   H18S14115   6.157   4.942   7.960  3.1719  1.6429 -0.7264
  131OSM   H18T14116   6.133   4.779   8.043 -0.4305 -0.0070  0.2703
  131OSM   H18U14117   6.189   4.789   7.873  3.1841  1.2485 -0.4161
  131OSM    C1F14118   6.097   4.963   6.454 -0.0448  0.0661  0.6117
  131OSM     OF14119   6.035   4.858   6.440  0.2681 -0.1839 -0.6169
  131OSM    C2F14120   6.031   5.091   6.509  0.0499  0.4253  0.4664
  131OSM    H2F14121   5.923   5.072   6.526 -0.2473  3.1588  2.2860
  131OSM    H2G14122   6.037   5.170   6.431  0.4073  0.1726  0.2360
  131OSM    C3F14123   6.080   5.126   6.644 -0.8509 -0.4476 -0.1943
  131OSM    H3F14124   6.024   5.218   6.673  0.6141 -0.1305  1.9017
  131OSM    H3G14125   6.185   5.160   6.636 -0.4706 -1.6179 -0.3050
  131OSM    C4F14126   6.053   5.031   6.757 -0.4808 -0.7852  0.4014
  131OSM    H4F14127   6.106   4.934   6.748  0.6266 -0.0660 -1.3129
  131OSM    H4G14128   5.944   5.011   6.766 -0.4289 -0.6336  1.5663
  131OSM    C5F14129   6.094   5.092   6.892 -0.8139 -0.4066 -0.3516
  131OSM    H5F14130   6.046   5.191   6.905 -2.8499 -1.1140 -1.8248
  131OSM    H5G14131   6.205   5.096   6.894 -0.8655  1.4609  1.1832
  131OSM    C6F14132   6.055   5.005   7.004 -0.2470 -0.1455 -0.0846
  131OSM    H6F14133   6.120   4.915   6.995  0.2744  0.2833 -0.6924
  131OSM    H6G14134   5.951   4.971   6.990  0.2070 -1.0621 -1.3485
  131OSM    C7F14135   6.080   5.071   7.142  0.0511 -0.1815 -0.1297
  131OSM    H7F14136   6.019   5.164   7.149 -0.7292 -0.7755  1.3244
  131OSM    H7G14137   6.186   5.090   7.172 -0.8158  0.6713  2.6936
  131OSM    C8F14138   6.037   4.984   7.259  0.0950 -0.5146  0.3508
  131OSM    H8F14139   6.096   4.890   7.249 -0.2089 -0.6981  0.2855
  131OSM    H8G14140   5.931   4.959   7.240 -0.1708  1.6308 -1.5503
  131OSM    C9F14141   6.059   5.052   7.394 -0.5614 -0.3871  0.4162
  131OSM    H9F14142   6.087   5.157   7.384 -0.4762 -0.4221  0.2714
  131OSM   C10F14143   6.047   4.997   7.515 -0.1366  0.0612  0.1177
  131OSM   H10F14144   6.076   5.058   7.602  0.4009 -1.5774  1.1348
  131OSM   C11F14145   6.015   4.850   7.559  0.3103 -0.1306  0.2169
  131OSM   H11F14146   6.092   4.820   7.633  0.8314  0.4781 -0.0724
  131OSM   H11G14147   6.014   4.788   7.467 -4.1559  1.9671 -1.4412
  131OSM   C12F14148   5.876   4.838   7.635 -0.0440 -0.4054 -0.0663
  131OSM   H12F14149   5.852   4.737   7.673  1.9464 -0.0028  2.5713
  131OSM   H12G14150   5.788   4.877   7.579  0.0359  1.0041  0.7410
  131OSM   C13F14151   5.879   4.929   7.760  0.0198  0.5036 -0.2107
  131OSM   H13F14152   5.877   5.037   7.734 -1.1343  0.5043 -0.1680
  131OSM   H13G14153   5.971   4.910   7.820  0.1643 -2.2148 -1.1543
  131OSM   C14F14154   5.762   4.902   7.853 -0.4736 -0.3480  0.1688
  131OSM   H14F14155   5.755   4.792   7.865 -2.6842 -0.3009 -0.2364
  131OSM   H14G14156   5.674   4.934   7.792  0.8666 -0.3557 -1.8483
  131OSM   C15F14157   5.773   4.981   7.984 -0.2487  0.6452  0.1074
  131OSM   H15F14158   5.776   5.085   7.944 -1.5376  0.0466 -1.7126
  131OSM   H15G14159   5.875   4.971   8.026  1.0126  2.4110 -2.2771
  131OSM   C16F14160   5.650   4.965   8.074  0.6129  0.0947  0.3847
  131OSM   H16F14161   5.657   4.864   8.121  0.5900  0.8700  2.1059
  131OSM   H16G14162   5.552   4.972   8.023  0.0024  2.1392  1.7357
  131OSM   C17F14163   5.668   5.075   8.179 -0.1761 -0.2627 -0.1708
  131OSM   H17F14164   5.668   5.180   8.143 -2.6418 -0.4478 -0.9018
  131OSM   H17G14165   5.767   5.048   8.220  0.1298 -0.7076 -1.1837
  131OSM   C18F14166   5.563   5.055   8.288  0.4087  0.0842  0.7113
  131OSM   H18F14167   5.579   5.135   8.363  0.7441  0.2931  0.4110
  131OSM   H18G14168   5.582   4.956   8.335  1.6293 -0.9446 -1.7919
  131OSM   H18H14169   5.461   5.064   8.245 -0.8292  0.6900  3.5069
  132OSM      N14170   1.554   0.691   6.401  0.5259 -0.8157  0.3389
  132OSM    C1514171   1.571   0.709   6.257 -0.4752  0.2943  0.2691
  132OSM   H15A14172   1.549   0.806   6.214 -1.6720 -0.5861 -1.1740
  132OSM   H15B14173   1.515   0.632   6.206  0.7003 -1.2814  1.2631
  132OSM   H15C14174   1.671   0.676   6.231 -0.3669 -0.2100  1.2733
  132OSM    C1414175   1.411   0.681   6.441 -0.3441 -0.3015  0.2550
  132OSM   H14A14176   1.404   0.631   6.537 -1.0332  0.8623  0.8296
  132OSM   H14B14177   1.355   0.624   6.368  0.8289 -0.6953 -0.3608
  132OSM   H14C14178   1.361   0.775   6.455  0.0654 -0.2401  1.4338
  132OSM    C1314179   1.618   0.571   6.453 -0.5168  0.1313  0.0305
  132OSM   H13A14180   1.594   0.568   6.558  0.4606 -0.9275  0.2511
  132OSM   H13B14181   1.726   0.578   6.446 -0.6254  0.2061 -2.6233
  132OSM   H13C14182   1.593   0.480   6.399  0.9813 -1.4832  1.9096
  132OSM    C1214183   1.625   0.805   6.474  0.4672  0.0100  0.0151
  132OSM   H12A14184   1.726   0.801   6.436  1.1515  0.9885  1.6648
  132OSM   H12B14185   1.635   0.788   6.580  1.4430  1.2842  0.1445
  132OSM    C1114186   1.571   0.947   6.449 -0.0459 -0.5568  0.7363
  132OSM   H11A14187   1.622   1.014   6.522  0.1555  2.0613 -1.6533
  132OSM   H11B14188   1.463   0.963   6.468  0.1157  0.6160  0.7306
  132OSM      P14189   1.757   1.014   6.280  0.1009  0.0282 -0.0585
  132OSM    O1314190   1.843   0.892   6.306  0.1748  0.3604  0.0419
  132OSM    O1414191   1.754   1.064   6.147  0.3598  0.1456  0.0380
  132OSM    O1114192   1.813   1.121   6.382  0.2641 -0.3813 -0.5582
  132OSM    O1214193   1.601   0.988   6.318 -0.1443  0.2640  0.0646
  132OSM    C1S14194   1.734   1.236   6.423  0.0746 -0.3120 -0.3852
  132OSM    H1S14195   1.630   1.203   6.443 -0.4141  1.5925  0.4506
  132OSM    H1T14196   1.726   1.315   6.345  0.5889 -0.8076 -0.9504
  132OSM     NF14197   1.694   1.376   6.630  0.5078 -0.0753 -0.4244
  132OSM    HNF14198   1.699   1.475   6.637  0.1285 -0.1451  1.2631
  132OSM    C2S14199   1.791   1.296   6.555  0.0095 -0.5557  0.1328
  132OSM    H2S14200   1.815   1.210   6.621 -1.1010 -3.2053 -2.6727
  132OSM    C3S14201   1.920   1.369   6.516 -0.4195  0.3130 -0.0550
  132OSM    H3S14202   1.898   1.469   6.472 -0.2956  0.4638  0.2286
  132OSM     O314203   1.999   1.301   6.416  0.5695 -0.4004  0.2229
  132OSM    HO314204   1.938   1.231   6.391 -1.4947  1.0903  0.7945
  132OSM    C4S14205   1.995   1.390   6.639 -0.2084  0.9746  0.1168
  132OSM    H4S14206   1.956   1.474   6.699 -0.2485  0.4623  0.8202
  132OSM    C5S14207   2.090   1.317   6.698 -0.1830 -0.1781  0.3005
  132OSM    H5S14208   2.108   1.218   6.655 -3.1797 -0.7251  0.0772
  132OSM    C6S14209   2.167   1.343   6.827  0.6804  0.4044 -0.1104
  132OSM    H6S14210   2.263   1.288   6.815  2.7009  3.2844  1.6536
  132OSM    H6T14211   2.107   1.285   6.900  2.4965  0.4635  1.5083
  132OSM    C7S14212   2.172   1.488   6.870  0.0242 -0.4590  0.4689
  132OSM    H7S14213   2.066   1.515   6.890  0.9114  1.4396  3.1684
  132OSM    H7T14214   2.208   1.566   6.800 -0.1957  1.3262  2.2411
  132OSM    C8S14215   2.235   1.510   7.012  0.6455 -0.2128 -0.6581
  132OSM    H8S14216   2.239   1.411   7.062 -1.1123  0.0141 -0.0235
  132OSM    H8T14217   2.175   1.576   7.078  0.1453 -1.4049  0.0951
  132OSM    C9S14218   2.386   1.560   7.011 -0.4879 -0.1279 -0.2877
  132OSM    H9S14219   2.392   1.666   6.976 -2.9393  0.4559  0.8720
  132OSM    H9T14220   2.435   1.492   6.937 -0.3501 -0.7719  0.3883
  132OSM   C10S14221   2.462   1.545   7.143  0.3833 -0.3201 -0.0996
  132OSM   H10S14222   2.569   1.566   7.125  0.0755  1.3285 -0.1772
  132OSM   H10T14223   2.448   1.443   7.185  0.3193 -1.0321 -1.7364
  132OSM   C11S14224   2.401   1.653   7.241  0.4056  0.6397  0.0579
  132OSM   H11S14225   2.303   1.617   7.280  1.9094 -1.7842  1.8948
  132OSM   H11T14226   2.403   1.761   7.217  0.7985  1.0345  1.7017
  132OSM   C12S14227   2.487   1.648   7.371 -0.0527  0.0117 -0.7167
  132OSM   H12S14228   2.586   1.693   7.352 -0.7930  2.0876 -0.0051
  132OSM   H12T14229   2.513   1.542   7.390  1.4177  0.3434 -0.7425
  132OSM   C13S14230   2.424   1.700   7.504 -0.0357  1.1850  0.6995
  132OSM   H13S14231   2.329   1.643   7.506 -0.0120  1.0539 -0.7779
  132OSM   H13T14232   2.394   1.807   7.503 -1.9956  0.6781  1.1399
  132OSM   C14S14233   2.515   1.670   7.623 -0.1694  0.0955 -0.9622
  132OSM   H14S14234   2.614   1.702   7.583  0.0251 -0.8372 -1.2523
  132OSM   H14T14235   2.532   1.562   7.640  0.4351  0.6198  2.4571
  132OSM   C15S14236   2.484   1.732   7.755 -0.8968 -0.3383  0.2769
  132OSM   H15S14237   2.377   1.714   7.780 -0.8702 -1.3440 -0.2446
  132OSM   H15T14238   2.491   1.843   7.753 -1.6274 -0.2430  1.6741
  132OSM   C16S14239   2.580   1.686   7.865 -1.0076  0.0567 -0.0576
  132OSM   H16S14240   2.681   1.727   7.840 -1.5370  0.7602 -1.1497
  132OSM   H16T14241   2.593   1.576   7.861  0.2429  0.2014 -0.3653
  132OSM   C17S14242   2.540   1.749   7.999 -0.7978  0.3528  0.2781
  132OSM   H17S14243   2.492   1.848   7.979 -1.1092 -0.3610 -3.2496
  132OSM   H17T14244   2.637   1.760   8.051  1.0016 -3.7487 -1.7273
  132OSM   C18S14245   2.448   1.650   8.075 -0.2593 -0.8942 -0.0287
  132OSM   H18S14246   2.437   1.695   8.176 -0.2271  0.9842 -0.8202
  132OSM   H18T14247   2.489   1.548   8.093  0.7325 -0.2266  1.7639
  132OSM   H18U14248   2.348   1.637   8.030 -0.0786  0.0150 -0.7229
  132OSM    C1F14249   1.595   1.315   6.700  0.1689 -0.4379 -0.2276
  132OSM     OF14250   1.603   1.193   6.715 -0.0940  0.2371  0.1097
  132OSM    C2F14251   1.481   1.398   6.757  0.0247  0.6284 -0.2635
  132OSM    H2F14252   1.394   1.381   6.691 -0.3495  1.3750  0.0245
  132OSM    H2G14253   1.508   1.505   6.741  0.1889  0.3893 -1.7746
  132OSM    C3F14254   1.443   1.373   6.903  0.2227 -0.4030 -0.1052
  132OSM    H3F14255   1.446   1.262   6.913 -0.2942 -0.3924  0.2233
  132OSM    H3G14256   1.335   1.399   6.911 -0.0232 -1.1573 -0.8007
  132OSM    C4F14257   1.533   1.438   7.008 -0.3728  0.9056  0.1302
  132OSM    H4F14258   1.506   1.545   7.008  0.6119  1.1668 -0.0696
  132OSM    H4G14259   1.637   1.449   6.970 -1.1624  0.9905 -2.1511
  132OSM    C5F14260   1.543   1.364   7.142 -0.0408  0.5442  0.8917
  132OSM    H5F14261   1.622   1.285   7.135 -0.6329  0.0478 -0.3822
  132OSM    H5G14262   1.454   1.305   7.172  1.7879 -3.2261 -0.3795
  132OSM    C6F14263   1.581   1.448   7.256 -0.8516 -0.2209  0.2719
  132OSM    H6F14264   1.505   1.528   7.265 -0.4642  0.2055 -0.1725
  132OSM    H6G14265   1.679   1.492   7.227 -0.9160 -1.5046 -2.2110
  132OSM    C7F14266   1.576   1.373   7.388 -0.0555 -0.1995  0.1373
  132OSM    H7F14267   1.659   1.299   7.396  3.2503  3.3696  3.1468
  132OSM    H7G14268   1.474   1.331   7.396 -1.1597  1.3359 -3.8680
  132OSM    C8F14269   1.594   1.471   7.505  0.3134  0.1300  0.1635
  132OSM    H8F14270   1.564   1.422   7.600  2.2261  0.2558  0.8951
  132OSM    H8G14271   1.519   1.552   7.499 -0.5261 -0.6048  0.5749
  132OSM    C9F14272   1.730   1.528   7.522  0.6331  0.3952  0.0775
  132OSM    H9F14273   1.757   1.590   7.435 -2.1559 -0.3153 -1.4083
  132OSM   C10F14274   1.820   1.514   7.624 -0.0410  0.4888 -0.2399
  132OSM   H10F14275   1.923   1.554   7.623 -0.2476  1.0503 -1.5355
  132OSM   C11F14276   1.787   1.430   7.752 -0.2109 -0.1817 -0.0816
  132OSM   H11F14277   1.884   1.384   7.783  0.1125  0.3511 -0.3020
  132OSM   H11G14278   1.720   1.344   7.728 -0.3772 -0.9562  2.8157
  132OSM   C12F14279   1.721   1.519   7.860 -0.3825 -0.4941  0.4508
  132OSM   H12F14280   1.627   1.550   7.810 -0.6465 -1.3387  0.4102
  132OSM   H12G14281   1.777   1.613   7.882 -2.4965  0.9890 -0.1637
  132OSM   C13F14282   1.697   1.455   7.995  0.6932 -0.3510  0.2372
  132OSM   H13F14283   1.644   1.360   7.976 -2.1149  1.6363 -3.1035
  132OSM   H13G14284   1.646   1.529   8.061 -0.4595 -1.4952  0.6618
  132OSM   C14F14285   1.827   1.425   8.072 -0.1021  0.3606  0.0420
  132OSM   H14F14286   1.885   1.358   8.006  0.6447  0.9906  0.0384
  132OSM   H14G14287   1.793   1.368   8.162 -1.9339  0.4953 -0.5163
  132OSM   C15F14288   1.913   1.545   8.115 -0.0132  0.0175  0.6034
  132OSM   H15F14289   1.837   1.613   8.157 -0.3960  0.5748 -0.9527
  132OSM   H15G14290   1.963   1.589   8.026  0.1723 -3.8854 -1.4525
  132OSM   C16F14291   2.006   1.514   8.226  0.3038 -0.1892 -0.2825
  132OSM   H16F14292   2.095   1.470   8.176 -0.0247  1.3938 -2.3968
  132OSM   H16G14293   1.954   1.454   8.304 -0.9877  0.4757 -0.6182
  132OSM   C17F14294   2.064   1.643   8.277  1.0694  0.2951 -0.4452
  132OSM   H17F14295   1.978   1.710   8.303  0.6269 -0.3563 -0.2114
  132OSM   H17G14296   2.125   1.686   8.195  0.3528 -0.6922 -1.5271
  132OSM   C18F14297   2.140   1.618   8.402 -0.4179  0.0237 -0.6066
  132OSM   H18F14298   2.236   1.566   8.385  0.3709  1.1312  0.2535
  132OSM   H18G14299   2.070   1.565   8.469 -0.0688  0.1694 -0.1172
  132OSM   H18H14300   2.160   1.714   8.455 -0.6751  0.9472 -2.1226
  133SAPE     N14301   2.940   6.046  10.595 -0.0963  0.7748  0.0499
  133SAPE   HN114302   2.948   5.942  10.597 -0.8602  0.6947  1.9014
  133SAPE   HN214303   2.980   6.078  10.685 -1.7082 -1.2139  1.5986
  133SAPE   HN314304   2.840   6.075  10.591  0.3763  2.5882  0.6148
  133SAPE   C1214305   3.011   6.096  10.473 -0.5133 -0.3513  0.9041
  133SAPE  H12A14306   3.008   6.207  10.465 -1.0999 -0.5190 -2.8734
  133SAPE  H12B14307   2.961   6.056  10.382  0.5197  2.2108 -0.9180
  133SAPE   C1114308   3.158   6.056  10.479 -1.2884  0.2494 -0.6398
  133SAPE  H11A14309   3.212   6.091  10.389  0.2215  0.6666  0.3909
  133SAPE  H11B14310   3.162   5.945  10.467 -1.7634  0.4006 -2.5764
  133SAPE     P14311   3.374   6.064  10.648 -0.1824  0.4687  0.0389
  133SAPE   O1314312   3.472   6.154  10.579 -0.1834  1.0509  0.3521
  133SAPE   O1414313   3.374   6.072  10.797  0.4239 -0.4179 -0.2021
  133SAPE   O1214314   3.225   6.100  10.602  0.0845 -0.1732 -0.3771
  133SAPE   O1114315   3.398   5.914  10.600  0.5524 -0.0462  0.0353
  133SAPE    C114316   3.402   5.807  10.687 -0.1062  0.3128 -0.3325
  133SAPE    HA14317   3.493   5.751  10.656  1.0137  0.1903  2.8628
  133SAPE    HB14318   3.422   5.835  10.793  0.6185 -0.3772 -0.2750
  133SAPE    C214319   3.291   5.702  10.673  0.0955 -0.4558 -0.6054
  133SAPE    HS14320   3.323   5.610  10.726  0.9427 -0.8273 -1.7145
  133SAPE   O2114321   3.254   5.687  10.538 -0.5185  0.1172 -0.4542
  133SAPE   C2114322   3.341   5.617  10.468 -0.1681 -0.0745 -0.0977
  133SAPE   O2214323   3.445   5.572  10.508  0.4710  0.0413 -0.0677
  133SAPE   C2214324   3.306   5.612  10.323  0.7228 -0.0029  0.0700
  133SAPE   H2R14325   3.399   5.600  10.263  0.1718  0.3963 -0.8932
  133SAPE   H2S14326   3.258   5.514  10.301 -2.4621  1.7504 -1.6343
  133SAPE    C314327   3.160   5.746  10.751  0.2838  0.5709  0.3574
  133SAPE    HX14328   3.131   5.847  10.715  3.1599  1.6417  0.8052
  133SAPE    HY14329   3.184   5.764  10.858 -0.6432 -2.3071  1.1337
  133SAPE   O3114330   3.058   5.646  10.743  0.2561 -1.1396 -0.1813
  133SAPE   C3114331   2.970   5.668  10.646 -0.3960  0.2595 -0.2645
  133SAPE   O3214332   2.960   5.773  10.579  0.2274  0.2215  0.1134
  133SAPE   C3214333   2.893   5.538  10.618  0.4503 -0.3217 -0.0147
  133SAPE   H2X14334   2.788   5.534  10.656  0.6180  1.2058  0.6834
  133SAPE   H2Y14335   2.948   5.449  10.657 -2.4206 -3.7474 -3.0667
  133SAPE   C2314336   3.231   5.741  10.266 -0.5246  0.0976  0.0649
  133SAPE   H3R14337   3.276   5.837  10.300  0.3896 -0.5560  0.7406
  133SAPE   H3S14338   3.128   5.733  10.307 -0.2760 -0.4488  0.5919
  133SAPE   C2414339   3.229   5.746  10.111 -0.1673  0.3194 -0.2641
  133SAPE   H4R14340   3.319   5.685  10.085  0.2563 -0.8120  3.2079
  133SAPE   H4S14341   3.256   5.849  10.081 -4.3162  1.4660 -0.5367
  133SAPE   C2514342   3.098   5.724  10.048  0.8344  0.4760 -0.2124
  133SAPE   H5R14343   3.018   5.782  10.097  0.4728  1.5874 -2.0190
  133SAPE   C2614344   3.063   5.644   9.949  0.6954 -0.9599 -0.3442
  133SAPE   H6R14345   2.955   5.630   9.929  0.0133 -0.3404  2.4952
  133SAPE   C2714346   3.165   5.554   9.874 -0.9048  0.3465  0.2266
  133SAPE   H7R14347   3.245   5.524   9.946 -0.3253  1.1946 -0.0487
  133SAPE   H7S14348   3.223   5.608   9.797  0.1120  0.6383  1.1637
  133SAPE   C2814349   3.101   5.430   9.820  0.2822 -0.0908 -0.4001
  133SAPE   H8R14350   3.057   5.360   9.894 -0.3991  0.7334 -0.0046
  133SAPE   C2914351   3.104   5.380   9.692  0.0003  0.5409  0.3887
  133SAPE   H9R14352   3.040   5.291   9.684 -3.1757  2.7635 -1.2547
  133SAPE  C21014353   3.166   5.434   9.567  0.6151  0.1124  0.5353
  133SAPE  H10R14354   3.201   5.350   9.504 -1.3491 -1.4513  1.4231
  133SAPE  H10S14355   3.256   5.488   9.605  0.3420  1.6460 -0.8703
  133SAPE  C21114356   3.080   5.538   9.493 -0.0846 -0.6284 -1.0482
  133SAPE  H11R14357   3.048   5.628   9.547 -0.4892 -2.3974  1.9286
  133SAPE  C21214358   3.032   5.513   9.368  0.0710 -0.1842 -0.6895
  133SAPE  H12R14359   2.967   5.587   9.319  0.6819  0.0875 -1.0986
  133SAPE  C21314360   3.046   5.381   9.287  1.0475 -0.0506 -0.6364
  133SAPE  H13R14361   3.084   5.294   9.345  1.0748  0.3939  0.0221
  133SAPE  H13S14362   3.114   5.390   9.199  2.2825 -0.4060  0.2521
  133SAPE  C21414363   2.909   5.329   9.249 -0.1676  0.7089 -0.0172
  133SAPE  H14R14364   2.878   5.243   9.310  0.4686  0.6961  0.2966
  133SAPE  C21514365   2.825   5.372   9.153  0.2493  0.6437 -0.2853
  133SAPE  H15R14366   2.733   5.317   9.131 -0.9096  2.2673  0.2951
  133SAPE  C21614367   2.864   5.473   9.051  0.0306 -0.9654  0.5959
  133SAPE  H16R14368   2.973   5.495   9.045  0.1703 -1.5084  1.0625
  133SAPE  H16S14369   2.811   5.569   9.071  1.1562 -0.2111  0.0801
  133SAPE  C21714370   2.821   5.441   8.899  0.5985  0.7799  0.4383
  133SAPE  H17R14371   2.882   5.355   8.863 -0.9512  0.1305 -0.7497
  133SAPE  H17S14372   2.853   5.527   8.837 -0.9705 -0.0446 -1.6471
  133SAPE  C21814373   2.681   5.404   8.886  0.0482 -0.2778 -0.2093
  133SAPE  H18R14374   2.617   5.487   8.925  3.3265  1.2038  2.4886
  133SAPE  H18S14375   2.654   5.317   8.950 -0.3791  0.7615  1.0721
  133SAPE  C21914376   2.659   5.375   8.736  0.0864 -0.1260 -0.5461
  133SAPE  H19R14377   2.717   5.283   8.715 -1.1964 -0.9410 -0.5823
  133SAPE  H19S14378   2.694   5.463   8.678  0.4296 -0.1906 -0.4377
  133SAPE  C22014379   2.511   5.351   8.700 -0.2249  0.0431  0.5321
  133SAPE  H20R14380   2.499   5.324   8.593  0.2451  1.1183  0.1842
  133SAPE  H20S14381   2.453   5.446   8.703  0.4131  0.4962 -0.5408
  133SAPE  H20T14382   2.450   5.277   8.755  1.0238 -0.1698  1.6682
  133SAPE   C3314383   2.900   5.526  10.470  0.1881 -0.0905  0.3910
  133SAPE   H3X14384   2.911   5.418  10.445 -1.2566 -0.2057  0.1593
  133SAPE   H3Y14385   2.984   5.578  10.419  0.7099  0.2015  1.5017
  133SAPE   C3414386   2.771   5.574  10.403 -0.2286  0.4697  0.3673
  133SAPE   H4X14387   2.746   5.681  10.422 -0.6333  0.7683 -1.6016
  133SAPE   H4Y14388   2.683   5.512  10.430  0.5000 -0.2262  1.1937
  133SAPE   C3514389   2.774   5.575  10.250  0.8748  0.3340 -0.0542
  133SAPE   H5X14390   2.867   5.611  10.202  0.3459 -0.4935 -1.8267
  133SAPE   H5Y14391   2.688   5.638  10.218 -0.5724 -1.3004  0.4617
  133SAPE   C3614392   2.734   5.443  10.181 -0.1062 -0.2038 -0.0592
  133SAPE   H6X14393   2.625   5.435  10.202  0.0561 -0.6514  0.6319
  133SAPE   H6Y14394   2.775   5.355  10.235 -1.8328 -0.5996  0.6813
  133SAPE   C3714395   2.772   5.440  10.034 -0.0064  0.4296 -1.0546
  133SAPE   H7X14396   2.882   5.424  10.028 -0.1712 -1.0825 -0.4821
  133SAPE   H7Y14397   2.737   5.532   9.982 -0.2980  1.0400  0.2004
  133SAPE   C3814398   2.703   5.316   9.977 -0.9306  0.5813 -0.2061
  133SAPE   H8X14399   2.603   5.302  10.023 -0.9742  0.3044 -0.3862
  133SAPE   H8Y14400   2.758   5.226  10.010 -0.9919  0.5609 -0.1593
  133SAPE   C3914401   2.697   5.319   9.818 -0.3332  0.2546 -0.3299
  133SAPE   H9X14402   2.804   5.322   9.785  0.6697  3.4074  2.6334
  133SAPE   H9Y14403   2.651   5.414   9.786 -1.4726 -0.6260 -1.4014
  133SAPE  C31014404   2.617   5.206   9.758 -0.1865  0.5003  0.5710
  133SAPE  H10X14405   2.509   5.210   9.784 -0.3819  0.3973 -0.1980
  133SAPE  H10Y14406   2.664   5.111   9.791  0.6727 -0.1048 -2.1009
  133SAPE  C31114407   2.636   5.207   9.607  0.6121 -0.4532 -0.3421
  133SAPE  H11X14408   2.744   5.187   9.591  0.6209 -0.3061 -0.4686
  133SAPE  H11Y14409   2.609   5.309   9.574  2.7613  0.7135  1.2936
  133SAPE  C31214410   2.551   5.105   9.537  0.3739  0.5883  0.1907
  133SAPE  H12X14411   2.449   5.105   9.582  1.0966  0.8682  1.9337
  133SAPE  H12Y14412   2.604   5.012   9.567 -0.6502 -0.5774 -1.4287
  133SAPE  C31314413   2.564   5.126   9.387  0.1455  0.5337 -1.0839
  133SAPE  H13X14414   2.661   5.174   9.363 -0.1443  0.8953 -1.5496
  133SAPE  H13Y14415   2.491   5.203   9.355  1.7474  2.7188  0.2300
  133SAPE  C31414416   2.544   4.984   9.319 -0.5687 -0.4886 -0.0659
  133SAPE  H14X14417   2.442   4.941   9.323 -0.3806 -0.8262  1.4874
  133SAPE  H14Y14418   2.609   4.918   9.380 -0.8337 -1.6700 -1.0082
  133SAPE  C31514419   2.612   4.977   9.172 -0.6267 -0.0155  0.0626
  133SAPE  H15X14420   2.629   4.869   9.153  1.2922  0.2930 -0.1066
  133SAPE  H15Y14421   2.701   5.043   9.167 -0.9022  0.4011  0.5073
  133SAPE  C31614422   2.505   5.025   9.072 -0.3330 -0.2446 -0.5768
  133SAPE  H16X14423   2.484   5.126   9.112  1.9950 -0.6217  1.9171
  133SAPE  H16Y14424   2.419   4.956   9.088  1.0837 -1.9615  0.0435
  133SAPE  C31714425   2.569   5.029   8.929  0.2929  0.2703  0.7801
  133SAPE  H17X14426   2.667   5.082   8.931  1.6868 -2.0074 -0.9253
  133SAPE  H17Y14427   2.505   5.092   8.864 -0.3126 -0.8640  0.2309
  133SAPE  C31814428   2.615   4.888   8.871  0.1275 -0.1621 -0.1016
  133SAPE  H18X14429   2.707   4.848   8.920  2.9570  3.6385 -1.7495
  133SAPE  H18Y14430   2.653   4.911   8.769 -0.5584 -1.2614 -0.6337
  133SAPE  H18Z14431   2.535   4.811   8.868 -0.7421  0.7380 -2.4063
  134SAPE     N14432   5.533   6.148  10.722  0.0134 -0.3385 -0.2257
  134SAPE   HN114433   5.627   6.160  10.766  0.0333  0.7623 -0.5313
  134SAPE   HN214434   5.485   6.239  10.739 -0.4304 -0.5747 -0.1964
  134SAPE   HN314435   5.482   6.075  10.776 -1.8813 -0.3792 -1.9552
  134SAPE   C1214436   5.564   6.121  10.576 -0.0646 -0.0284 -0.1355
  134SAPE  H12A14437   5.662   6.069  10.563  1.1528  2.5913 -2.6117
  134SAPE  H12B14438   5.566   6.214  10.516  0.1116 -1.0916 -1.8543
  134SAPE   C1114439   5.451   6.026  10.520  0.7822  0.4645  0.4411
  134SAPE  H11A14440   5.482   5.978  10.424 -2.0169  0.0165 -0.3178
  134SAPE  H11B14441   5.365   6.093  10.502  2.3314  2.3616 -0.3230
  134SAPE     P14442   5.274   5.881  10.639  0.0498  0.4310  0.2623
  134SAPE   O1314443   5.273   5.749  10.704  0.2484 -0.4655 -0.4656
  134SAPE   O1414444   5.187   5.986  10.701  0.4732 -0.2116  0.0736
  134SAPE   O1214445   5.423   5.927  10.612  0.0515  0.3910 -0.4181
  134SAPE   O1114446   5.238   5.868  10.484  0.2234 -0.5345 -0.0986
  134SAPE    C114447   5.218   5.743  10.422  0.5628 -0.1186 -0.0915
  134SAPE    HA14448   5.166   5.671  10.489 -0.3672 -1.0234 -1.7116
  134SAPE    HB14449   5.158   5.757  10.329  0.4163  0.0418  0.0256
  134SAPE    C214450   5.349   5.678  10.369 -0.6433  0.0075 -0.0056
  134SAPE    HS14451   5.414   5.641  10.451 -0.9197  0.8673  0.6156
  134SAPE   O2114452   5.420   5.773  10.284 -0.3455  0.0256 -0.6500
  134SAPE   C2114453   5.545   5.739  10.260  0.2726  0.4312  0.3485
  134SAPE   O2214454   5.608   5.654  10.318  0.3447  0.1111 -0.2945
  134SAPE   C2214455   5.612   5.829  10.151 -0.4812 -1.4100  0.0774
  134SAPE   H2R14456   5.529   5.857  10.083  1.5035  1.6911 -1.3018
  134SAPE   H2S14457   5.663   5.919  10.192 -1.8752 -0.0990 -0.9456
  134SAPE    C314458   5.314   5.547  10.296  0.4266 -0.0845  0.3220
  134SAPE    HX14459   5.260   5.487  10.372 -0.2851  0.8889  0.6180
  134SAPE    HY14460   5.404   5.492  10.261  1.3718  2.0866 -0.9145
  134SAPE   O3114461   5.220   5.565  10.187  0.0559 -0.6803 -0.4363
  134SAPE   C3114462   5.274   5.608  10.070  0.1192  0.2969 -0.0063
  134SAPE   O3214463   5.391   5.609  10.043 -0.5800 -0.1219  0.4946
  134SAPE   C3214464   5.165   5.639   9.965 -0.7916 -0.3025 -0.8161
  134SAPE   H2X14465   5.090   5.695  10.024 -0.0810 -1.5351  1.3816
  134SAPE   H2Y14466   5.124   5.539   9.938  0.9134 -1.4494  0.5470
  134SAPE   C2314467   5.714   5.752  10.060 -0.2448  0.4701  0.3845
  134SAPE   H3R14468   5.685   5.645  10.053 -2.5426  1.0112  0.7214
  134SAPE   H3S14469   5.814   5.757  10.109  0.3001  0.6933 -0.7214
  134SAPE   C2414470   5.730   5.808   9.920  0.5441  0.6339 -0.0414
  134SAPE   H4R14471   5.819   5.773   9.862 -0.7812  0.0346 -1.7976
  134SAPE   H4S14472   5.742   5.919   9.926 -1.8312  1.0262 -1.3868
  134SAPE   C2514473   5.612   5.791   9.831  0.5820  0.2314  0.7656
  134SAPE   H5R14474   5.535   5.724   9.872  0.3460  0.3170  0.4669
  134SAPE   C2614475   5.591   5.852   9.710 -0.1750  0.6256 -0.0596
  134SAPE   H6R14476   5.505   5.825   9.646 -0.0600 -0.0914  0.0721
  134SAPE   C2714477   5.696   5.939   9.643  0.2879  0.6810 -0.7789
  134SAPE   H7R14478   5.723   5.891   9.546 -0.0820 -0.3749 -0.3664
  134SAPE   H7S14479   5.784   5.942   9.711  0.2459  1.3579 -0.7420
  134SAPE   C2814480   5.639   6.076   9.628 -0.3445 -0.6248  0.2066
  134SAPE   H8R14481   5.610   6.116   9.727 -2.1905 -1.2054 -0.0511
  134SAPE   C2914482   5.636   6.164   9.523  0.7102 -0.1250 -0.1415
  134SAPE   H9R14483   5.593   6.264   9.538 -0.5559 -0.6647 -0.0248
  134SAPE  C21014484   5.683   6.152   9.372  0.6691 -0.2651  0.2491
  134SAPE  H10R14485   5.594   6.144   9.306 -0.9073 -0.5263  2.3121
  134SAPE  H10S14486   5.753   6.066   9.369  2.0590  0.8401 -2.2175
  134SAPE  C21114487   5.763   6.276   9.335  0.5787  0.4579 -0.3211
  134SAPE  H11R14488   5.860   6.286   9.386 -0.0589 -1.0819  1.2927
  134SAPE  C21214489   5.708   6.375   9.257 -0.5303  0.1703  0.1681
  134SAPE  H12R14490   5.758   6.468   9.228  0.4183 -0.1280  0.7781
  134SAPE  C21314491   5.573   6.377   9.190 -0.2962  0.6799  0.2050
  134SAPE  H13R14492   5.526   6.477   9.195  3.0221  2.4467 -0.5674
  134SAPE  H13S14493   5.501   6.312   9.243  0.4254  0.6991  1.2494
  134SAPE  C21414494   5.585   6.339   9.043  0.6689 -0.1412 -1.0903
  134SAPE  H14R14495   5.672   6.274   9.027  0.9251 -0.2856  0.7065
  134SAPE  C21514496   5.511   6.364   8.940 -0.0111 -0.6359  0.2195
  134SAPE  H15R14497   5.535   6.321   8.842  0.1885 -1.8179  0.7671
  134SAPE  C21614498   5.381   6.447   8.941 -0.1757 -0.0391  0.3064
  134SAPE  H16R14499   5.335   6.476   9.038 -4.2664 -1.3009 -1.0377
  134SAPE  H16S14500   5.296   6.393   8.894 -0.0547  1.3982 -1.6952
  134SAPE  C21714501   5.416   6.577   8.867 -0.1617  0.0124 -0.3725
  134SAPE  H17R14502   5.498   6.637   8.912 -0.0176  1.3449 -2.3057
  134SAPE  H17S14503   5.323   6.639   8.871  2.0913  3.6443  2.7536
  134SAPE  C21814504   5.462   6.571   8.721  0.3655  1.0427  0.6891
  134SAPE  H18R14505   5.395   6.506   8.662  0.6739  1.9794 -0.7467
  134SAPE  H18S14506   5.565   6.533   8.703 -0.1953 -0.2225  0.0361
  134SAPE  C21914507   5.462   6.704   8.646 -0.2011  0.2161 -0.4761
  134SAPE  H19R14508   5.541   6.772   8.686 -0.0053 -0.5049  0.4021
  134SAPE  H19S14509   5.360   6.734   8.677 -1.1270 -2.5169 -0.6039
  134SAPE  C22014510   5.481   6.711   8.495 -0.0951 -0.4838  0.1509
  134SAPE  H20R14511   5.388   6.681   8.442  0.6107 -0.6219 -1.0424
  134SAPE  H20S14512   5.567   6.650   8.458 -0.1771  0.2987 -1.4117
  134SAPE  H20T14513   5.500   6.818   8.474  0.9671 -1.0888 -2.3475
  134SAPE   C3314514   5.214   5.732   9.854 -0.0301  0.0496 -0.3300
  134SAPE   H3X14515   5.294   5.686   9.792  0.7320 -1.0364  1.3905
  134SAPE   H3Y14516   5.273   5.816   9.897 -0.7239 -0.4110  1.5657
  134SAPE   C3414517   5.102   5.786   9.766  0.1077  0.2763  0.3905
  134SAPE   H4X14518   5.022   5.828   9.831 -1.3594  1.9031 -2.2838
  134SAPE   H4Y14519   5.058   5.701   9.710  0.3245  1.2257 -1.2799
  134SAPE   C3514520   5.146   5.893   9.666  0.4566 -0.2449  0.8949
  134SAPE   H5X14521   5.249   5.870   9.633 -0.1698 -0.6613 -0.8737
  134SAPE   H5Y14522   5.159   5.995   9.710 -0.4807 -1.4005  4.1115
  134SAPE   C3614523   5.059   5.897   9.535  0.0359 -0.2966  0.3689
  134SAPE   H6X14524   4.956   5.877   9.572  0.1861 -3.6410 -0.6728
  134SAPE   H6Y14525   5.082   5.813   9.466 -1.1996 -0.4818  0.1559
  134SAPE   C3714526   5.074   6.020   9.447 -0.2150 -0.0295  0.1113
  134SAPE   H7X14527   5.048   6.114   9.499 -0.7490  0.3586 -0.8287
  134SAPE   H7Y14528   4.991   6.014   9.372  0.1886 -4.7745 -0.2864
  134SAPE   C3814529   5.217   6.042   9.403 -0.0080  0.5035 -0.4530
  134SAPE   H8X14530   5.254   5.948   9.357 -1.4505 -0.2879 -0.0632
  134SAPE   H8Y14531   5.281   6.064   9.491 -1.0063  0.7720  0.2305
  134SAPE   C3914532   5.227   6.165   9.304 -0.0794  0.2150  0.1109
  134SAPE   H9X14533   5.323   6.218   9.315  0.7711 -1.4569  1.2436
  134SAPE   H9Y14534   5.146   6.240   9.320  1.3751  1.7258  0.5864
  134SAPE  C31014535   5.221   6.118   9.156  0.7026  0.3508 -0.5250
  134SAPE  H10X14536   5.230   6.210   9.094 -2.1704  1.6535  0.7731
  134SAPE  H10Y14537   5.116   6.081   9.145 -0.4934  3.3206 -0.1736
  134SAPE  C31114538   5.329   6.019   9.122 -0.3931  0.1812  1.2339
  134SAPE  H11X14539   5.314   5.921   9.172  0.3862  0.4036  1.9253
  134SAPE  H11Y14540   5.423   6.066   9.157  0.1971 -0.8565  1.0787
  134SAPE  C31214541   5.333   6.015   8.967  0.4012  0.0422 -0.0767
  134SAPE  H12X14542   5.317   6.120   8.934 -2.3734 -0.7689 -1.6184
  134SAPE  H12Y14543   5.253   5.945   8.938  0.7563 -0.9916  1.3512
  134SAPE  C31314544   5.463   5.964   8.894  0.5001  0.5353 -0.2434
  134SAPE  H13X14545   5.493   5.864   8.932 -0.0153  0.9062  1.2110
  134SAPE  H13Y14546   5.545   6.039   8.900 -0.6425  1.9410 -1.4398
  134SAPE  C31414547   5.426   5.936   8.745 -0.2336  0.4896 -0.8158
  134SAPE  H14X14548   5.393   6.032   8.701 -2.9167  0.5389  1.0411
  134SAPE  H14Y14549   5.347   5.858   8.745  1.6873 -1.6109  1.2525
  134SAPE  C31514550   5.538   5.885   8.657 -0.1461  0.2547 -0.2120
  134SAPE  H15X14551   5.631   5.939   8.685 -0.3420  0.9253 -0.8198
  134SAPE  H15Y14552   5.518   5.907   8.549 -0.3355 -0.1091 -0.2525
  134SAPE  C31614553   5.571   5.744   8.682  0.2983  0.8408  0.0276
  134SAPE  H16X14554   5.497   5.678   8.631  0.7079 -0.8175  1.4751
  134SAPE  H16Y14555   5.575   5.711   8.788  3.2183  2.1414  0.4009
  134SAPE  C31714556   5.712   5.703   8.626 -0.6902  0.0479 -0.2432
  134SAPE  H17X14557   5.793   5.765   8.669 -0.4872 -0.8202  0.6461
  134SAPE  H17Y14558   5.707   5.725   8.517 -0.4122  0.8547 -0.1018
  134SAPE  C31814559   5.764   5.560   8.647  0.3218  0.0343 -0.2395
  134SAPE  H18X14560   5.698   5.488   8.594 -1.3510  0.1465  1.5881
  134SAPE  H18Y14561   5.761   5.538   8.756 -1.9259  2.3640  0.2698
  134SAPE  H18Z14562   5.867   5.543   8.608  0.0556 -1.2216 -0.4217
  135SAPE     N14563   5.844   4.516  10.841  0.6061 -0.4502 -0.0516
  135SAPE   HN114564   5.929   4.514  10.780  0.0815 -0.1467 -0.8068
  135SAPE   HN214565   5.866   4.573  10.925 -0.2825 -0.8944  0.4884
  135SAPE   HN314566   5.821   4.417  10.863  0.0831 -0.3326 -0.0645
  135SAPE   C1214567   5.730   4.589  10.770 -0.3946 -0.5091  0.2735
  135SAPE  H12A14568   5.770   4.692  10.759 -0.7375 -0.6166 -2.9569
  135SAPE  H12B14569   5.641   4.587  10.836 -0.5926  2.7671  0.3042
  135SAPE   C1114570   5.705   4.532  10.635  0.1464  0.1638 -0.0764
  135SAPE  H11A14571   5.625   4.592  10.587 -0.7012 -0.9772 -0.1349
  135SAPE  H11B14572   5.661   4.430  10.640 -1.3691  0.8152  0.3196
  135SAPE     P14573   5.834   4.468  10.422  0.0190 -0.1464 -0.0794
  135SAPE   O1314574   5.970   4.477  10.372  0.0105  0.1606  0.1411
  135SAPE   O1414575   5.774   4.337  10.428  0.0579  0.3861 -0.5177
  135SAPE   O1214576   5.815   4.548  10.554 -0.8261  0.6652 -0.6602
  135SAPE   O1114577   5.747   4.571  10.319  0.0775  0.8445 -0.5591
  135SAPE    C114578   5.759   4.548  10.180 -0.7486 -0.1653  0.4972
  135SAPE    HA14579   5.735   4.646  10.133 -1.5140 -0.4705  0.2377
  135SAPE    HB14580   5.861   4.512  10.154 -1.1123 -0.1527 -1.0699
  135SAPE    C214581   5.660   4.449  10.115  0.5286  0.0353  0.5714
  135SAPE    HS14582   5.660   4.360  10.181 -0.7132 -0.2503  0.2256
  135SAPE   O2114583   5.719   4.413   9.990  0.0932 -0.2648 -0.8044
  135SAPE   C2114584   5.670   4.301   9.939  0.7332 -1.3611 -0.3134
  135SAPE   O2214585   5.603   4.221   9.991  0.2153  0.8167  0.0014
  135SAPE   C2214586   5.747   4.282   9.801  0.4300  0.4156 -0.2193
  135SAPE   H2R14587   5.836   4.347   9.792  0.0588  0.9515 -0.0431
  135SAPE   H2S14588   5.791   4.180   9.797 -0.0707  0.1626  0.4552
  135SAPE    C314589   5.512   4.501  10.114  0.0863 -0.3699 -0.1186
  135SAPE    HX14590   5.469   4.525  10.214 -0.2531  0.1753 -0.3911
  135SAPE    HY14591   5.458   4.413  10.075  2.2083 -1.3365 -1.0320
  135SAPE   O3114592   5.501   4.612  10.025  0.0243  0.1406 -0.8505
  135SAPE   C3114593   5.418   4.709  10.056 -1.0392  0.6863 -0.1225
  135SAPE   O3214594   5.331   4.703  10.141  0.1241 -0.1528  0.0888
  135SAPE   C3214595   5.473   4.837   9.984 -0.0792  0.3892 -0.0603
  135SAPE   H2X14596   5.582   4.834   9.964  0.0216  1.2540  0.3289
  135SAPE   H2Y14597   5.456   4.916  10.059  2.7347 -0.5063  1.6672
  135SAPE   C2314598   5.646   4.301   9.682  0.5061  0.1604  0.0903
  135SAPE   H3R14599   5.622   4.409   9.672  2.1961  0.3753 -2.2784
  135SAPE   H3S14600   5.550   4.248   9.702  0.9021 -0.2035  1.1149
  135SAPE   C2414601   5.711   4.261   9.545 -0.1888  0.1170 -1.1670
  135SAPE   H4R14602   5.761   4.163   9.554 -1.4624 -0.5039 -0.5581
  135SAPE   H4S14603   5.784   4.340   9.517  0.8492 -1.3340 -2.6566
  135SAPE   C2514604   5.613   4.227   9.434  0.4991  0.2971  0.3097
  135SAPE   H5R14605   5.521   4.175   9.466  1.2402 -0.1131  1.8825
  135SAPE   C2614606   5.625   4.246   9.299 -0.7342 -0.1572 -0.6452
  135SAPE   H6R14607   5.539   4.221   9.235 -2.0198 -1.2247  1.4112
  135SAPE   C2714608   5.747   4.307   9.229  0.1080  0.0943  0.1335
  135SAPE   H7R14609   5.789   4.222   9.170  2.0655  0.4616  0.9215
  135SAPE   H7S14610   5.823   4.343   9.302  0.2735 -0.2881  0.1550
  135SAPE   C2814611   5.719   4.430   9.156 -1.0620  0.3335 -0.0795
  135SAPE   H8R14612   5.722   4.525   9.211  0.6286  2.0097 -2.8221
  135SAPE   C2914613   5.693   4.443   9.020  0.5628 -0.0554  0.1890
  135SAPE   H9R14614   5.683   4.546   8.982 -1.9177  0.2258  1.4259
  135SAPE  C21014615   5.698   4.331   8.919  0.6174 -0.1293 -0.6955
  135SAPE  H10R14616   5.632   4.249   8.955  1.4721  0.2211  1.8625
  135SAPE  H10S14617   5.798   4.286   8.900  0.6514 -0.0975 -0.5892
  135SAPE  C21114618   5.642   4.392   8.789  0.2628  0.2776  0.4634
  135SAPE  H11R14619   5.534   4.406   8.801 -0.3419 -4.1489  2.5896
  135SAPE  C21214620   5.709   4.410   8.675  1.0667 -0.6569  0.4122
  135SAPE  H12R14621   5.657   4.449   8.587  0.3328 -0.0942  1.0800
  135SAPE  C21314622   5.852   4.367   8.645  0.4691 -0.3280 -0.4677
  135SAPE  H13R14623   5.862   4.256   8.655 -0.0116 -0.5471 -2.0421
  135SAPE  H13S14624   5.917   4.403   8.727  0.9771  0.8767 -1.3745
  135SAPE  C21414625   5.918   4.410   8.522 -0.8063 -0.3020  0.9362
  135SAPE  H14R14626   5.908   4.336   8.441 -0.0382  0.1173  0.4511
  135SAPE  C21514627   5.979   4.531   8.491  0.3682  0.5108  0.4993
  135SAPE  H15R14628   6.013   4.554   8.389 -1.3683 -0.8854 -0.4525
  135SAPE  C21614629   5.983   4.647   8.590  0.1585 -0.7878 -0.2339
  135SAPE  H16R14630   5.907   4.636   8.670  0.1316  0.2121 -0.1107
  135SAPE  H16S14631   5.951   4.739   8.535  0.0330  0.2324  1.4790
  135SAPE  C21714632   6.128   4.668   8.649 -0.0226  0.2603  0.6684
  135SAPE  H17R14633   6.166   4.577   8.700  0.5626  1.1087  1.7733
  135SAPE  H17S14634   6.117   4.737   8.735  1.6931  1.0515  0.2856
  135SAPE  C21814635   6.240   4.720   8.554 -0.4432  0.3579 -0.1313
  135SAPE  H18R14636   6.258   4.642   8.477  0.8614  0.8382 -0.3474
  135SAPE  H18S14637   6.329   4.734   8.619 -2.0419 -0.5119  2.3522
  135SAPE  C21914638   6.200   4.854   8.491  0.2347  0.5047 -0.1699
  135SAPE  H19R14639   6.179   4.925   8.573  0.9386  0.5539 -0.0291
  135SAPE  H19S14640   6.108   4.839   8.431 -0.0523  1.1250  0.1140
  135SAPE  C22014641   6.306   4.911   8.398  0.5512  0.2956  0.1344
  135SAPE  H20R14642   6.397   4.888   8.458 -0.5207 -0.2690  1.6259
  135SAPE  H20S14643   6.300   5.020   8.382 -0.0844  0.2596  0.1305
  135SAPE  H20T14644   6.313   4.854   8.303 -2.2363  1.3272 -0.7744
  135SAPE   C3314645   5.392   4.876   9.854 -0.4633  0.3354 -0.3843
  135SAPE   H3X14646   5.402   4.796   9.777  0.9900 -0.2825  0.3966
  135SAPE   H3Y14647   5.439   4.967   9.810  0.7959 -0.1792 -0.1703
  135SAPE   C3414648   5.241   4.893   9.884  0.6167 -0.5654  0.5321
  135SAPE   H4X14649   5.224   4.967   9.965 -1.6355 -0.9602  0.4902
  135SAPE   H4Y14650   5.197   4.794   9.908 -0.9406  0.8631  4.2491
  135SAPE   C3514651   5.172   4.974   9.764 -0.6785 -0.1596  0.7680
  135SAPE   H5X14652   5.207   5.080   9.765 -0.2838 -0.2863  1.3801
  135SAPE   H5Y14653   5.064   4.976   9.790 -1.1267  0.2466 -1.0168
  135SAPE   C3614654   5.190   4.907   9.632 -0.3587  0.3570  0.1992
  135SAPE   H6X14655   5.162   4.801   9.648  0.2060  0.2770  0.7062
  135SAPE   H6Y14656   5.296   4.904   9.600 -0.7435  0.8706 -1.1947
  135SAPE   C3714657   5.114   4.973   9.509 -0.0256  0.5501 -0.4208
  135SAPE   H7X14658   5.165   5.051   9.448 -2.2832  2.4535  0.0060
  135SAPE   H7Y14659   5.015   5.018   9.529 -1.5375 -2.8095  0.3485
  135SAPE   C3814660   5.074   4.867   9.402  0.0127  0.1872 -0.1500
  135SAPE   H8X14661   5.016   4.781   9.442  2.2668 -1.2471  0.2222
  135SAPE   H8Y14662   5.168   4.814   9.374  0.5764  1.3376 -0.5151
  135SAPE   C3914663   5.015   4.936   9.282  0.5063 -0.1662 -0.0202
  135SAPE   H9X14664   5.060   5.036   9.262 -1.3549  0.3673 -1.9361
  135SAPE   H9Y14665   4.905   4.954   9.286  0.8237  2.9416 -1.7794
  135SAPE  C31014666   5.027   4.857   9.153 -0.1009 -0.3418 -0.2146
  135SAPE  H10X14667   4.971   4.763   9.172 -0.3187 -0.3279 -0.7542
  135SAPE  H10Y14668   5.136   4.838   9.149  0.3912  1.9051  0.9048
  135SAPE  C31114669   4.987   4.918   9.024  0.0965 -0.0490 -0.2040
  135SAPE  H11X14670   5.055   5.001   8.994 -0.4284  0.7567  0.7766
  135SAPE  H11Y14671   4.890   4.970   9.039  0.2878  0.4152 -0.5573
  135SAPE  C31214672   4.959   4.820   8.900 -0.4081  0.5951 -0.1316
  135SAPE  H12X14673   4.880   4.744   8.920 -0.1321  0.4261  0.3241
  135SAPE  H12Y14674   5.055   4.767   8.883 -0.4781  0.9188 -1.6512
  135SAPE  C31314675   4.921   4.895   8.773  0.4407 -0.7777  0.8664
  135SAPE  H13X14676   5.012   4.946   8.733 -0.2775  0.2458  0.4956
  135SAPE  H13Y14677   4.850   4.972   8.809 -0.5538 -1.1872 -0.1434
  135SAPE  C31414678   4.844   4.822   8.669 -0.5641  0.3691  0.2528
  135SAPE  H14X14679   4.906   4.731   8.653 -0.0761  0.6728  0.4069
  135SAPE  H14Y14680   4.839   4.890   8.581  2.7824  1.1776  0.5578
  135SAPE  C31514681   4.702   4.785   8.716 -0.5575 -0.2828 -0.5452
  135SAPE  H15X14682   4.638   4.871   8.744  1.3279  1.4062 -1.1801
  135SAPE  H15Y14683   4.714   4.718   8.804  1.2574  1.1717  0.3902
  135SAPE  C31614684   4.619   4.704   8.620 -1.1586 -0.8122 -0.6456
  135SAPE  H16X14685   4.524   4.695   8.677  0.3090  1.3175  2.3798
  135SAPE  H16Y14686   4.663   4.603   8.604 -2.0208 -1.0783 -1.4736
  135SAPE  C31714687   4.608   4.767   8.484 -0.0753 -0.1880  0.0347
  135SAPE  H17X14688   4.698   4.738   8.426 -0.0464  0.9181 -0.5118
  135SAPE  H17Y14689   4.610   4.875   8.512  1.3329 -0.4120  0.8939
  135SAPE  C31814690   4.471   4.748   8.415  0.6650  0.0864  0.3190
  135SAPE  H18X14691   4.460   4.640   8.393  0.1479  0.5121 -1.7299
  135SAPE  H18Y14692   4.464   4.811   8.323 -1.2430  2.0897  1.7023
  135SAPE  H18Z14693   4.383   4.783   8.474  0.6601 -2.4386  1.9436
  136SAPE     N14694   0.883   4.660  10.826  0.3198 -0.0911 -0.3645
  136SAPE   HN114695   0.805   4.602  10.787  0.0277 -1.4821  2.1011
  136SAPE   HN214696   0.873   4.756  10.788 -4.8146 -0.8120 -1.6250
  136SAPE   HN314697   0.969   4.620  10.785 -0.9844 -1.9541 -1.4654
  136SAPE   C1214698   0.899   4.660  10.970 -0.5152  0.1369 -0.1998
  136SAPE  H12A14699   0.887   4.554  11.000  1.0318 -0.6491 -2.1318
  136SAPE  H12B14700   0.815   4.718  11.015 -1.1192 -0.6638 -0.2851
  136SAPE   C1114701   1.039   4.709  11.008  0.4488  0.5577  0.7351
  136SAPE  H11A14702   1.050   4.717  11.118 -1.3202  0.2269  0.9649
  136SAPE  H11B14703   1.064   4.807  10.963  0.7370 -0.7036 -2.0598
  136SAPE     P14704   1.178   4.488  11.040 -0.2757  0.0530 -0.2895
  136SAPE   O1314705   1.247   4.534  11.161  0.2736 -0.0923 -0.3109
  136SAPE   O1414706   1.056   4.398  11.057 -0.4702 -0.2684 -0.3440
  136SAPE   O1214707   1.137   4.618  10.960 -0.1177 -0.4496  0.3144
  136SAPE   O1114708   1.284   4.418  10.941  0.3252 -0.6756 -0.2003
  136SAPE    C114709   1.358   4.491  10.847 -0.1985 -0.1324  0.2873
  136SAPE    HA14710   1.395   4.585  10.893 -2.0123  1.4720 -1.3395
  136SAPE    HB14711   1.446   4.429  10.823  1.7712  2.7285 -0.3626
  136SAPE    C214712   1.281   4.522  10.712  0.1475 -0.1474 -0.8424
  136SAPE    HS14713   1.203   4.596  10.738  1.9620  1.6517 -0.3096
  136SAPE   O2114714   1.233   4.397  10.665  0.4427  0.0848 -0.6117
  136SAPE   C2114715   1.102   4.383  10.647 -0.3346  0.7927 -0.3480
  136SAPE   O2214716   1.020   4.466  10.679  0.1494 -0.6447  0.0324
  136SAPE   C2214717   1.077   4.252  10.573  0.2330  0.0144 -0.0466
  136SAPE   H2R14718   1.173   4.195  10.563 -0.8390 -1.5909 -1.8685
  136SAPE   H2S14719   1.016   4.196  10.647  0.7467  1.3557  1.4210
  136SAPE    C314720   1.374   4.583  10.602 -0.0925  0.0687  0.1381
  136SAPE    HX14721   1.464   4.519  10.594  0.5106  0.7557  1.0901
  136SAPE    HY14722   1.417   4.681  10.636 -0.4275  0.7660 -1.3769
  136SAPE   O3114723   1.314   4.598  10.468  0.0445 -0.3658 -0.3854
  136SAPE   C3114724   1.208   4.691  10.459  0.3302  0.3542 -0.0006
  136SAPE   O3214725   1.161   4.738  10.558 -0.7000 -0.5681 -0.4181
  136SAPE   C3214726   1.169   4.718  10.319 -0.4955  0.3121  0.1698
  136SAPE   H2X14727   1.182   4.827  10.302  1.7270 -0.2800 -2.7028
  136SAPE   H2Y14728   1.063   4.684  10.315 -0.4659 -0.1516  2.2614
  136SAPE   C2314729   1.004   4.264  10.442  0.1337 -0.7203 -0.2100
  136SAPE   H3R14730   0.909   4.316  10.467  0.6158 -0.3590  0.9461
  136SAPE   H3S14731   0.983   4.163  10.402  1.1821 -0.5501 -1.2625
  136SAPE   C2414732   1.089   4.333  10.332  0.4173 -0.7555  0.4097
  136SAPE   H4R14733   1.168   4.258  10.311  0.6387 -0.7911  1.3088
  136SAPE   H4S14734   1.142   4.426  10.360 -0.3642  0.8604 -3.0241
  136SAPE   C2514735   1.006   4.361  10.211  0.2966 -0.0786 -0.2054
  136SAPE   H5R14736   0.928   4.438  10.223  0.4336  0.0296 -0.0178
  136SAPE   C2614737   1.014   4.297  10.090  0.2585  0.5785 -0.7198
  136SAPE   H6R14738   0.939   4.325  10.014 -0.4065 -1.5977 -0.9189
  136SAPE   C2714739   1.117   4.193  10.047  0.5695  0.5731  0.7300
  136SAPE   H7R14740   1.138   4.130  10.135 -0.2273  0.6491  0.9809
  136SAPE   H7S14741   1.211   4.248  10.022  0.6728  0.3497  0.6219
  136SAPE   C2814742   1.066   4.113   9.924  0.1274  0.1153 -0.5561
  136SAPE   H8R14743   1.015   4.020   9.953  2.3340 -0.6263  1.2784
  136SAPE   C2914744   1.091   4.131   9.791  0.2364 -0.1076  0.3685
  136SAPE   H9R14745   1.056   4.059   9.716 -0.0537  1.5729 -1.1931
  136SAPE  C21014746   1.179   4.243   9.735  0.3480  0.2264 -0.2002
  136SAPE  H10R14747   1.230   4.306   9.811  1.8811 -1.1166 -0.0476
  136SAPE  H10S14748   1.125   4.318   9.673 -1.0776 -1.5711 -1.2587
  136SAPE  C21114749   1.288   4.196   9.641 -0.0084  0.8407  0.0708
  136SAPE  H11R14750   1.389   4.187   9.684  0.4233 -1.2385 -1.2427
  136SAPE  C21214751   1.269   4.144   9.521 -0.6720  0.0819 -0.1839
  136SAPE  H12R14752   1.356   4.143   9.454 -0.9385  2.8431 -0.6939
  136SAPE  C21314753   1.132   4.130   9.451 -0.3565  1.0611  0.5165
  136SAPE  H13R14754   1.131   4.192   9.360  0.4756 -0.0293 -0.2608
  136SAPE  H13S14755   1.048   4.160   9.518 -1.7649  1.3464 -1.3151
  136SAPE  C21414756   1.108   3.978   9.431  0.5121 -1.0781  0.2871
  136SAPE  H14R14757   1.066   3.927   9.519  1.7240 -0.8382  1.0299
  136SAPE  C21514758   1.141   3.905   9.323  0.9590 -0.0040 -0.8015
  136SAPE  H15R14759   1.109   3.800   9.326  1.8443 -0.2673 -0.2112
  136SAPE  C21614760   1.210   3.955   9.206 -0.9891 -0.6076 -0.5308
  136SAPE  H16R14761   1.313   3.992   9.220 -1.4559  1.3846 -1.8447
  136SAPE  H16S14762   1.163   4.041   9.153  0.3910  0.5165  0.0174
  136SAPE  C21714763   1.230   3.842   9.108 -0.2028  0.0326  0.2400
  136SAPE  H17R14764   1.285   3.754   9.147 -2.0959 -2.0385 -1.4684
  136SAPE  H17S14765   1.290   3.896   9.031 -0.6478  0.6587  0.3273
  136SAPE  C21814766   1.099   3.784   9.042 -0.0860 -0.0200 -0.3450
  136SAPE  H18R14767   1.019   3.861   9.046  0.4112  0.4619  0.7177
  136SAPE  H18S14768   1.063   3.702   9.108 -0.7469 -0.0781 -0.7654
  136SAPE  C21914769   1.122   3.746   8.899  0.4699  0.5240  0.2528
  136SAPE  H19R14770   1.198   3.666   8.892 -0.7387 -0.5048 -3.1873
  136SAPE  H19S14771   1.171   3.823   8.836  3.5700 -2.5947 -1.4837
  136SAPE  C22014772   0.995   3.696   8.819  0.2483  0.0033 -0.1204
  136SAPE  H20R14773   0.911   3.769   8.820 -0.0664 -0.2500 -2.1078
  136SAPE  H20S14774   0.961   3.599   8.862 -0.4795  0.5410  0.5375
  136SAPE  H20T14775   1.030   3.691   8.714  3.1666 -2.0223  0.8415
  136SAPE   C3314776   1.253   4.640  10.212 -0.3395  0.2868 -0.4429
  136SAPE   H3X14777   1.263   4.531  10.233  2.0904  0.6575  0.7615
  136SAPE   H3Y14778   1.359   4.675  10.211 -0.4982  1.0008  1.9186
  136SAPE   C3414779   1.198   4.665  10.077  0.1153 -0.2268 -0.4851
  136SAPE   H4X14780   1.194   4.775  10.061  1.0524 -0.2268 -0.7586
  136SAPE   H4Y14781   1.092   4.635  10.061  0.7145 -1.1422 -3.2786
  136SAPE   C3514782   1.288   4.609   9.970 -0.2213 -0.3916  0.1553
  136SAPE   H5X14783   1.272   4.501   9.951 -0.0412  0.0060 -2.5668
  136SAPE   H5Y14784   1.393   4.630  10.001 -0.4131 -2.6338  2.6356
  136SAPE   C3614785   1.263   4.694   9.847  0.0961  0.3365  0.0486
  136SAPE   H6X14786   1.286   4.803   9.859 -0.0554  0.2159  1.6247
  136SAPE   H6Y14787   1.156   4.691   9.820  0.5496 -1.6446 -1.7896
  136SAPE   C3714788   1.351   4.651   9.724  0.4452  0.6697 -0.6109
  136SAPE   H7X14789   1.332   4.545   9.694  3.4421 -1.9714  5.1047
  136SAPE   H7Y14790   1.452   4.654   9.770  0.0245  1.4312  0.2805
  136SAPE   C3814791   1.344   4.754   9.608 -0.1190  0.2798  0.9581
  136SAPE   H8X14792   1.419   4.836   9.605  0.2677 -0.0667  0.9877
  136SAPE   H8Y14793   1.260   4.824   9.626  0.6303  1.3862  0.2485
  136SAPE   C3914794   1.319   4.686   9.464  0.4999 -0.3059 -0.4505
  136SAPE   H9X14795   1.220   4.635   9.466  0.6368 -0.6520 -1.6304
  136SAPE   H9Y14796   1.394   4.604   9.462  1.8532  0.6635  2.9192
  136SAPE  C31014797   1.317   4.790   9.346  0.2998  0.1400  0.2271
  136SAPE  H10X14798   1.279   4.890   9.377  1.1324  0.2154  1.0459
  136SAPE  H10Y14799   1.258   4.743   9.264 -0.7690  0.3022  0.8843
  136SAPE  C31114800   1.455   4.823   9.306  0.1282  0.1893  0.5843
  136SAPE  H11X14801   1.530   4.744   9.327  0.2308 -0.1162 -0.8464
  136SAPE  H11Y14802   1.471   4.915   9.366 -0.1003  0.0533  0.8537
  136SAPE  C31214803   1.474   4.848   9.156  0.6809  0.0092  0.1576
  136SAPE  H12X14804   1.439   4.757   9.103  0.6013  0.9842 -1.5423
  136SAPE  H12Y14805   1.581   4.854   9.126  0.6623  0.7439  0.2283
  136SAPE  C31314806   1.392   4.962   9.095 -0.0389  0.1126 -0.9308
  136SAPE  H13X14807   1.419   5.057   9.146 -0.5123 -1.2007  1.9952
  136SAPE  H13Y14808   1.284   4.950   9.114  0.1886 -0.5756  0.0219
  136SAPE  C31414809   1.416   4.980   8.945 -0.5064  1.0215  0.0203
  136SAPE  H14X14810   1.392   4.879   8.907  3.8507  0.5689 -2.1250
  136SAPE  H14Y14811   1.527   4.984   8.933 -0.2586 -2.9552 -0.1784
  136SAPE  C31514812   1.350   5.100   8.881 -0.4564  0.1399 -0.2844
  136SAPE  H15X14813   1.384   5.194   8.929 -2.1819  1.0646 -0.7912
  136SAPE  H15Y14814   1.241   5.082   8.892 -0.3624 -2.0465 -2.1443
  136SAPE  C31614815   1.369   5.118   8.732 -0.9165 -0.0072 -0.2241
  136SAPE  H16X14816   1.478   5.117   8.710 -0.4854  0.7291  1.7290
  136SAPE  H16Y14817   1.320   5.210   8.694  2.5290  0.9681 -2.8673
  136SAPE  C31714818   1.314   4.999   8.655 -0.6279  0.0282 -0.2356
  136SAPE  H17X14819   1.210   4.995   8.696 -1.5468 -0.0246 -2.4518
  136SAPE  H17Y14820   1.372   4.912   8.693 -1.3524 -0.3696 -0.0185
  136SAPE  C31814821   1.312   5.000   8.507  0.6728  0.0248  0.4214
  136SAPE  H18X14822   1.260   5.093   8.475  3.2839  1.4258  0.0214
  136SAPE  H18Y14823   1.260   4.911   8.468  0.2674  0.1705  0.6179
  136SAPE  H18Z14824   1.419   5.001   8.476  0.2501 -1.0653 -1.1827
  137SAPE     N14825   4.158   0.326  10.957 -0.8820 -0.3107 -0.1008
  137SAPE   HN114826   4.138   0.398  11.029 -1.9312 -0.2977 -0.3817
  137SAPE   HN214827   4.089   0.342  10.881 -0.3324  0.5322 -0.4324
  137SAPE   HN314828   4.152   0.233  11.004 -3.1272 -1.9865 -3.3336
  137SAPE   C1214829   4.290   0.347  10.882  0.5518 -0.1314  0.6003
  137SAPE  H12A14830   4.371   0.386  10.947 -0.3843  0.1370  1.6262
  137SAPE  H12B14831   4.263   0.424  10.806 -2.5939 -0.0767  1.6216
  137SAPE   C1114832   4.343   0.217  10.830 -0.0717  1.1884 -0.0506
  137SAPE  H11A14833   4.278   0.175  10.750  0.7441 -0.8723  0.3250
  137SAPE  H11B14834   4.333   0.144  10.913 -0.8613  0.8600 -0.4247
  137SAPE     P14835   4.544   0.090  10.725 -0.3323 -0.2833  0.2140
  137SAPE   O1314836   4.690   0.085  10.742  0.0932  0.0928  0.3569
  137SAPE   O1414837   4.474  -0.028  10.779 -0.2126  0.4069 -0.0392
  137SAPE   O1214838   4.487   0.217  10.793  0.0915  0.2521 -0.1416
  137SAPE   O1114839   4.512   0.099  10.571 -1.0237  0.1405 -0.0232
  137SAPE    C114840   4.550   0.215  10.490  0.1781 -0.6096 -0.2724
  137SAPE    HA14841   4.586   0.304  10.547 -0.2935  0.1979 -1.2131
  137SAPE    HB14842   4.629   0.184  10.418  0.5958  0.0880 -0.1187
  137SAPE    C214843   4.428   0.262  10.404  0.4745  0.0532 -0.2599
  137SAPE    HS14844   4.350   0.269  10.483  0.4652 -2.1227 -0.0139
  137SAPE   O2114845   4.394   0.170  10.298 -0.7106  0.1821  0.7109
  137SAPE   C2114846   4.273   0.197  10.243  0.1314  0.8123  0.9596
  137SAPE   O2214847   4.198   0.279  10.289  0.4667  0.1528 -0.1064
  137SAPE   C2214848   4.255   0.120  10.109 -0.0636  0.1678  0.3040
  137SAPE   H2R14849   4.330   0.039  10.094 -2.8395 -2.3202 -1.3014
  137SAPE   H2S14850   4.157   0.069  10.121  0.6581 -0.9514  1.7434
  137SAPE    C314851   4.460   0.399  10.345  0.3613 -0.3997  0.3923
  137SAPE    HX14852   4.492   0.458  10.433  0.1951 -2.3204  1.8149
  137SAPE    HY14853   4.369   0.448  10.305  0.3542 -2.0356 -1.7416
  137SAPE   O3114854   4.555   0.397  10.238 -0.3043  0.4191 -0.3114
  137SAPE   C3114855   4.684   0.432  10.279  0.0303  0.0430  0.7707
  137SAPE   O3214856   4.712   0.479  10.385  0.2384 -0.4788 -0.2624
  137SAPE   C3214857   4.786   0.383  10.170  0.6492  0.0203  0.1292
  137SAPE   H2X14858   4.731   0.378  10.074  1.1565 -2.3744 -0.1110
  137SAPE   H2Y14859   4.818   0.282  10.204  1.3061  0.3745  0.5722
  137SAPE   C2314860   4.239   0.214   9.989 -0.4125  0.0784  0.9495
  137SAPE   H3R14861   4.177   0.298  10.026  1.7238  1.7467  0.9336
  137SAPE   H3S14862   4.194   0.153   9.909  4.4812 -2.0843 -0.5570
  137SAPE   C2414863   4.374   0.260   9.941  0.1930 -0.2579  0.7251
  137SAPE   H4R14864   4.453   0.183   9.927 -0.9889 -1.2947 -0.3981
  137SAPE   H4S14865   4.408   0.333  10.018  0.6475  0.2947  0.0244
  137SAPE   C2514866   4.365   0.324   9.807  0.6320  0.8333 -0.9118
  137SAPE   H5R14867   4.277   0.285   9.753  0.8504 -1.3334  0.1753
  137SAPE   C2614868   4.451   0.413   9.756  0.4880 -0.7631  0.4708
  137SAPE   H6R14869   4.423   0.452   9.657 -0.4701  0.3245  1.1452
  137SAPE   C2714870   4.579   0.462   9.822  0.3632 -0.4328 -0.2899
  137SAPE   H7R14871   4.620   0.398   9.903  2.6062  0.5873 -0.5412
  137SAPE   H7S14872   4.545   0.550   9.880  2.8589  0.1646  0.4207
  137SAPE   C2814873   4.690   0.487   9.726 -0.8302  1.1223 -0.2611
  137SAPE   H8R14874   4.707   0.389   9.679 -1.0620  1.2100 -0.5328
  137SAPE   C2914875   4.755   0.596   9.697  0.6484 -0.3619  0.0230
  137SAPE   H9R14876   4.824   0.581   9.612 -0.2160 -1.5640 -0.5076
  137SAPE  C21014877   4.727   0.734   9.744 -0.3239  0.4786  0.0656
  137SAPE  H10R14878   4.816   0.795   9.716  1.7676 -1.8227  1.3739
  137SAPE  H10S14879   4.716   0.730   9.855  2.2223  1.7474  0.4208
  137SAPE  C21114880   4.601   0.796   9.682  0.3249  0.2865 -0.8980
  137SAPE  H11R14881   4.525   0.807   9.760  0.6774  0.3429 -0.5578
  137SAPE  C21214882   4.593   0.831   9.550 -0.4133 -0.3768  0.3579
  137SAPE  H12R14883   4.497   0.875   9.518 -1.2272 -1.4772  1.2297
  137SAPE  C21314884   4.696   0.813   9.444 -0.2791  0.5532 -0.0840
  137SAPE  H13R14885   4.798   0.797   9.486 -0.1831 -2.7625 -1.2957
  137SAPE  H13S14886   4.724   0.905   9.389  0.9193 -0.0817 -0.5766
  137SAPE  C21414887   4.667   0.703   9.342 -0.4441 -0.0830  0.3077
  137SAPE  H14R14888   4.646   0.602   9.379  2.0021 -0.7433  0.0849
  137SAPE  C21514889   4.660   0.717   9.205 -0.0257  0.2025 -0.7362
  137SAPE  H15R14890   4.657   0.625   9.145  2.8703 -0.8149  0.5160
  137SAPE  C21614891   4.680   0.847   9.130  0.0709  0.0894 -0.3475
  137SAPE  H16R14892   4.745   0.924   9.177  3.1912 -3.1978  1.1476
  137SAPE  H16S14893   4.578   0.890   9.120 -0.0107  0.2106  0.8719
  137SAPE  C21714894   4.750   0.830   8.990  0.4388  0.2045 -0.5552
  137SAPE  H17R14895   4.704   0.739   8.947  0.9686 -1.1523  1.6333
  137SAPE  H17S14896   4.857   0.815   9.016 -0.0116 -1.1690  0.6191
  137SAPE  C21814897   4.730   0.958   8.907  0.1671  0.0519  0.6068
  137SAPE  H18R14898   4.751   1.052   8.961 -1.1221  1.0724 -0.6112
  137SAPE  H18S14899   4.624   0.961   8.873  0.6965  1.3315 -1.0182
  137SAPE  C21914900   4.820   0.956   8.791  0.0005 -0.0420  0.3518
  137SAPE  H19R14901   4.920   0.912   8.813  0.1925 -2.4170 -3.9934
  137SAPE  H19S14902   4.839   1.062   8.766  2.1542 -0.4463  0.0456
  137SAPE  C22014903   4.753   0.890   8.670 -0.7082  0.6694  0.0958
  137SAPE  H20R14904   4.818   0.898   8.581  1.4031  0.0063  1.5122
  137SAPE  H20S14905   4.655   0.932   8.637  0.3700  1.6480 -1.9819
  137SAPE  H20T14906   4.739   0.783   8.696 -0.4916  0.2299 -1.4916
  137SAPE   C3314907   4.915   0.469  10.160 -0.0836  0.3685  0.0283
  137SAPE   H3X14908   4.989   0.411  10.101 -2.0462 -3.0164  0.5900
  137SAPE   H3Y14909   4.954   0.492  10.261  2.2162 -0.1496 -0.7006
  137SAPE   C3414910   4.882   0.611  10.103  0.3374 -0.6056  0.3036
  137SAPE   H4X14911   4.790   0.649  10.151  1.6302 -1.4125  3.6490
  137SAPE   H4Y14912   4.857   0.588   9.997  0.6019  1.1266 -0.1596
  137SAPE   C3514913   4.999   0.713  10.108 -0.2661  0.7633  0.0536
  137SAPE   H5X14914   5.032   0.718  10.214 -2.2084 -1.1097  0.8140
  137SAPE   H5Y14915   4.959   0.809  10.069 -1.2958 -0.5005 -2.1882
  137SAPE   C3614916   5.120   0.672  10.023  0.0651 -0.2607  0.2930
  137SAPE   H6X14917   5.080   0.654   9.921 -2.1399 -1.4875  1.2845
  137SAPE   H6Y14918   5.164   0.580  10.068 -2.4341  0.1118  3.9320
  137SAPE   C3714919   5.225   0.786  10.013 -0.5189  0.3529  0.5945
  137SAPE   H7X14920   5.270   0.794  10.114  1.7347 -0.1755 -0.2989
  137SAPE   H7Y14921   5.171   0.881   9.991 -1.4613 -0.3575 -0.2188
  137SAPE   C3814922   5.341   0.765   9.913 -0.6222 -0.5840  0.5663
  137SAPE   H8X14923   5.376   0.661   9.929  1.4105  0.0406  0.4792
  137SAPE   H8Y14924   5.421   0.834   9.949 -0.4780  0.3094 -1.3534
  137SAPE   C3914925   5.312   0.779   9.759 -0.3646 -0.0171  0.0708
  137SAPE   H9X14926   5.252   0.868   9.734 -1.0182 -0.6583 -0.6790
  137SAPE   H9Y14927   5.237   0.701   9.734 -0.8093 -0.4307  2.4051
  137SAPE  C31014928   5.433   0.777   9.666 -0.9288 -0.0010  0.6535
  137SAPE  H10X14929   5.492   0.861   9.707 -3.3025  1.2404  1.7407
  137SAPE  H10Y14930   5.404   0.791   9.560  0.2025 -0.8726  0.2036
  137SAPE  C31114931   5.500   0.635   9.651  0.2088  0.2364  0.1172
  137SAPE  H11X14932   5.503   0.577   9.745 -0.6594 -3.4606 -1.9544
  137SAPE  H11Y14933   5.607   0.644   9.625  0.6228 -0.1718  1.6033
  137SAPE  C31214934   5.442   0.542   9.545  0.1208  0.8745  0.6321
  137SAPE  H12X14935   5.339   0.566   9.513  0.1524  0.5278  0.2610
  137SAPE  H12Y14936   5.463   0.436   9.573  2.8654  0.4982 -2.2344
  137SAPE  C31314937   5.513   0.552   9.410  0.3979  1.0137 -0.0042
  137SAPE  H13X14938   5.621   0.534   9.433 -0.2334 -0.6826  1.9280
  137SAPE  H13Y14939   5.499   0.655   9.371 -0.8853  0.6590 -0.5257
  137SAPE  C31414940   5.468   0.446   9.305  0.5934  0.7066 -0.0176
  137SAPE  H14X14941   5.364   0.470   9.277 -0.1755 -0.2672  1.8120
  137SAPE  H14Y14942   5.457   0.351   9.362  1.1870  2.3507  3.0910
  137SAPE  C31514943   5.566   0.422   9.195 -0.0579  0.1846  0.3063
  137SAPE  H15X14944   5.533   0.342   9.125  0.7519 -0.7057  0.9200
  137SAPE  H15Y14945   5.652   0.376   9.249  0.0593 -1.5930 -1.2723
  137SAPE  C31614946   5.597   0.551   9.116 -0.1758  0.2113 -0.7176
  137SAPE  H16X14947   5.607   0.631   9.193 -0.4790  0.3040 -0.7718
  137SAPE  H16Y14948   5.505   0.571   9.058 -0.6660 -0.6421 -0.2591
  137SAPE  C31714949   5.717   0.537   9.018  0.6903  0.5578  0.3354
  137SAPE  H17X14950   5.694   0.437   8.976 -1.3545 -0.0069  2.6218
  137SAPE  H17Y14951   5.810   0.532   9.079  1.4321 -0.4028 -0.8365
  137SAPE  C31814952   5.734   0.649   8.910  0.2049  0.3944 -0.3130
  137SAPE  H18X14953   5.700   0.747   8.950 -0.9758  0.7793 -2.1710
  137SAPE  H18Y14954   5.679   0.634   8.815  1.2233  1.9429 -1.1884
  137SAPE  H18Z14955   5.840   0.659   8.878 -0.2709  1.3647 -1.6672
  138SAPE     N14956   4.038   1.067  10.836  0.3790 -0.2702  0.5267
  138SAPE   HN114957   4.100   1.011  10.898  1.2070  0.9996  0.8883
  138SAPE   HN214958   4.042   1.158  10.886 -0.2476 -1.2051  2.3453
  138SAPE   HN314959   3.944   1.023  10.846  0.2065 -0.0406 -0.0297
  138SAPE   C1214960   4.097   1.081  10.699  0.4170 -0.5792  0.6336
  138SAPE  H12A14961   4.136   0.980  10.679 -1.5813 -1.7714  2.3173
  138SAPE  H12B14962   4.179   1.154  10.711 -0.2442  0.6239 -1.5029
  138SAPE   C1114963   3.993   1.125  10.598  0.2197  0.5852  0.9491
  138SAPE  H11A14964   3.903   1.059  10.601 -1.1402  2.4024  1.9072
  138SAPE  H11B14965   4.031   1.121  10.493 -1.6683  0.0997  0.2314
  138SAPE     P14966   3.810   1.301  10.678  0.0724  0.2466 -0.2153
  138SAPE   O1314967   3.738   1.189  10.743  0.0587 -0.1016  0.3050
  138SAPE   O1414968   3.836   1.420  10.760  0.7587 -0.4724 -0.4556
  138SAPE   O1214969   3.951   1.256  10.611 -0.1189  0.1898 -0.4576
  138SAPE   O1114970   3.729   1.343  10.549 -0.0675  0.2770  0.0512
  138SAPE    C114971   3.758   1.459  10.473 -0.0827 -0.6726 -0.0937
  138SAPE    HA14972   3.683   1.541  10.485  1.4414  0.4999  2.1036
  138SAPE    HB14973   3.853   1.503  10.510 -0.7064 -1.3000  2.4423
  138SAPE    C214974   3.770   1.422  10.324 -0.2819  0.2463  0.2006
  138SAPE    HS14975   3.779   1.517  10.267 -0.1387 -0.2814 -0.6812
  138SAPE   O2114976   3.657   1.342  10.278 -0.0704  0.0461  0.9730
  138SAPE   C2114977   3.546   1.405  10.275  0.9641 -0.1126  0.4665
  138SAPE   O2214978   3.529   1.524  10.294 -0.0212 -0.3339 -0.3913
  138SAPE   C2214979   3.429   1.310  10.242 -0.2437  0.8508 -0.4103
  138SAPE   H2R14980   3.469   1.207  10.254 -1.2135  0.6559  1.4661
  138SAPE   H2S14981   3.343   1.320  10.311 -0.8350 -0.6726 -0.8805
  138SAPE    C314982   3.898   1.341  10.282  0.2394 -0.6787  0.2334
  138SAPE    HX14983   3.914   1.257  10.353  1.7397  1.7821  3.0267
  138SAPE    HY14984   3.992   1.396  10.302 -0.8271  1.1628  0.4747
  138SAPE   O3114985   3.899   1.301  10.146  0.4422  0.0408  0.9228
  138SAPE   C3114986   3.905   1.180  10.109 -0.4426 -0.5000  0.1605
  138SAPE   O3214987   3.890   1.079  10.174  0.2404 -0.6170 -0.4551
  138SAPE   C3214988   3.918   1.185   9.953 -0.2635  0.6479 -0.0957
  138SAPE   H2X14989   4.007   1.249   9.938  0.5428  0.2678  2.5047
  138SAPE   H2Y14990   3.826   1.227   9.909 -1.2667  0.2590  1.5214
  138SAPE   C2314991   3.376   1.336  10.102 -0.1758 -0.5140  0.1582
  138SAPE   H3R14992   3.366   1.443  10.074 -1.4849 -0.9536 -1.1867
  138SAPE   H3S14993   3.281   1.279  10.092  0.6186 -2.6147  3.1597
  138SAPE   C2414994   3.470   1.279   9.990 -0.2051 -0.3090 -0.4738
  138SAPE   H4R14995   3.486   1.169   9.991  2.0854 -0.0325 -1.4217
  138SAPE   H4S14996   3.570   1.322  10.014 -1.1194  0.4871  2.3242
  138SAPE   C2514997   3.412   1.313   9.856 -0.4733  0.4581 -0.1640
  138SAPE   H5R14998   3.303   1.316   9.847 -0.3078 -0.2070 -3.2613
  138SAPE   C2614999   3.485   1.368   9.749  0.8631 -0.0492 -0.7565
  138SAPE   H6R15000   3.424   1.392   9.660 -1.4197  0.6518  0.9218
  138SAPE   C2715001   3.636   1.394   9.738  0.5091  0.6453  0.1770
  138SAPE   H7R15002   3.684   1.320   9.671 -1.4307 -0.5642  0.0649
  138SAPE   H7S15003   3.675   1.377   9.841 -1.6094 -1.5622  0.7150
  138SAPE   C2815004   3.669   1.533   9.697 -0.2078  0.1453  0.6424
  138SAPE   H8R15005   3.682   1.599   9.785 -2.1545  2.3348 -0.5885
  138SAPE   C2915006   3.692   1.582   9.569  0.0456  0.8692 -0.3229
  138SAPE   H9R15007   3.727   1.686   9.565 -0.7758  1.1657 -0.0451
  138SAPE  C21015008   3.679   1.500   9.437 -0.0611  0.1810 -0.1890
  138SAPE  H10R15009   3.628   1.405   9.466  1.7304 -0.3360  1.4770
  138SAPE  H10S15010   3.784   1.479   9.409  2.1203  3.2152  4.3711
  138SAPE  C21115011   3.596   1.580   9.338  0.1374  0.3919 -0.3029
  138SAPE  H11R15012   3.529   1.655   9.383 -0.1306 -1.2187  2.2494
  138SAPE  C21215013   3.615   1.582   9.209  0.2099  0.6344  0.0866
  138SAPE  H12R15014   3.540   1.638   9.150 -1.2775  1.3075  2.4809
  138SAPE  C21315015   3.715   1.502   9.129 -0.5434 -0.7712  0.6265
  138SAPE  H13R15016   3.667   1.413   9.082 -1.6524  0.2409 -0.2230
  138SAPE  H13S15017   3.798   1.455   9.187 -3.1951 -4.4905  1.8246
  138SAPE  C21415018   3.775   1.583   9.017 -0.3662  0.1318 -0.2489
  138SAPE  H14R15019   3.860   1.641   9.056 -0.3579 -0.5631  0.7852
  138SAPE  C21515020   3.751   1.575   8.884  0.6371 -0.0242  0.3969
  138SAPE  H15R15021   3.817   1.641   8.826  0.2404  0.6544  0.6913
  138SAPE  C21615022   3.652   1.498   8.805 -0.1586 -0.0714  0.2333
  138SAPE  H16R15023   3.570   1.566   8.772 -0.2650 -0.5188 -0.4396
  138SAPE  H16S15024   3.598   1.411   8.847 -2.2839 -0.9855 -3.8097
  138SAPE  C21715025   3.720   1.432   8.675 -0.2522 -0.0156  0.2051
  138SAPE  H17R15026   3.800   1.366   8.715  0.7958  0.0809 -1.6333
  138SAPE  H17S15027   3.769   1.521   8.629  0.7957  0.0696  1.4169
  138SAPE  C21815028   3.633   1.363   8.576  0.5955 -0.1096 -0.0758
  138SAPE  H18R15029   3.552   1.431   8.541  1.5435 -0.3964 -3.1401
  138SAPE  H18S15030   3.586   1.282   8.636 -1.0735 -0.7116 -2.0618
  138SAPE  C21915031   3.715   1.307   8.460  0.6639 -0.1906  0.7474
  138SAPE  H19R15032   3.795   1.237   8.495  0.6072 -2.1585 -2.6666
  138SAPE  H19S15033   3.770   1.379   8.395 -2.0662  1.1776 -0.1687
  138SAPE  C22015034   3.629   1.216   8.373 -0.9329 -0.0421  0.1039
  138SAPE  H20R15035   3.681   1.168   8.287 -0.0165  2.4740 -0.8375
  138SAPE  H20S15036   3.531   1.256   8.338 -1.5239 -1.5203 -0.0296
  138SAPE  H20T15037   3.593   1.132   8.436 -0.1957  0.2817  0.9680
  138SAPE   C3315038   3.947   1.046   9.889  0.5555  0.0900  0.1417
  138SAPE   H3X15039   3.878   0.968   9.927  3.5040 -2.2273  1.0787
  138SAPE   H3Y15040   4.052   1.031   9.923  0.8924 -1.0081 -1.2879
  138SAPE   C3415041   3.947   1.049   9.735  0.3029  0.4967 -0.0440
  138SAPE   H4X15042   3.840   1.068   9.711 -0.8135 -0.5413  3.5959
  138SAPE   H4Y15043   3.959   0.947   9.693 -2.7407  0.3785 -0.8577
  138SAPE   C3515044   4.040   1.146   9.667 -0.5599 -0.1875  0.1517
  138SAPE   H5X15045   4.142   1.132   9.708 -0.2045  2.7873  0.4497
  138SAPE   H5Y15046   4.023   1.251   9.698  3.7121  0.4570  0.8978
  138SAPE   C3615047   4.053   1.128   9.510 -0.0661  0.2029  0.1912
  138SAPE   H6X15048   4.091   1.026   9.487 -0.0539  0.1707  0.3526
  138SAPE   H6Y15049   4.138   1.193   9.481 -0.2288  0.2914 -0.0965
  138SAPE   C3715050   3.921   1.136   9.432 -0.3119 -0.5236  0.4759
  138SAPE   H7X15051   3.911   1.245   9.416  3.9714  0.0807  0.6734
  138SAPE   H7Y15052   3.833   1.101   9.490 -0.6009 -1.1554 -0.3298
  138SAPE   C3815053   3.933   1.065   9.296 -0.1670  0.6353  0.6749
  138SAPE   H8X15054   3.901   0.959   9.289  0.8769  0.4272 -1.8931
  138SAPE   H8Y15055   4.037   1.067   9.259  0.2149  0.5880  1.7190
  138SAPE   C3915056   3.849   1.134   9.189  0.5668  0.0068 -0.3346
  138SAPE   H9X15057   3.866   1.244   9.183 -2.2910  0.4462 -1.7557
  138SAPE   H9Y15058   3.748   1.125   9.234  0.9303 -2.7753  0.1005
  138SAPE  C31015059   3.866   1.077   9.048 -0.4945 -0.2414 -0.8603
  138SAPE  H10X15060   3.868   0.966   9.052  2.2444 -0.2185  1.3885
  138SAPE  H10Y15061   3.965   1.108   9.008 -0.7202 -0.3060 -1.4766
  138SAPE  C31115062   3.764   1.129   8.951 -0.2734 -0.3260  0.0250
  138SAPE  H11X15063   3.790   1.110   8.844 -2.1072 -1.2284 -0.2949
  138SAPE  H11Y15064   3.740   1.237   8.956  1.7371  0.1165  1.3947
  138SAPE  C31215065   3.642   1.031   8.962 -0.2926  0.1922  0.7759
  138SAPE  H12X15066   3.631   1.007   9.070  1.7845  0.7105  1.1608
  138SAPE  H12Y15067   3.685   0.937   8.922 -1.8300  0.0369 -0.5730
  138SAPE  C31315068   3.519   1.078   8.882  0.0408  0.3907 -0.1748
  138SAPE  H13X15069   3.469   0.985   8.848  1.2057 -0.2065 -0.2784
  138SAPE  H13Y15070   3.548   1.131   8.788  0.4069 -0.5076 -0.5855
  138SAPE  C31415071   3.422   1.151   8.967 -0.1831  1.3173 -1.2047
  138SAPE  H14X15072   3.465   1.245   9.007 -0.0466  0.5642  0.4942
  138SAPE  H14Y15073   3.391   1.095   9.058  1.8603  2.4835  0.2880
  138SAPE  C31515074   3.289   1.184   8.901 -0.5697  0.5318 -0.2040
  138SAPE  H15X15075   3.235   1.258   8.965 -0.6540  0.2874  0.0121
  138SAPE  H15Y15076   3.220   1.097   8.904 -0.8320  0.7413 -0.0097
  138SAPE  C31615077   3.312   1.239   8.761  0.0355 -1.2205 -0.9235
  138SAPE  H16X15078   3.358   1.166   8.690  2.7836  0.1603 -0.7239
  138SAPE  H16Y15079   3.389   1.319   8.775 -1.4263  0.3574 -1.5373
  138SAPE  C31715080   3.180   1.291   8.709  0.2449 -0.2212  0.0669
  138SAPE  H17X15081   3.146   1.369   8.781 -0.9659  1.0577 -1.7810
  138SAPE  H17Y15082   3.111   1.204   8.713 -0.1434  0.0806  0.0820
  138SAPE  C31815083   3.182   1.353   8.572  0.8281  0.5158  0.1338
  138SAPE  H18X15084   3.258   1.434   8.561  0.5795  1.0323  1.9099
  138SAPE  H18Y15085   3.085   1.396   8.542  0.3890  0.4285  1.3643
  138SAPE  H18Z15086   3.195   1.273   8.496 -1.8893 -0.2746  0.4169
  139SAPE     N15087   1.109   6.665  10.863  0.1272  0.4771  0.2471
  139SAPE   HN115088   1.190   6.603  10.844 -0.0254  0.1885  0.5276
  139SAPE   HN215089   1.043   6.630  10.935  1.3992  0.1728  1.3016
  139SAPE   HN315090   1.059   6.690  10.775  2.5301  0.8114 -1.0984
  139SAPE   C1215091   1.171   6.792  10.916 -0.1166  1.0802  0.3009
  139SAPE  H12A15092   1.248   6.768  10.992 -0.5562  2.8315  1.3475
  139SAPE  H12B15093   1.100   6.856  10.973  0.8045  1.4627  1.0396
  139SAPE   C1115094   1.213   6.875  10.793 -0.0772 -0.3069 -0.0959
  139SAPE  H11A15095   1.252   6.974  10.825  1.2677 -1.2691  1.4123
  139SAPE  H11B15096   1.125   6.882  10.725 -0.5371  0.5832  0.5737
  139SAPE     P15097   1.393   6.896  10.610  0.2580  0.3092  0.1218
  139SAPE   O1315098   1.476   6.803  10.528  0.1060 -0.0686  0.2719
  139SAPE   O1415099   1.293   6.984  10.544  0.1636  0.5186 -0.2553
  139SAPE   O1215100   1.318   6.806  10.719  0.7065 -0.2396  0.2534
  139SAPE   O1115101   1.484   6.984  10.708  0.2702  0.8871 -0.3550
  139SAPE    C115102   1.500   7.121  10.697 -0.7572 -0.4721  0.3769
  139SAPE    HA15103   1.398   7.164  10.711 -0.2250  0.2680  2.3145
  139SAPE    HB15104   1.565   7.160  10.778 -1.7059  2.0168  0.0330
  139SAPE    C215105   1.563   7.172  10.567  0.6698  0.2455 -0.1556
  139SAPE    HS15106   1.493   7.165  10.481 -0.9994 -1.4247  1.2324
  139SAPE   O2115107   1.693   7.107  10.560 -0.2947  0.3081  0.2344
  139SAPE   C2115108   1.724   7.073  10.432 -0.6234 -0.0546  0.0889
  139SAPE   O2215109   1.646   7.066  10.343  0.5246  0.6633  0.2645
  139SAPE   C2215110   1.871   7.066  10.415 -0.5217 -0.2029 -0.3229
  139SAPE   H2R15111   1.896   7.173  10.429  0.0808 -0.4152  0.2876
  139SAPE   H2S15112   1.908   7.022  10.511 -0.1733  3.8057  1.5799
  139SAPE    C315113   1.581   7.326  10.584  0.1169 -0.2087 -0.4950
  139SAPE    HX15114   1.662   7.347  10.658 -2.9105  1.2517  2.7215
  139SAPE    HY15115   1.487   7.364  10.630  0.2348  0.6727 -0.9627
  139SAPE   O3115116   1.594   7.374  10.451 -0.1636 -0.5870 -0.0177
  139SAPE   C3115117   1.701   7.451  10.433 -0.0395  0.3143 -0.2075
  139SAPE   O3215118   1.788   7.454  10.518 -0.5905  0.1428 -0.5687
  139SAPE   C3215119   1.689   7.535  10.306 -0.0914  0.2823  0.1414
  139SAPE   H2X15120   1.728   7.630  10.349  1.0890  0.4889 -1.3147
  139SAPE   H2Y15121   1.582   7.559  10.286  0.4597  2.5479 -0.4281
  139SAPE   C2315122   1.925   7.004  10.285  0.1758  0.2147 -0.0474
  139SAPE   H3R15123   1.887   7.063  10.199  1.3452 -2.2714 -2.3917
  139SAPE   H3S15124   1.872   6.906  10.280  0.3406  0.1430 -0.3523
  139SAPE   C2415125   2.074   6.971  10.288 -0.0635 -0.1353  0.2927
  139SAPE   H4R15126   2.090   6.908  10.198 -1.4253  1.1966 -0.9401
  139SAPE   H4S15127   2.104   6.904  10.371  1.9272  0.7035  0.3065
  139SAPE   C2515128   2.155   7.098  10.282  0.0718  0.2614  0.7419
  139SAPE   H5R15129   2.158   7.154  10.377  0.0959  2.2832 -0.3902
  139SAPE   C2615130   2.220   7.143  10.170  0.2340  0.3533 -0.0558
  139SAPE   H6R15131   2.265   7.242  10.190 -1.0235  0.2856  3.9640
  139SAPE   C2715132   2.232   7.076  10.031  0.9417  1.1704 -0.4441
  139SAPE   H7R15133   2.282   6.977  10.043  0.8311  1.3096  1.3152
  139SAPE   H7S15134   2.294   7.142   9.966  0.4669  2.1034  0.0518
  139SAPE   C2815135   2.099   7.039   9.958  0.5625 -0.3442 -0.1897
  139SAPE   H8R15136   2.006   7.047  10.017  0.0007  0.9388 -1.2086
  139SAPE   C2915137   2.087   7.012   9.826 -0.6460  0.2307  0.6782
  139SAPE   H9R15138   1.984   6.985   9.797 -0.3310 -1.6569  1.2002
  139SAPE  C21015139   2.199   7.033   9.730 -0.0996  0.6162  0.1210
  139SAPE  H10R15140   2.282   7.099   9.764 -0.1628  0.6336  0.2424
  139SAPE  H10S15141   2.165   7.075   9.633  4.7751 -2.3313 -3.2971
  139SAPE  C21115142   2.264   6.900   9.693 -0.6514 -0.3308 -0.0205
  139SAPE  H11R15143   2.314   6.858   9.782  1.0301 -0.5733 -1.0334
  139SAPE  C21215144   2.274   6.853   9.569  0.2975 -0.0358  0.2235
  139SAPE  H12R15145   2.281   6.743   9.566 -0.7026 -0.1976  2.1305
  139SAPE  C21315146   2.216   6.910   9.448 -0.4558  0.3882  0.4340
  139SAPE  H13R15147   2.128   6.976   9.466  0.2442  1.1479  1.1248
  139SAPE  H13S15148   2.165   6.830   9.390 -0.0233 -0.4231  1.1546
  139SAPE  C21415149   2.331   6.982   9.376  0.0159  0.0867  0.1252
  139SAPE  H14R15150   2.366   7.065   9.438 -1.1452  0.6045  0.1124
  139SAPE  C21515151   2.384   6.965   9.255  0.5427  0.2669  0.4125
  139SAPE  H15R15152   2.471   7.026   9.226 -1.1802  2.4509 -0.4584
  139SAPE  C21615153   2.339   6.863   9.158 -0.3343 -0.0510  0.0190
  139SAPE  H16R15154   2.228   6.853   9.158 -0.5042  1.4955 -0.2211
  139SAPE  H16S15155   2.380   6.762   9.178 -0.2607  0.1756  1.0621
  139SAPE  C21715156   2.394   6.897   9.015  0.5538 -0.2897 -0.3699
  139SAPE  H17R15157   2.502   6.922   9.025 -0.0338  2.4969  0.0066
  139SAPE  H17S15158   2.338   6.992   9.002 -1.3467 -0.8243  2.7559
  139SAPE  C21815159   2.352   6.812   8.896  0.1466 -0.0961 -0.4464
  139SAPE  H18R15160   2.250   6.775   8.919 -0.3600  2.3435  1.7490
  139SAPE  H18S15161   2.416   6.721   8.899  0.7173  0.2882 -0.6866
  139SAPE  C21915162   2.374   6.885   8.767 -0.8546  0.4210 -0.5558
  139SAPE  H19R15163   2.328   6.986   8.760  2.0531  1.7935 -1.6203
  139SAPE  H19S15164   2.335   6.820   8.686  1.7325  0.3318 -1.8346
  139SAPE  C22015165   2.530   6.903   8.745  0.1463  0.2875  0.0710
  139SAPE  H20R15166   2.540   6.938   8.640  1.8327  1.0026  0.4227
  139SAPE  H20S15167   2.591   6.811   8.755  0.7763  0.8395  1.7068
  139SAPE  H20T15168   2.573   6.983   8.809 -0.9490  0.6577  0.3527
  139SAPE   C3315169   1.752   7.479  10.177 -0.0454 -0.2030  0.0438
  139SAPE   H3X15170   1.857   7.461  10.210 -0.3756  1.7564  2.4999
  139SAPE   H3Y15171   1.764   7.572  10.117 -0.6034  0.2738  0.6541
  139SAPE   C3415172   1.674   7.372  10.110 -0.5156 -0.7661 -0.3225
  139SAPE   H4X15173   1.574   7.416  10.090  0.8531  1.5253 -2.6091
  139SAPE   H4Y15174   1.658   7.289  10.183  1.1707 -0.6798  0.1879
  139SAPE   C3515175   1.729   7.299   9.981  0.1340  0.5815 -0.6001
  139SAPE   H5X15176   1.656   7.226   9.940  1.4060 -0.2818 -1.4295
  139SAPE   H5Y15177   1.811   7.246  10.035 -0.7946 -0.8778 -0.5632
  139SAPE   C3615178   1.800   7.388   9.881  0.3804 -0.6389  0.4458
  139SAPE   H6X15179   1.865   7.463   9.931 -1.5508  2.2023 -1.0590
  139SAPE   H6Y15180   1.722   7.449   9.831 -0.0964 -0.4842  1.3522
  139SAPE   C3715181   1.868   7.302   9.766  0.1108 -0.4248 -0.3626
  139SAPE   H7X15182   1.807   7.216   9.730  0.0379  0.6590 -2.9945
  139SAPE   H7Y15183   1.954   7.251   9.814  0.2835  1.1678  1.1446
  139SAPE   C3815184   1.914   7.386   9.652  0.2140 -0.7502 -0.0259
  139SAPE   H8X15185   1.990   7.324   9.599 -0.3703 -0.2783 -1.4526
  139SAPE   H8Y15186   1.970   7.475   9.688  1.0900 -1.4233  0.3258
  139SAPE   C3915187   1.808   7.443   9.552 -0.4306  0.2190 -0.3549
  139SAPE   H9X15188   1.775   7.543   9.588 -1.5107  0.2126 -1.2955
  139SAPE   H9Y15189   1.718   7.379   9.544 -0.7880  0.7879 -1.0114
  139SAPE  C31015190   1.865   7.450   9.411  0.7245  0.3380 -0.3126
  139SAPE  H10X15191   1.891   7.350   9.370 -0.6011 -0.8576  1.6023
  139SAPE  H10Y15192   1.952   7.520   9.412 -0.1880  1.5042  0.3769
  139SAPE  C31115193   1.754   7.508   9.321  0.2639 -0.5660  0.1105
  139SAPE  H11X15194   1.745   7.616   9.341  2.6350 -0.7074  2.6050
  139SAPE  H11Y15195   1.652   7.471   9.346 -0.2988  1.0958  0.3902
  139SAPE  C31215196   1.771   7.474   9.175 -0.4144  0.1120 -0.4949
  139SAPE  H12X15197   1.781   7.367   9.147  1.4140  0.0541  0.2280
  139SAPE  H12Y15198   1.873   7.510   9.147 -0.5716 -1.4865 -3.6635
  139SAPE  C31315199   1.676   7.536   9.076 -0.0212  0.2845 -0.0183
  139SAPE  H13X15200   1.683   7.645   9.090 -0.7665  0.1305  1.9582
  139SAPE  H13Y15201   1.577   7.517   9.123 -0.9169  2.4953 -0.9068
  139SAPE  C31415202   1.687   7.476   8.930 -0.6388 -0.7040 -0.5508
  139SAPE  H14X15203   1.781   7.512   8.883 -0.8951 -0.2373 -0.7195
  139SAPE  H14Y15204   1.605   7.533   8.879 -3.2174 -2.2205  1.6467
  139SAPE  C31515205   1.656   7.326   8.917  0.0726  0.5957 -0.0652
  139SAPE  H15X15206   1.591   7.299   9.003  0.4104  0.0041  0.0058
  139SAPE  H15Y15207   1.750   7.268   8.925  0.3077  1.1973  2.3742
  139SAPE  C31615208   1.584   7.300   8.786 -0.0367 -0.9219 -0.4618
  139SAPE  H16X15209   1.557   7.192   8.790  1.1609 -1.2072  1.0029
  139SAPE  H16Y15210   1.496   7.367   8.784  1.2175  0.7753 -1.2267
  139SAPE  C31715211   1.666   7.332   8.658  0.2577 -0.5106 -0.2692
  139SAPE  H17X15212   1.707   7.232   8.635  0.6590 -0.0733 -1.5675
  139SAPE  H17Y15213   1.747   7.397   8.698 -0.4370 -0.1234  0.5317
  139SAPE  C31815214   1.596   7.399   8.544  0.6594 -0.3003 -0.1041
  139SAPE  H18X15215   1.670   7.463   8.491  1.7868 -0.0107  1.7170
  139SAPE  H18Y15216   1.514   7.469   8.570 -0.1514 -1.8600  1.7786
  139SAPE  H18Z15217   1.558   7.314   8.483  0.2339 -1.1472  1.2960
  140SAPE     N15218   6.650   3.308  10.993  0.1044  0.0694 -0.3350
  140SAPE   HN115219   6.740   3.352  11.020  0.1038 -0.6134  0.8146
  140SAPE   HN215220   6.658   3.208  11.020  0.6839  0.2774  0.2979
  140SAPE   HN315221   6.646   3.324  10.890  2.2589  2.9185 -0.0985
  140SAPE   C1215222   6.525   3.358  11.062  0.0159  0.1760  0.1296
  140SAPE  H12A15223   6.538   3.468  11.077  1.0123 -0.0736  1.2806
  140SAPE  H12B15224   6.523   3.304  11.159 -1.1464  1.3498  0.7894
  140SAPE   C1115225   6.402   3.322  10.981  0.8791 -0.4903  0.0525
  140SAPE  H11A15226   6.405   3.381  10.887  0.3914 -1.4577 -0.5853
  140SAPE  H11B15227   6.302   3.348  11.023  0.3076 -0.7537 -1.0915
  140SAPE     P15228   6.279   3.093  10.929  0.3553  0.1410  0.1013
  140SAPE   O1315229   6.324   2.956  10.903 -0.0349 -0.3655 -0.7497
  140SAPE   O1415230   6.170   3.107  11.032  0.1214 -0.0715  0.0210
  140SAPE   O1215231   6.401   3.186  10.946  0.2137 -0.0321 -0.0625
  140SAPE   O1115232   6.230   3.151  10.796  0.1080 -0.2259  0.3431
  140SAPE    C115233   6.325   3.177  10.693  0.1697 -0.7906  0.1451
  140SAPE    HA15234   6.334   3.287  10.680 -1.6310 -0.7679 -1.2263
  140SAPE    HB15235   6.427   3.137  10.711  0.0394 -1.2720 -0.1723
  140SAPE    C215236   6.275   3.137  10.551 -0.1033  0.2015 -0.2071
  140SAPE    HS15237   6.359   3.177  10.490  1.7477  0.6902  2.4943
  140SAPE   O2115238   6.145   3.188  10.520  0.0093 -0.0242 -0.2835
  140SAPE   C2115239   6.142   3.315  10.490 -0.1567 -0.0870 -0.2688
  140SAPE   O2215240   6.238   3.391  10.486 -0.1542  0.1599  0.0642
  140SAPE   C2215241   5.988   3.355  10.471  0.2500  0.1583  0.3467
  140SAPE   H2R15242   5.965   3.273  10.400  3.7159 -0.3677 -0.3731
  140SAPE   H2S15243   5.941   3.330  10.568  0.4856 -1.2331  0.1177
  140SAPE    C315244   6.272   2.986  10.536 -0.4729  0.0907  0.6333
  140SAPE    HX15245   6.219   2.935  10.620 -0.2252 -0.6240  0.3623
  140SAPE    HY15246   6.375   2.950  10.553 -0.5835 -0.8594 -0.6513
  140SAPE   O3115247   6.236   2.945  10.399  0.2107  0.1066  0.3313
  140SAPE   C3115248   6.118   2.911  10.379  0.0239  0.2900  1.0321
  140SAPE   O3215249   6.027   2.900  10.461  0.5677 -0.2262 -0.1735
  140SAPE   C3215250   6.094   2.875  10.229 -0.1410 -0.7777  0.2026
  140SAPE   H2X15251   5.992   2.831  10.234 -0.6360  0.3936  0.7173
  140SAPE   H2Y15252   6.156   2.791  10.193 -0.5001 -1.3815  0.9533
  140SAPE   C2315253   5.970   3.502  10.407 -0.4405 -0.6833 -0.1108
  140SAPE   H3R15254   6.008   3.590  10.463  0.3118 -0.4054 -1.0331
  140SAPE   H3S15255   5.859   3.508  10.407 -0.3517  2.1483  0.3117
  140SAPE   C2415256   6.024   3.528  10.267 -0.1328 -0.4396 -0.2241
  140SAPE   H4R15257   6.135   3.519  10.258  0.0643  1.7913 -0.6793
  140SAPE   H4S15258   6.013   3.638  10.250  2.6499 -0.2128 -1.1755
  140SAPE   C2515259   5.941   3.448  10.165  0.2384 -0.0099  0.6042
  140SAPE   H5R15260   5.833   3.464  10.164 -0.1241 -1.7792  2.9071
  140SAPE   C2615261   5.998   3.368  10.076  0.2737  0.1374  0.1992
  140SAPE   H6R15262   5.936   3.311  10.006  0.4320  3.0045 -2.4952
  140SAPE   C2715263   6.145   3.341  10.063  0.3876 -0.5962  0.4938
  140SAPE   H7R15264   6.155   3.241  10.014  0.1024 -0.1267 -0.5563
  140SAPE   H7S15265   6.193   3.340  10.163  1.3177 -1.8564  0.0590
  140SAPE   C2815266   6.221   3.445   9.971  0.1129 -0.4378 -0.6171
  140SAPE   H8R15267   6.280   3.521  10.024  0.1497 -0.4020 -0.7109
  140SAPE   C2915268   6.225   3.449   9.841  0.6552  0.6979  1.2811
  140SAPE   H9R15269   6.284   3.528   9.791  0.2744 -0.3617 -0.9919
  140SAPE  C21015270   6.137   3.355   9.751 -0.4610  0.0858  0.2546
  140SAPE  H10R15271   6.127   3.254   9.796  0.6017 -0.0421  0.2297
  140SAPE  H10S15272   6.192   3.353   9.655  0.2203  3.9173  0.4386
  140SAPE  C21115273   6.001   3.407   9.719 -0.6960  0.8058 -0.1943
  140SAPE  H11R15274   5.957   3.495   9.770 -0.7517  1.9203 -2.0665
  140SAPE  C21215275   5.923   3.348   9.627  0.7571  0.3416 -0.6715
  140SAPE  H12R15276   5.822   3.388   9.608  1.4722  2.8330  0.3924
  140SAPE  C21315277   5.966   3.228   9.541  0.2327 -0.2942 -0.8492
  140SAPE  H13R15278   5.968   3.146   9.616 -4.2838  2.5088  2.9826
  140SAPE  H13S15279   6.069   3.245   9.505  0.8359  0.5566  1.1822
  140SAPE  C21415280   5.861   3.172   9.447  0.8305 -0.2749  0.3194
  140SAPE  H14R15281   5.765   3.146   9.494 -0.3353  0.3805 -1.6042
  140SAPE  C21515282   5.873   3.165   9.316  0.7411  0.1958  0.3087
  140SAPE  H15R15283   5.782   3.144   9.258  0.6799 -0.8177  0.7450
  140SAPE  C21615284   5.992   3.215   9.238  0.4422  0.6075 -0.0383
  140SAPE  H16R15285   6.085   3.209   9.297  0.3356  1.2926  0.2053
  140SAPE  H16S15286   5.982   3.324   9.219  0.1150  0.3954 -1.2061
  140SAPE  C21715287   6.015   3.142   9.105  0.0225 -0.6339  0.0304
  140SAPE  H17R15288   6.009   3.031   9.106  0.6362 -0.6899 -0.7752
  140SAPE  H17S15289   6.122   3.156   9.078  0.3942 -3.6458 -0.3480
  140SAPE  C21815290   5.925   3.203   9.001  0.9054 -0.9780 -0.4800
  140SAPE  H18R15291   5.915   3.313   9.017  1.3513 -1.1767  1.4178
  140SAPE  H18S15292   5.820   3.166   9.000  0.6495 -0.2852  0.1475
  140SAPE  C21915293   5.986   3.194   8.859 -0.0072  0.1799  0.0418
  140SAPE  H19R15294   5.995   3.086   8.834  1.1023 -0.9214  4.4145
  140SAPE  H19S15295   6.088   3.238   8.865 -0.8425  3.0502 -3.2252
  140SAPE  C22015296   5.906   3.267   8.746 -0.1491  0.8874 -0.5788
  140SAPE  H20R15297   5.958   3.259   8.649 -0.1335  2.9356 -0.7808
  140SAPE  H20S15298   5.877   3.370   8.777 -1.4616  0.0561  1.1778
  140SAPE  H20T15299   5.814   3.207   8.727  1.3398 -2.5836  1.9179
  140SAPE   C3315300   6.100   2.997  10.147 -0.5993 -0.6509 -0.1292
  140SAPE   H3X15301   6.205   3.017  10.117 -0.4337  0.2725  1.0164
  140SAPE   H3Y15302   6.066   3.090  10.196  0.5385 -0.1022 -0.3594
  140SAPE   C3415303   6.018   2.987  10.020 -0.3750 -0.1952 -0.7640
  140SAPE   H4X15304   6.001   3.091   9.984 -0.8976  0.6534  1.7276
  140SAPE   H4Y15305   5.914   2.954  10.044 -0.2671 -0.0006 -0.0150
  140SAPE   C3515306   6.074   2.900   9.904  0.2321 -0.5160 -0.2125
  140SAPE   H5X15307   6.085   2.796   9.941 -1.1014 -0.4790  0.3403
  140SAPE   H5Y15308   6.174   2.940   9.876  0.6411  0.6624  2.5379
  140SAPE   C3615309   5.974   2.884   9.789  0.4488 -0.1836  0.4607
  140SAPE   H6X15310   6.037   2.831   9.715 -0.7750 -2.4897  0.9780
  140SAPE   H6Y15311   5.931   2.977   9.747 -0.5631 -0.6919  0.3435
  140SAPE   C3715312   5.847   2.792   9.807 -0.5849  0.8404  0.1297
  140SAPE   H7X15313   5.821   2.786   9.915 -0.7465  0.6593  0.0812
  140SAPE   H7Y15314   5.876   2.688   9.780 -0.0504  0.2282  2.7676
  140SAPE   C3815315   5.724   2.844   9.730 -0.1643  0.5189 -0.4794
  140SAPE   H8X15316   5.701   2.949   9.758 -1.2000  0.5932 -1.5167
  140SAPE   H8Y15317   5.640   2.776   9.756  1.9543 -2.0668 -0.0029
  140SAPE   C3915318   5.740   2.823   9.579 -0.0803  0.5095  0.3429
  140SAPE   H9X15319   5.739   2.713   9.560 -0.0832  0.4791  0.5122
  140SAPE   H9Y15320   5.833   2.868   9.538  0.7704 -0.4374  1.1531
  140SAPE  C31015321   5.622   2.874   9.490  0.0139  0.6201 -0.4298
  140SAPE  H10X15322   5.607   2.982   9.512 -0.8926  0.3021  0.6303
  140SAPE  H10Y15323   5.527   2.823   9.518 -1.8761  3.5487 -1.0128
  140SAPE  C31115324   5.661   2.866   9.341  0.5257  0.1316  0.1803
  140SAPE  H11X15325   5.674   2.757   9.321  1.1020  0.4300 -1.1547
  140SAPE  H11Y15326   5.756   2.919   9.324  0.2350  0.1710 -1.4643
  140SAPE  C31215327   5.550   2.911   9.253  0.3040 -0.0729 -1.0032
  140SAPE  H12X15328   5.502   3.005   9.290 -1.6753 -1.3362 -0.1629
  140SAPE  H12Y15329   5.470   2.834   9.248  0.6751 -0.8171  2.1353
  140SAPE  C31315330   5.598   2.961   9.114 -0.7953 -0.1288  0.2360
  140SAPE  H13X15331   5.682   3.033   9.122  0.5110 -1.7581  2.1290
  140SAPE  H13Y15332   5.514   3.016   9.065 -1.2499  0.1124  1.2559
  140SAPE  C31415333   5.628   2.836   9.023 -0.1759 -0.1871  0.4059
  140SAPE  H14X15334   5.527   2.790   9.016  0.3264 -1.1387 -1.4130
  140SAPE  H14Y15335   5.700   2.772   9.078  0.9942  1.8905  1.4167
  140SAPE  C31515336   5.696   2.856   8.890 -0.5047 -0.0209 -1.0106
  140SAPE  H15X15337   5.701   2.760   8.835 -1.0140  0.4244 -1.8540
  140SAPE  H15Y15338   5.798   2.894   8.916 -0.4438 -0.4174 -0.6580
  140SAPE  C31615339   5.623   2.952   8.798 -0.0518 -0.4357  0.1726
  140SAPE  H16X15340   5.614   3.046   8.856  0.5473  0.6755 -1.4435
  140SAPE  H16Y15341   5.520   2.912   8.792  0.0335 -0.7972  0.9470
  140SAPE  C31715342   5.688   2.965   8.657 -0.1840  0.0675 -0.6278
  140SAPE  H17X15343   5.715   2.862   8.625  1.7047 -0.1246  1.3590
  140SAPE  H17Y15344   5.787   3.015   8.658 -1.4841  2.8743 -0.7738
  140SAPE  C31815345   5.600   3.047   8.566 -0.1625 -0.4042  0.0299
  140SAPE  H18X15346   5.653   3.069   8.471 -0.3714 -0.9232 -0.2112
  140SAPE  H18Y15347   5.566   3.144   8.608 -1.9797 -0.9081 -0.1971
  140SAPE  H18Z15348   5.502   3.003   8.537  0.1021 -1.0737  0.1565
  141SAPE     N15349   5.600   4.151  10.481  0.7565  0.1191  0.2683
  141SAPE   HN115350   5.528   4.211  10.526  1.2134  0.8372  0.0505
  141SAPE   HN215351   5.681   4.215  10.480 -0.4025  1.6556  0.1556
  141SAPE   HN315352   5.580   4.133  10.380  0.2878  2.4018 -0.1021
  141SAPE   C1215353   5.605   4.025  10.555  0.0555 -0.8199 -0.4073
  141SAPE  H12A15354   5.701   3.971  10.537  1.5791  1.8944 -1.0832
  141SAPE  H12B15355   5.514   3.966  10.534  1.6165 -3.5544  0.1206
  141SAPE   C1115356   5.584   4.052  10.704 -0.4086 -0.1873  0.0736
  141SAPE  H11A15357   5.600   3.958  10.761 -1.8850 -0.2762  0.3949
  141SAPE  H11B15358   5.481   4.083  10.732  0.1079  0.0230  1.8471
  141SAPE     P15359   5.804   4.117  10.819 -0.2251 -0.3961  0.1687
  141SAPE   O1315360   5.871   4.239  10.861  0.1192  0.4419  0.0172
  141SAPE   O1415361   5.786   4.015  10.926  0.1396  0.6316  0.5168
  141SAPE   O1215362   5.664   4.157  10.753 -0.0164 -0.4743  0.4549
  141SAPE   O1115363   5.881   4.047  10.705  0.4672 -0.0393  0.1479
  141SAPE    C115364   5.998   4.105  10.649  0.4075 -0.4390  0.1504
  141SAPE    HA15365   5.985   4.209  10.611 -0.8752  0.3014  2.4357
  141SAPE    HB15366   6.089   4.112  10.712  0.4056 -3.5857  0.6387
  141SAPE    C215367   6.046   4.010  10.533 -0.4919 -0.1541 -0.3887
  141SAPE    HS15368   6.141   4.062  10.508 -0.0586 -0.0392  1.3453
  141SAPE   O2115369   5.947   3.994  10.428  1.0507  0.0012  0.1101
  141SAPE   C2115370   5.982   4.063  10.321 -0.2766 -0.3028 -0.1452
  141SAPE   O2215371   6.092   4.114  10.295 -0.3198  0.4668  0.0386
  141SAPE   C2215372   5.859   4.067  10.231 -0.3690  0.4798  0.3437
  141SAPE   H2R15373   5.772   4.101  10.290  1.6541  2.3297  2.4769
  141SAPE   H2S15374   5.883   4.148  10.158 -2.8429  0.1044 -0.9849
  141SAPE    C315375   6.090   3.867  10.578 -0.1690  0.4682  0.2105
  141SAPE    HX15376   5.995   3.817  10.607 -0.1112  0.7383  0.8832
  141SAPE    HY15377   6.151   3.849  10.669  1.6751 -2.0079 -1.3805
  141SAPE   O3115378   6.146   3.799  10.462 -0.0281 -0.0664 -0.4026
  141SAPE   C3115379   6.275   3.810  10.462  0.1658 -0.9719 -0.3778
  141SAPE   O3215380   6.343   3.893  10.521  0.1070 -0.1455 -0.1334
  141SAPE   C3215381   6.318   3.708  10.359  0.0357  0.2212 -0.2900
  141SAPE   H2X15382   6.251   3.622  10.377 -1.2471  1.2547 -0.0069
  141SAPE   H2Y15383   6.421   3.670  10.379 -0.1409  0.9599  2.4283
  141SAPE   C2315384   5.828   3.929  10.174  0.4369 -0.2779  0.2783
  141SAPE   H3R15385   5.717   3.926  10.183  0.1082  3.2113 -1.1670
  141SAPE   H3S15386   5.870   3.860  10.250  1.5209 -2.1564 -1.9001
  141SAPE   C2415387   5.893   3.912  10.037  0.1823 -0.3051 -0.4615
  141SAPE   H4R15388   5.993   3.960  10.032  0.5227 -0.6260  2.0583
  141SAPE   H4S15389   5.830   3.969   9.965 -1.3071 -1.5397 -0.2018
  141SAPE   C2515390   5.880   3.776   9.975  0.3395 -0.2562  0.2987
  141SAPE   H5R15391   5.961   3.709  10.007 -0.9468 -1.2873  1.4876
  141SAPE   C2615392   5.791   3.736   9.880 -0.3274  0.2568 -0.1019
  141SAPE   H6R15393   5.799   3.631   9.847  1.3480  0.8770 -1.8634
  141SAPE   C2715394   5.685   3.811   9.811  0.8449 -0.5096 -0.1967
  141SAPE   H7R15395   5.654   3.761   9.717  1.0678 -2.3950  0.6827
  141SAPE   H7S15396   5.718   3.915   9.788  0.2641 -0.4321 -0.6981
  141SAPE   C2815397   5.565   3.823   9.903 -0.0870  0.1331 -0.3140
  141SAPE   H8R15398   5.593   3.832  10.009  2.0778 -0.7004 -0.7718
  141SAPE   C2915399   5.439   3.816   9.868  0.0153  0.3128  0.1988
  141SAPE   H9R15400   5.375   3.816   9.958 -0.5418 -1.3623 -0.1563
  141SAPE  C21015401   5.389   3.802   9.729  0.1972  0.4438  0.6094
  141SAPE  H10R15402   5.342   3.702   9.722  0.6214  0.3450 -1.2561
  141SAPE  H10S15403   5.469   3.810   9.651 -0.1853  1.3751  0.2964
  141SAPE  C21115404   5.273   3.894   9.684 -0.7861 -0.6886  0.0598
  141SAPE  H11R15405   5.220   3.933   9.772  0.1994  1.3193 -0.1793
  141SAPE  C21215406   5.247   3.948   9.566  0.1215  0.0854 -0.0225
  141SAPE  H12R15407   5.169   4.027   9.563  0.0112  0.0492  1.3688
  141SAPE  C21315408   5.315   3.933   9.432  0.1642 -0.3316 -0.3855
  141SAPE  H13R15409   5.418   3.891   9.439  0.7447  1.0184 -0.5466
  141SAPE  H13S15410   5.316   4.036   9.391 -0.1858 -0.2241 -0.1253
  141SAPE  C21415411   5.239   3.845   9.337 -0.7504 -0.4637 -0.2970
  141SAPE  H14R15412   5.149   3.802   9.382  0.9849 -1.4194  2.4920
  141SAPE  C21515413   5.288   3.808   9.218 -0.4988 -0.9766 -0.2301
  141SAPE  H15R15414   5.222   3.758   9.145  1.5278 -1.5058 -1.7704
  141SAPE  C21615415   5.417   3.853   9.158  0.4965  1.1319  0.2031
  141SAPE  H16R15416   5.432   3.776   9.079 -1.2960 -0.3852  1.2438
  141SAPE  H16S15417   5.506   3.839   9.224 -0.5148 -1.9371  1.0806
  141SAPE  C21715418   5.414   3.990   9.088 -0.2780 -0.1614 -0.7187
  141SAPE  H17R15419   5.522   4.006   9.063  0.4226 -0.3154  1.9255
  141SAPE  H17S15420   5.400   4.061   9.172  0.9212  0.4859 -1.0371
  141SAPE  C21815421   5.332   4.010   8.966  0.6688  0.0942 -0.2944
  141SAPE  H18R15422   5.346   4.109   8.918 -3.0410  0.1670 -1.5705
  141SAPE  H18S15423   5.225   3.988   8.989  1.6451 -2.8577  2.1273
  141SAPE  C21915424   5.378   3.908   8.858  0.2761 -0.2846 -0.3250
  141SAPE  H19R15425   5.381   3.800   8.882  1.7608 -0.0919  0.4634
  141SAPE  H19S15426   5.484   3.934   8.840  1.3878 -2.0660  2.9570
  141SAPE  C22015427   5.304   3.921   8.724  0.2369  0.1255  0.1601
  141SAPE  H20R15428   5.283   4.024   8.687 -0.9694 -0.0773  0.2195
  141SAPE  H20S15429   5.204   3.874   8.739  1.2260 -2.8100 -1.6673
  141SAPE  H20T15430   5.344   3.857   8.642  1.3982  1.3538 -0.2617
  141SAPE   C3315431   6.307   3.765  10.214 -0.3552  0.6938 -1.0715
  141SAPE   H3X15432   6.207   3.813  10.207 -0.2472  0.9610 -0.8255
  141SAPE   H3Y15433   6.321   3.685  10.139  2.3159  0.6237 -0.6027
  141SAPE   C3415434   6.417   3.877  10.196  0.2030  0.0134  0.5798
  141SAPE   H4X15435   6.519   3.844  10.168  0.1753  1.4430 -1.4418
  141SAPE   H4Y15436   6.425   3.931  10.292  0.7810 -1.1027  1.1730
  141SAPE   C3515437   6.367   3.984  10.095  0.8845 -0.6356 -0.2497
  141SAPE   H5X15438   6.437   4.071  10.091 -1.0853  0.9919 -1.3239
  141SAPE   H5Y15439   6.270   4.020  10.136  0.7122  0.8544 -1.8419
  141SAPE   C3615440   6.325   3.931   9.952 -0.5711 -0.0845 -0.5700
  141SAPE   H6X15441   6.245   3.853   9.959  0.4023 -1.0051  0.8617
  141SAPE   H6Y15442   6.418   3.898   9.901 -0.2300 -0.2835  0.1588
  141SAPE   C3715443   6.275   4.043   9.863 -0.3638 -0.1841 -0.7652
  141SAPE   H7X15444   6.337   4.135   9.871 -2.5235  1.2063  0.9721
  141SAPE   H7Y15445   6.174   4.068   9.902 -0.4175 -0.0934 -0.9619
  141SAPE   C3815446   6.276   4.001   9.720  0.0432  0.6371 -0.3032
  141SAPE   H8X15447   6.234   3.898   9.724 -1.5799  1.2866  0.5205
  141SAPE   H8Y15448   6.379   3.977   9.688  0.7341 -0.5787  2.5201
  141SAPE   C3915449   6.198   4.085   9.618 -0.0127  0.5680 -0.1842
  141SAPE   H9X15450   6.217   4.040   9.518 -0.5457  2.5324 -1.2190
  141SAPE   H9Y15451   6.241   4.187   9.627  0.7287  0.3494 -1.0190
  141SAPE  C31015452   6.045   4.098   9.636 -0.2630  0.7592  0.5288
  141SAPE  H10X15453   5.992   4.148   9.552  0.8968 -0.7471 -1.1641
  141SAPE  H10Y15454   6.028   4.154   9.731 -1.5373 -1.3114  1.5827
  141SAPE  C31115455   5.972   3.957   9.651 -0.3879  0.0460  0.3384
  141SAPE  H11X15456   5.867   3.991   9.664 -0.1836  0.3126  1.3610
  141SAPE  H11Y15457   6.008   3.911   9.745  1.4885 -0.5449 -0.6056
  141SAPE  C31215458   5.982   3.878   9.523  0.1511  0.1155  0.7108
  141SAPE  H12X15459   6.078   3.823   9.517  0.2740  0.4577 -2.8312
  141SAPE  H12Y15460   5.990   3.944   9.434  0.0171 -1.3706 -0.4437
  141SAPE  C31315461   5.868   3.775   9.514 -0.6760  0.5902 -0.4707
  141SAPE  H13X15462   5.766   3.818   9.506 -1.1658 -0.3606  0.3523
  141SAPE  H13Y15463   5.875   3.727   9.615  1.0604  1.1821 -0.2876
  141SAPE  C31415464   5.896   3.659   9.420  0.0342 -0.4011  0.0168
  141SAPE  H14X15465   5.808   3.593   9.406  1.2157 -2.0367 -0.0510
  141SAPE  H14Y15466   5.977   3.597   9.464 -2.7973 -4.3628  0.2096
  141SAPE  C31515467   5.944   3.710   9.282 -0.1653 -0.3770  0.0411
  141SAPE  H15X15468   5.969   3.614   9.231  2.1348  0.3049 -0.2468
  141SAPE  H15Y15469   6.034   3.773   9.297 -1.4309  1.3555  0.6549
  141SAPE  C31615470   5.835   3.778   9.206 -0.1603 -0.6731  0.4002
  141SAPE  H16X15471   5.835   3.888   9.218  0.4811 -0.7517  1.1628
  141SAPE  H16Y15472   5.739   3.742   9.248  0.1333 -1.4359  0.4406
  141SAPE  C31715473   5.832   3.754   9.053 -0.6795 -0.2903  0.9791
  141SAPE  H17X15474   5.754   3.820   9.009 -1.1786 -0.8405  1.0196
  141SAPE  H17Y15475   5.804   3.651   9.023  0.3575 -0.2627 -0.1599
  141SAPE  C31815476   5.966   3.790   8.983 -0.6995 -0.1726 -0.2756
  141SAPE  H18X15477   5.985   3.900   8.977  2.1032 -0.6380 -3.3314
  141SAPE  H18Y15478   5.966   3.757   8.876  0.3730  1.2218 -0.7403
  141SAPE  H18Z15479   6.054   3.744   9.034 -0.5898  2.1217  1.7740
  142SAPE     N15480   1.042   2.975  10.852  0.2078 -0.4219  0.6174
  142SAPE   HN115481   1.129   3.004  10.802  0.2897  0.2997  1.1685
  142SAPE   HN215482   1.018   2.886  10.804  0.9708 -0.1163 -0.3762
  142SAPE   HN315483   0.975   3.051  10.827  1.1077  1.2924  3.0066
  142SAPE   C1215484   1.046   2.963  10.998  0.2003  0.2003  0.2753
  142SAPE  H12A15485   1.024   3.065  11.035  0.6985 -0.0426  1.3043
  142SAPE  H12B15486   1.151   2.933  11.021  0.0175  0.2266  1.1692
  142SAPE   C1115487   0.957   2.848  11.051 -0.3477  0.6197  0.6647
  142SAPE  H11A15488   0.960   2.868  11.161  3.3005 -0.7175  0.9656
  142SAPE  H11B15489   1.008   2.752  11.026 -0.1991  0.2813  2.1434
  142SAPE     P15490   0.729   2.738  11.020  0.0288  0.1136  0.0104
  142SAPE   O1315491   0.798   2.606  11.020  0.6241 -0.4235 -0.3041
  142SAPE   O1415492   0.659   2.764  11.147  0.0995 -0.1863  0.3224
  142SAPE   O1215493   0.825   2.864  10.987  0.4200  0.0708 -0.3036
  142SAPE   O1115494   0.636   2.742  10.901  0.5463 -0.0455 -0.4396
  142SAPE    C115495   0.622   2.861  10.816 -0.5470 -0.0241  0.3343
  142SAPE    HA15496   0.573   2.949  10.863 -0.9085  0.2870 -0.5994
  142SAPE    HB15497   0.716   2.903  10.774 -2.8508  1.6177 -3.6892
  142SAPE    C215498   0.530   2.835  10.695 -0.1627  1.0244  0.0277
  142SAPE    HS15499   0.585   2.767  10.626 -0.8990 -2.3315  2.4913
  142SAPE   O2115500   0.479   2.960  10.642 -0.2982  0.3726  0.2555
  142SAPE   C2115501   0.567   3.018  10.571 -0.0313  0.0969 -0.1948
  142SAPE   O2215502   0.682   2.978  10.538  0.8733  0.1294 -0.4560
  142SAPE   C2215503   0.527   3.159  10.547  0.0140 -0.5981  0.8752
  142SAPE   H2R15504   0.436   3.188  10.606 -0.2740  0.5772 -0.0981
  142SAPE   H2S15505   0.607   3.234  10.567 -1.2628  0.9026  0.6024
  142SAPE    C315506   0.413   2.740  10.730  0.1220  0.2869  0.7154
  142SAPE    HX15507   0.372   2.795  10.817  1.3389  0.3968  1.2418
  142SAPE    HY15508   0.446   2.637  10.753 -0.3039 -0.7224 -2.5861
  142SAPE   O3115509   0.324   2.725  10.615  0.4707  0.2729 -0.2178
  142SAPE   C3115510   0.216   2.806  10.619 -0.9745  0.2194 -0.8674
  142SAPE   O3215511   0.192   2.888  10.703 -0.0982  0.2509 -0.3464
  142SAPE   C3215512   0.138   2.788  10.492  0.2614 -0.8694 -0.5727
  142SAPE   H2X15513   0.113   2.681  10.474 -1.3439 -0.7150  0.5557
  142SAPE   H2Y15514   0.205   2.840  10.420 -0.9078 -0.2522 -1.2417
  142SAPE   C2315515   0.488   3.175  10.399  0.2898  0.6201 -0.4740
  142SAPE   H3R15516   0.561   3.129  10.329  0.7642  0.6145  0.0145
  142SAPE   H3S15517   0.498   3.283  10.376  2.6675  1.1048  2.2356
  142SAPE   C2415518   0.343   3.110  10.370  0.1976 -0.5080 -0.6437
  142SAPE   H4R15519   0.261   3.167  10.418  0.9597  0.7105 -0.7271
  142SAPE   H4S15520   0.346   3.006  10.408  1.7623 -0.5010 -0.6483
  142SAPE   C2515521   0.292   3.119  10.229  0.1319 -0.3979  0.3278
  142SAPE   H5R15522   0.198   3.175  10.224  1.1373  1.7153  2.8914
  142SAPE   C2615523   0.339   3.054  10.119  0.5182  0.3206 -0.0429
  142SAPE   H6R15524   0.283   3.064  10.025  1.7014  2.9313 -0.5530
  142SAPE   C2715525   0.453   2.947  10.119  0.3839  0.1419  0.0801
  142SAPE   H7R15526   0.409   2.847  10.094  0.9456 -0.3942  1.1386
  142SAPE   H7S15527   0.503   2.925  10.216  0.7727  2.1534  0.3694
  142SAPE   C2815528   0.568   2.968  10.029 -0.5635 -0.4461  0.0523
  142SAPE   H8R15529   0.656   2.997  10.089  0.2190  0.2009 -1.3742
  142SAPE   C2915530   0.582   2.962   9.896  0.0282 -0.7462 -0.2558
  142SAPE   H9R15531   0.678   2.984   9.847 -1.1082 -0.5114 -2.5094
  142SAPE  C21015532   0.476   2.928   9.797  0.5268  0.8907 -0.6633
  142SAPE  H10R15533   0.440   3.022   9.751 -2.1116 -0.2649 -1.1317
  142SAPE  H10S15534   0.395   2.877   9.853  0.1615  0.1447 -1.8516
  142SAPE  C21115535   0.531   2.841   9.691 -0.3100  0.2246 -0.1712
  142SAPE  H11R15536   0.573   2.745   9.725  0.1625  0.5992  0.3088
  142SAPE  C21215537   0.536   2.869   9.560 -0.6270 -0.1472  0.0181
  142SAPE  H12R15538   0.584   2.787   9.505  1.8060 -0.0165  1.7687
  142SAPE  C21315539   0.493   2.994   9.492  0.0812  1.4859 -0.4166
  142SAPE  H13R15540   0.550   3.013   9.399 -0.8675  1.9392 -0.9067
  142SAPE  H13S15541   0.511   3.075   9.566 -1.1899  1.0165  0.4449
  142SAPE  C21415542   0.346   2.975   9.466  0.4189  0.0400  0.7652
  142SAPE  H14R15543   0.291   2.945   9.556  0.0193  0.5516  0.7001
  142SAPE  C21515544   0.287   3.049   9.372 -0.3978  0.7183  0.1708
  142SAPE  H15R15545   0.184   3.026   9.342 -0.6944 -1.4798  2.4531
  142SAPE  C21615546   0.362   3.133   9.268  0.4265  0.6316  0.2591
  142SAPE  H16R15547   0.458   3.088   9.233  0.1042 -1.0356  1.3744
  142SAPE  H16S15548   0.377   3.228   9.322 -0.1209  1.3274 -0.7927
  142SAPE  C21715549   0.279   3.144   9.135 -0.4177  0.0004  0.8164
  142SAPE  H17R15550   0.171   3.145   9.161 -0.4246  0.9964  0.7739
  142SAPE  H17S15551   0.306   3.055   9.074  1.0857 -0.9962  2.8119
  142SAPE  C21815552   0.308   3.278   9.066 -0.7127  0.0285 -0.4481
  142SAPE  H18R15553   0.415   3.294   9.045 -0.1988 -0.8125  1.3336
  142SAPE  H18S15554   0.275   3.354   9.140 -3.1020 -4.4575  3.7050
  142SAPE  C21915555   0.232   3.291   8.935 -0.0650  0.2965  1.1450
  142SAPE  H19R15556   0.140   3.231   8.945 -0.8347  1.1085 -0.5915
  142SAPE  H19S15557   0.297   3.245   8.857 -1.6650  0.6058 -0.4248
  142SAPE  C22015558   0.203   3.431   8.890  0.3105 -0.6276  0.3215
  142SAPE  H20R15559   0.133   3.445   8.806 -0.7976  0.6704  1.4156
  142SAPE  H20S15560   0.292   3.496   8.870 -1.0136  0.9231 -0.7577
  142SAPE  H20T15561   0.147   3.486   8.968  0.4861  3.0337 -1.8952
  142SAPE   C3315562  -0.004   2.851  10.493 -0.1526 -0.2251  0.1323
  142SAPE   H3X15563   0.013   2.959  10.509  1.6170 -0.5486  0.5816
  142SAPE   H3Y15564  -0.070   2.810  10.573  0.7098 -2.1980 -0.1149
  142SAPE   C3415565  -0.086   2.836  10.363  0.0760  0.1951  0.6715
  142SAPE   H4X15566  -0.190   2.865  10.387 -0.0087  1.0824 -0.6633
  142SAPE   H4Y15567  -0.079   2.728  10.340  1.4883  0.3750  0.1426
  142SAPE   C3515568  -0.025   2.913  10.242  0.1688 -0.3814 -0.1120
  142SAPE   H5X15569   0.085   2.914  10.260  0.1557  2.9920  0.3387
  142SAPE   H5Y15570  -0.048   3.021  10.234 -0.0833 -0.5656 -3.4687
  142SAPE   C3615571  -0.059   2.846  10.107  0.9685 -0.4399 -0.4726
  142SAPE   H6X15572  -0.160   2.877  10.073  1.8591  1.3604 -1.5888
  142SAPE   H6Y15573  -0.046   2.736  10.122 -0.3804 -0.7769 -1.5763
  142SAPE   C3715574   0.047   2.881   9.997  0.6678 -0.1848  0.2361
  142SAPE   H7X15575   0.153   2.854  10.019  0.6788 -0.8803 -0.6215
  142SAPE   H7Y15576   0.031   2.987   9.970  1.6940 -0.1543 -0.2986
  142SAPE   C3815577   0.018   2.791   9.870  0.2548 -1.0953  0.1035
  142SAPE   H8X15578  -0.092   2.802   9.856  0.2958  1.3395  1.1545
  142SAPE   H8Y15579   0.038   2.684   9.892 -0.0409 -1.4247 -1.1633
  142SAPE   C3915580   0.092   2.824   9.745  0.2604  0.2137 -0.1084
  142SAPE   H9X15581   0.201   2.820   9.769  0.1210  0.7210  0.6616
  142SAPE   H9Y15582   0.069   2.931   9.725 -0.3986 -0.0238 -0.6455
  142SAPE  C31015583   0.045   2.746   9.616 -0.1513 -0.3851  0.3461
  142SAPE  H10X15584   0.007   2.647   9.649 -2.3604 -0.3890 -1.8871
  142SAPE  H10Y15585   0.129   2.747   9.542 -0.1620 -0.6040  0.3312
  142SAPE  C31115586  -0.069   2.813   9.539  0.4856 -0.0250  0.2297
  142SAPE  H11X15587  -0.063   2.924   9.544  0.3492 -0.0721  2.4617
  142SAPE  H11Y15588  -0.162   2.785   9.594  0.2810 -0.6671 -0.4180
  142SAPE  C31215589  -0.088   2.770   9.389 -0.0322  0.4688  0.2998
  142SAPE  H12X15590  -0.093   2.659   9.383 -1.4804  0.6017 -1.4445
  142SAPE  H12Y15591  -0.002   2.810   9.331 -1.7540  2.7770 -0.8122
  142SAPE  C31315592  -0.214   2.838   9.327 -0.5365  0.6677 -0.4746
  142SAPE  H13X15593  -0.217   2.939   9.373  2.4004  1.9227 -2.6849
  142SAPE  H13Y15594  -0.295   2.773   9.367 -0.5875 -0.1881 -1.9056
  142SAPE  C31415595  -0.208   2.850   9.177 -0.6086  0.3783 -0.1804
  142SAPE  H14X15596  -0.121   2.911   9.147 -0.5344  1.0202  1.2336
  142SAPE  H14Y15597  -0.297   2.910   9.147 -1.4292  0.5240  2.2609
  142SAPE  C31515598  -0.205   2.709   9.109  0.1221 -0.2659  0.1153
  142SAPE  H15X15599  -0.309   2.669   9.111  0.0841 -0.2586 -0.8671
  142SAPE  H15Y15600  -0.128   2.638   9.146  0.3096 -0.5693 -0.8164
  142SAPE  C31615601  -0.179   2.719   8.953  0.4822 -0.4286  0.4260
  142SAPE  H16X15602  -0.077   2.757   8.932  0.1419 -1.0006 -2.8449
  142SAPE  H16Y15603  -0.259   2.781   8.906  0.6661  0.7173  1.5811
  142SAPE  C31715604  -0.184   2.582   8.881 -0.4393  0.4640  0.7295
  142SAPE  H17X15605  -0.284   2.538   8.899 -0.9243  1.1868 -0.0802
  142SAPE  H17Y15606  -0.108   2.521   8.934 -0.9619 -0.9501 -0.0874
  142SAPE  C31815607  -0.157   2.597   8.740  0.3161  0.3966 -0.0990
  142SAPE  H18X15608  -0.207   2.686   8.695  2.1154  1.7076  0.3983
  142SAPE  H18Y15609  -0.186   2.503   8.688 -0.0579 -0.0813  0.9595
  142SAPE  H18Z15610  -0.050   2.619   8.720 -0.1785  0.7732 -2.7855
  143SAPE     N15611   1.160   4.092  11.349  0.6475  0.0392  0.0390
  143SAPE   HN115612   1.078   4.056  11.401 -0.8696  0.4268 -1.9511
  143SAPE   HN215613   1.243   4.032  11.362  0.9449  0.2696 -0.7243
  143SAPE   HN315614   1.195   4.185  11.380  0.1711  0.7135 -1.3681
  143SAPE   C1215615   1.133   4.089  11.200  0.0311  0.1442  0.7252
  143SAPE  H12A15616   1.061   4.166  11.167 -1.6974 -1.6898  0.0633
  143SAPE  H12B15617   1.076   3.996  11.181  0.4666  0.2512 -1.3867
  143SAPE   C1115618   1.262   4.095  11.116  0.2545  0.0577 -0.2554
  143SAPE  H11A15619   1.283   4.203  11.129  2.0400 -0.5423  3.4631
  143SAPE  H11B15620   1.230   4.073  11.012 -2.4903  1.0480  0.2885
  143SAPE     P15621   1.402   3.864  11.126  0.0638 -0.5685  0.2977
  143SAPE   O1315622   1.534   3.844  11.174  0.1570  0.3257 -0.3627
  143SAPE   O1415623   1.306   3.771  11.171  0.9142  0.1322 -0.6143
  143SAPE   O1215624   1.366   4.013  11.169 -0.0625  0.1971 -0.2524
  143SAPE   O1115625   1.393   3.878  10.967  0.2145 -0.3973 -0.0463
  143SAPE    C115626   1.470   3.975  10.906 -0.6333 -0.4087 -0.3907
  143SAPE    HA15627   1.455   4.080  10.940  1.4827 -0.4574  0.8487
  143SAPE    HB15628   1.578   3.952  10.914 -0.7180 -0.7701 -0.2652
  143SAPE    C215629   1.451   3.972  10.749  0.9989  0.3704 -0.5919
  143SAPE    HS15630   1.504   3.882  10.711  0.6673 -1.3016  2.5090
  143SAPE   O2115631   1.505   4.094  10.697  0.2090 -0.7440  0.1908
  143SAPE   C2115632   1.544   4.084  10.569 -0.3802 -0.2174  0.3401
  143SAPE   O2215633   1.544   3.980  10.510 -0.5121  0.7182 -0.5180
  143SAPE   C2215634   1.599   4.220  10.515 -0.5395  0.4043  0.3241
  143SAPE   H2R15635   1.602   4.299  10.593 -1.0865  0.6007  0.1469
  143SAPE   H2S15636   1.704   4.204  10.481 -0.5787 -2.2018  1.1436
  143SAPE    C315637   1.302   3.976  10.716 -0.0913 -0.1958 -0.0962
  143SAPE    HX15638   1.244   4.067  10.743 -1.6043 -1.0859 -0.2174
  143SAPE    HY15639   1.256   3.897  10.780  0.0497 -1.0417 -1.0160
  143SAPE   O3115640   1.277   3.954  10.573 -0.4815 -0.3817  0.0622
  143SAPE   C3115641   1.263   3.823  10.549  0.0485 -0.9841  0.4458
  143SAPE   O3215642   1.276   3.740  10.634  0.1386  0.2145  0.4263
  143SAPE   C3215643   1.249   3.796  10.392 -0.0287 -1.1708 -0.6206
  143SAPE   H2X15644   1.273   3.691  10.369  1.4784 -1.0200  0.1717
  143SAPE   H2Y15645   1.331   3.861  10.355  0.8638 -1.6864  0.4323
  143SAPE   C2315646   1.513   4.281  10.401 -0.3443 -0.0707  0.2303
  143SAPE   H3R15647   1.573   4.368  10.368  0.3362 -0.6994 -0.2087
  143SAPE   H3S15648   1.417   4.318  10.443 -0.6270  0.4704 -0.8507
  143SAPE   C2415649   1.482   4.190  10.278 -0.1668 -0.0262 -0.0780
  143SAPE   H4R15650   1.441   4.245  10.190  0.8313 -1.5410 -1.5624
  143SAPE   H4S15651   1.396   4.126  10.306 -1.1542  1.0605 -0.5529
  143SAPE   C2515652   1.604   4.120  10.225  0.5125  0.7073 -0.1080
  143SAPE   H5R15653   1.688   4.132  10.295  0.8257 -1.8166  0.0435
  143SAPE   C2615654   1.624   4.058  10.103  0.5239  0.4320 -0.6674
  143SAPE   H6R15655   1.718   4.013  10.067  0.8838 -1.5662  2.4757
  143SAPE   C2715656   1.522   4.051   9.989  0.3203  0.1289  1.0337
  143SAPE   H7R15657   1.558   4.096   9.895  1.6376  0.8101  1.8404
  143SAPE   H7S15658   1.428   4.105  10.015  0.0117 -0.4144  1.0725
  143SAPE   C2815659   1.487   3.904   9.973  0.8885  0.9114 -0.1337
  143SAPE   H8R15660   1.463   3.845  10.062 -0.2982 -1.8170 -2.1269
  143SAPE   C2915661   1.479   3.838   9.856  0.0607  0.0769 -0.0386
  143SAPE   H9R15662   1.440   3.735   9.854  1.5012 -0.4970 -1.6056
  143SAPE  C21015663   1.513   3.898   9.715  0.0044 -0.4518 -0.8173
  143SAPE  H10R15664   1.612   3.950   9.708 -0.5757  0.6035 -1.4195
  143SAPE  H10S15665   1.440   3.980   9.698  0.4711  0.6698  1.9094
  143SAPE  C21115666   1.504   3.797   9.605 -0.5681 -0.0629 -0.1460
  143SAPE  H11R15667   1.494   3.689   9.625  0.0523 -0.0099  0.5263
  143SAPE  C21215668   1.531   3.812   9.478 -0.0448 -0.0450  0.7110
  143SAPE  H12R15669   1.533   3.724   9.413  1.9492  1.2601 -1.1130
  143SAPE  C21315670   1.591   3.943   9.414  1.0397  0.3281 -0.2372
  143SAPE  H13R15671   1.571   4.038   9.469 -3.0071  1.6664 -3.4511
  143SAPE  H13S15672   1.540   3.957   9.317 -0.0370  2.1563  0.5237
  143SAPE  C21415673   1.736   3.928   9.409 -0.0143 -0.2766 -0.0936
  143SAPE  H14R15674   1.791   3.922   9.504  1.1253  1.4754 -0.6130
  143SAPE  C21515675   1.806   3.893   9.301 -0.6869  0.0820  0.5980
  143SAPE  H15R15676   1.915   3.885   9.317 -0.6366 -0.5187  0.0012
  143SAPE  C21615677   1.760   3.863   9.161 -0.2326  0.3922  0.0795
  143SAPE  H16R15678   1.821   3.898   9.075 -1.0812  0.3869 -0.5213
  143SAPE  H16S15679   1.660   3.907   9.143  0.5690  2.2051 -0.1602
  143SAPE  C21715680   1.738   3.703   9.149 -1.2341  0.2661  0.2319
  143SAPE  H17R15681   1.680   3.676   9.058 -0.7093 -0.9254  0.2235
  143SAPE  H17S15682   1.670   3.676   9.232  0.7082 -1.9794  1.2062
  143SAPE  C21815683   1.864   3.619   9.138 -0.6702 -0.3033  0.1404
  143SAPE  H18R15684   1.842   3.510   9.139  1.6242 -0.8460 -0.8291
  143SAPE  H18S15685   1.928   3.646   9.225  0.6854 -1.0220 -0.5859
  143SAPE  C21915686   1.947   3.647   9.012 -0.5420 -0.4724  1.1421
  143SAPE  H19R15687   1.995   3.747   9.017  2.3923 -1.5600 -1.6938
  143SAPE  H19S15688   1.880   3.660   8.924  2.0458  1.0505 -0.7671
  143SAPE  C22015689   2.051   3.533   8.977  0.4106  0.2400 -0.2565
  143SAPE  H20R15690   2.098   3.557   8.879  0.3432  0.0611 -0.3347
  143SAPE  H20S15691   2.004   3.432   8.975 -0.7605  0.7070  1.3682
  143SAPE  H20T15692   2.139   3.528   9.043  1.3729 -0.8354 -1.5628
  143SAPE   C3315693   1.114   3.845  10.339  0.0899  0.4730  0.6442
  143SAPE   H3X15694   1.095   3.945  10.383  1.2653  1.0925 -0.2278
  143SAPE   H3Y15695   1.033   3.779  10.379  0.2829 -0.5682 -0.6089
  143SAPE   C3415696   1.112   3.860  10.190  0.0118 -0.4506  0.3387
  143SAPE   H4X15697   1.189   3.933  10.156 -0.5695 -0.4995 -1.1526
  143SAPE   H4Y15698   1.015   3.907  10.163 -0.0388 -0.7502 -0.0200
  143SAPE   C3515699   1.127   3.732  10.102  0.6718 -0.0829  0.4440
  143SAPE   H5X15700   1.048   3.667  10.145 -2.5522  2.5470 -1.1024
  143SAPE   H5Y15701   1.226   3.684  10.121  0.5420 -0.0934  1.1311
  143SAPE   C3615702   1.095   3.747   9.951 -0.0934  0.3885  0.2272
  143SAPE   H6X15703   1.150   3.835   9.911 -2.5108  1.4897 -0.8771
  143SAPE   H6Y15704   0.989   3.774   9.933 -0.6209 -1.8049 -0.2028
  143SAPE   C3715705   1.129   3.620   9.871  0.0535  0.2235 -0.7655
  143SAPE   H7X15706   1.082   3.535   9.925  3.0722  0.1936  2.1088
  143SAPE   H7Y15707   1.238   3.601   9.877 -0.3318 -1.7950  1.0776
  143SAPE   C3815708   1.095   3.637   9.723 -0.0448  0.6436  0.2755
  143SAPE   H8X15709   1.161   3.716   9.682 -0.0666 -0.0945 -1.2456
  143SAPE   H8Y15710   0.987   3.654   9.706  0.0648  0.6094 -0.4754
  143SAPE   C3915711   1.122   3.514   9.635  0.5518 -0.5097  0.9366
  143SAPE   H9X15712   1.048   3.439   9.670 -0.4395  0.1652  0.3422
  143SAPE   H9Y15713   1.222   3.467   9.648  1.3513  0.4165 -1.3703
  143SAPE  C31015714   1.095   3.557   9.483 -0.0398  0.5265  0.0602
  143SAPE  H10X15715   1.181   3.604   9.430  1.2394 -2.6181 -0.8650
  143SAPE  H10Y15716   1.014   3.630   9.464 -2.1624 -1.7667 -0.1969
  143SAPE  C31115717   1.066   3.431   9.401  0.1069  0.2274  0.4497
  143SAPE  H11X15718   0.961   3.397   9.413  0.0295 -0.4132 -1.7389
  143SAPE  H11Y15719   1.133   3.348   9.433 -1.5836 -0.7738  1.6158
  143SAPE  C31215720   1.090   3.448   9.252 -0.8165 -0.4817 -0.2217
  143SAPE  H12X15721   1.173   3.521   9.238 -0.0134 -0.9309  1.8182
  143SAPE  H12Y15722   0.997   3.496   9.213 -3.2421 -3.2465  1.7727
  143SAPE  C31315723   1.119   3.330   9.167 -0.2735  0.0680 -0.8533
  143SAPE  H13X15724   1.046   3.252   9.197 -2.6142  1.6379 -2.1281
  143SAPE  H13Y15725   1.217   3.289   9.198 -0.1440  1.4326  0.7281
  143SAPE  C31415726   1.117   3.352   9.021 -0.3652 -0.0747  0.3857
  143SAPE  H14X15727   1.203   3.419   9.001 -0.4187 -0.6239 -1.9449
  143SAPE  H14Y15728   1.016   3.391   8.994  0.1499  2.1399  1.4546
  143SAPE  C31515729   1.139   3.225   8.938  0.2713  0.1572  0.4778
  143SAPE  H15X15730   1.061   3.151   8.966  1.0019 -0.6208  0.4828
  143SAPE  H15Y15731   1.229   3.175   8.978  0.4763  1.0320  1.1429
  143SAPE  C31615732   1.158   3.250   8.788  0.3898  0.4138  0.6145
  143SAPE  H16X15733   1.261   3.282   8.758  0.8002 -1.2239  0.1735
  143SAPE  H16Y15734   1.092   3.337   8.769 -0.3734 -0.4998 -1.1960
  143SAPE  C31715735   1.123   3.129   8.692  0.3552 -0.9082 -0.3065
  143SAPE  H17X15736   1.081   3.167   8.596 -0.4200  1.6353  0.9450
  143SAPE  H17Y15737   1.040   3.075   8.742 -2.2463  2.8736 -0.1530
  143SAPE  C31815738   1.228   3.028   8.658  0.4480 -0.5069  0.4733
  143SAPE  H18X15739   1.285   3.001   8.750  4.2433 -0.8433 -1.7642
  143SAPE  H18Y15740   1.304   3.065   8.585  0.9404 -2.8173 -0.2761
  143SAPE  H18Z15741   1.174   2.942   8.614 -0.4717  1.0296 -1.5313
  144SAPE     N15742   5.010   1.781  10.682  0.6842 -0.0870 -0.6038
  144SAPE   HN115743   5.091   1.725  10.648  0.5076  0.4044 -1.8924
  144SAPE   HN215744   5.025   1.878  10.647  1.3136 -0.2244 -0.7237
  144SAPE   HN315745   4.996   1.764  10.784 -0.5337 -2.9472 -1.1493
  144SAPE   C1215746   4.890   1.723  10.610 -0.5476 -0.9152  0.1054
  144SAPE  H12A15747   4.906   1.718  10.501 -0.7554 -2.4103  0.1304
  144SAPE  H12B15748   4.801   1.786  10.632 -0.5404 -0.9588  0.2655
  144SAPE   C1115749   4.844   1.582  10.661 -0.5785 -0.6745  0.2622
  144SAPE  H11A15750   4.916   1.510  10.617 -0.1988  0.3793 -0.8780
  144SAPE  H11B15751   4.742   1.570  10.618  0.0322 -0.4651 -1.3069
  144SAPE     P15752   4.734   1.471  10.877  0.0620  0.3059 -0.1369
  144SAPE   O1315753   4.786   1.432  11.006 -0.0020  0.0873 -0.0781
  144SAPE   O1415754   4.601   1.533  10.886 -0.1068  0.7270 -0.4650
  144SAPE   O1215755   4.833   1.573  10.808  0.1102  0.2782  0.2640
  144SAPE   O1115756   4.715   1.353  10.776  0.0516  0.5828 -0.3602
  144SAPE    C115757   4.806   1.249  10.759  0.4986  0.1107  0.0897
  144SAPE    HA15758   4.910   1.278  10.785 -0.1077  1.8230  0.7793
  144SAPE    HB15759   4.772   1.171  10.831 -3.5411  0.8228 -0.8077
  144SAPE    C215760   4.797   1.185  10.614  0.0778  0.0339 -0.0760
  144SAPE    HS15761   4.829   1.268  10.548  1.4436 -0.6659 -0.3278
  144SAPE   O2115762   4.664   1.134  10.591 -0.1125 -0.4218 -0.2180
  144SAPE   C2115763   4.608   1.177  10.474 -0.1034 -0.2375 -0.3252
  144SAPE   O2215764   4.670   1.242  10.393 -0.1071 -0.4466  0.2609
  144SAPE   C2215765   4.473   1.121  10.455 -0.1480 -0.0530  0.0985
  144SAPE   H2R15766   4.422   1.147  10.550  1.6318  0.9514  0.8214
  144SAPE   H2S15767   4.428   1.176  10.369 -1.5291 -1.9196 -0.4554
  144SAPE    C315768   4.903   1.069  10.594  0.1176 -0.0041  0.4466
  144SAPE    HX15769   4.862   0.983  10.651  1.6423 -0.7088  0.5029
  144SAPE    HY15770   5.009   1.080  10.622 -0.0895 -0.0468  1.2807
  144SAPE   O3115771   4.886   1.030  10.456 -0.4054  0.0831 -0.4001
  144SAPE   C3115772   4.957   1.096  10.363  0.0590  0.2555  0.2187
  144SAPE   O3215773   5.022   1.194  10.384  0.4909  0.5655 -0.4730
  144SAPE   C3215774   4.950   1.038  10.217  0.2405  1.0875 -0.4346
  144SAPE   H2X15775   4.863   0.969  10.214  0.3867  0.7305  1.8171
  144SAPE   H2Y15776   5.036   0.973  10.193 -2.7610 -3.4268 -0.1466
  144SAPE   C2315777   4.481   0.972  10.437  0.5719  0.2516 -0.0081
  144SAPE   H3R15778   4.374   0.943  10.430  0.9444 -1.6457  1.2201
  144SAPE   H3S15779   4.519   0.922  10.529 -2.4453 -2.3164  0.0261
  144SAPE   C2415780   4.549   0.918  10.313 -0.2193  0.0611 -0.8142
  144SAPE   H4R15781   4.657   0.921  10.339 -0.6832  0.5905  1.2250
  144SAPE   H4S15782   4.533   0.997  10.236  0.4581  2.2369  1.1578
  144SAPE   C2515783   4.494   0.776  10.290 -0.0740 -1.1307  0.2583
  144SAPE   H5R15784   4.506   0.708  10.376 -2.9414 -0.0022  1.6710
  144SAPE   C2615785   4.466   0.732  10.169  0.2889 -0.4458  0.0325
  144SAPE   H6R15786   4.429   0.628  10.162  1.2265 -0.7545 -0.5053
  144SAPE   C2715787   4.463   0.818  10.044 -0.7155  0.2568 -0.0471
  144SAPE   H7R15788   4.463   0.752   9.954  0.3417  0.9925 -0.6056
  144SAPE   H7S15789   4.560   0.872  10.042 -1.6924  2.0644 -0.8586
  144SAPE   C2815790   4.356   0.926  10.034 -0.6380  0.3717  0.2412
  144SAPE   H8R15791   4.263   0.885  10.077 -0.1259 -3.7895 -2.1620
  144SAPE   C2915792   4.362   1.051   9.985 -0.1756 -0.0522 -0.6524
  144SAPE   H9R15793   4.271   1.111   9.997 -1.0768 -1.6936  1.0160
  144SAPE  C21015794   4.482   1.132   9.924  0.0668  0.0950  0.6162
  144SAPE  H10R15795   4.457   1.155   9.818  2.0846 -1.0995 -0.1769
  144SAPE  H10S15796   4.573   1.074   9.897  0.5444  0.9905  0.2722
  144SAPE  C21115797   4.508   1.262  10.002  0.3335 -0.1589 -0.3183
  144SAPE  H11R15798   4.527   1.253  10.110  0.3795  0.8616 -0.2313
  144SAPE  C21215799   4.498   1.384   9.956  0.1303 -0.2984 -0.4899
  144SAPE  H12R15800   4.514   1.466  10.028 -1.3413 -0.4409  0.0284
  144SAPE  C21315801   4.476   1.424   9.817  0.0639  0.2116 -0.2611
  144SAPE  H13R15802   4.441   1.529   9.815 -0.5044  0.0989  1.9007
  144SAPE  H13S15803   4.395   1.358   9.778  1.4517 -2.0050  0.4061
  144SAPE  C21415804   4.604   1.425   9.734  0.0461  0.0468  0.1535
  144SAPE  H14R15805   4.692   1.448   9.796  0.4748 -1.1109 -0.0069
  144SAPE  C21515806   4.617   1.394   9.602 -0.5853 -0.1561 -0.4524
  144SAPE  H15R15807   4.719   1.381   9.562 -0.0695 -0.8616  1.0230
  144SAPE  C21615808   4.512   1.341   9.507 -0.3238  0.6677 -0.8037
  144SAPE  H16R15809   4.530   1.391   9.409 -0.7032  0.4126 -1.0057
  144SAPE  H16S15810   4.405   1.350   9.537 -0.8342 -3.7695 -0.5471
  144SAPE  C21715811   4.533   1.187   9.475  0.1546  0.5450  0.3292
  144SAPE  H17R15812   4.520   1.130   9.569  2.2103 -0.9162 -0.1978
  144SAPE  H17S15813   4.635   1.172   9.433  0.4288 -2.6103  1.8362
  144SAPE  C21815814   4.424   1.138   9.376 -0.0906 -0.1429  0.9918
  144SAPE  H18R15815   4.334   1.200   9.393 -0.5329 -0.8102  1.1343
  144SAPE  H18S15816   4.396   1.032   9.397 -1.6391 -0.7423 -3.1570
  144SAPE  C21915817   4.464   1.140   9.230 -0.0486 -0.2855 -0.4421
  144SAPE  H19R15818   4.556   1.081   9.212 -1.1660 -1.5658 -2.3002
  144SAPE  H19S15819   4.485   1.245   9.200  1.6013 -0.6123 -0.5474
  144SAPE  C22015820   4.347   1.080   9.144  0.0496 -0.2540 -0.4538
  144SAPE  H20R15821   4.340   0.973   9.173  0.5046 -0.0275  0.5177
  144SAPE  H20S15822   4.384   1.074   9.039  1.0301  0.8456 -0.1929
  144SAPE  H20T15823   4.248   1.128   9.155 -1.7299 -3.2991 -1.9158
  144SAPE   C3315824   4.930   1.146  10.108 -0.1964 -0.6226  0.2484
  144SAPE   H3X15825   5.023   1.205  10.091 -0.5485 -0.5905 -1.7224
  144SAPE   H3Y15826   4.839   1.204  10.134 -0.2570  0.8596 -2.8576
  144SAPE   C3415827   4.912   1.079   9.966 -0.1038  1.0075  0.5021
  144SAPE   H4X15828   4.820   1.018   9.976  0.9021 -0.1827  3.2233
  144SAPE   H4Y15829   4.993   1.006   9.948  1.0269  2.3116  0.1327
  144SAPE   C3515830   4.916   1.172   9.839  0.5059 -0.0892 -0.3982
  144SAPE   H5X15831   5.007   1.237   9.838  0.5714 -0.0682  1.9755
  144SAPE   H5Y15832   4.823   1.229   9.859 -0.1862 -1.2389 -0.2524
  144SAPE   C3615833   4.904   1.119   9.692 -0.2208 -0.5312  0.2461
  144SAPE   H6X15834   4.895   1.204   9.621  0.6293  0.0480  0.8066
  144SAPE   H6Y15835   4.820   1.046   9.689  0.1635 -0.9462 -1.9163
  144SAPE   C3715836   5.031   1.042   9.636  0.4765 -0.2054 -0.4553
  144SAPE   H7X15837   5.024   0.944   9.689 -1.1570  0.3583  0.4677
  144SAPE   H7Y15838   5.121   1.100   9.666 -0.2565  1.4207 -1.3259
  144SAPE   C3815839   5.021   1.008   9.480  0.8559 -0.3445 -0.4415
  144SAPE   H8X15840   4.992   1.102   9.428 -0.4109 -0.8548 -0.6927
  144SAPE   H8Y15841   4.943   0.930   9.468 -1.0218  1.2874  0.6541
  144SAPE   C3915842   5.151   0.942   9.434  0.1344 -0.2887 -0.1767
  144SAPE   H9X15843   5.159   0.844   9.484  0.4385 -0.2474 -0.1462
  144SAPE   H9Y15844   5.224   1.008   9.486  1.7177 -1.6794 -0.5444
  144SAPE  C31015845   5.173   0.937   9.282 -0.8508 -0.3741  0.0427
  144SAPE  H10X15846   5.183   1.037   9.233  3.1846 -0.2820  0.6609
  144SAPE  H10Y15847   5.079   0.893   9.243 -0.3408 -0.8156 -0.7122
  144SAPE  C31115848   5.297   0.855   9.247 -0.4571  0.4250 -0.2593
  144SAPE  H11X15849   5.291   0.753   9.291  1.6425 -0.0835 -1.0377
  144SAPE  H11Y15850   5.392   0.889   9.292 -0.5993 -1.6761  1.8118
  144SAPE  C31215851   5.326   0.856   9.100  0.3082  0.4060 -0.2111
  144SAPE  H12X15852   5.409   0.790   9.065  1.4317  2.8121 -2.3579
  144SAPE  H12Y15853   5.356   0.960   9.076  0.6445  0.2438 -0.5010
  144SAPE  C31315854   5.198   0.831   9.012  0.0075  0.2961  0.2824
  144SAPE  H13X15855   5.122   0.911   9.025  2.6630  2.6284  2.9318
  144SAPE  H13Y15856   5.151   0.740   9.056  1.2022 -1.4152 -1.8012
  144SAPE  C31415857   5.236   0.810   8.868 -0.1662  0.3555 -0.6294
  144SAPE  H14X15858   5.342   0.779   8.862  0.3581  1.3311  2.1897
  144SAPE  H14Y15859   5.219   0.910   8.822 -1.2255  0.2121 -0.5797
  144SAPE  C31515860   5.142   0.711   8.799 -0.5079  0.0635 -0.0616
  144SAPE  H15X15861   5.036   0.740   8.815 -1.9105 -3.2282 -2.1915
  144SAPE  H15Y15862   5.152   0.607   8.837 -0.6081 -0.4854 -1.4605
  144SAPE  C31615863   5.160   0.708   8.646 -0.0912 -0.3410 -0.7972
  144SAPE  H16X15864   5.102   0.619   8.614 -1.3840  0.6040 -1.1769
  144SAPE  H16Y15865   5.269   0.698   8.633  0.1151  0.9809 -0.2414
  144SAPE  C31715866   5.104   0.832   8.562 -0.3668 -0.9107  0.6743
  144SAPE  H17X15867   5.159   0.922   8.598  0.5090 -0.1778 -2.2692
  144SAPE  H17Y15868   4.997   0.829   8.591 -0.3161 -1.5337  0.8037
  144SAPE  C31815869   5.127   0.795   8.414 -0.7976 -0.0898  0.2175
  144SAPE  H18X15870   5.234   0.819   8.395 -1.0149  0.7853  0.0849
  144SAPE  H18Y15871   5.062   0.866   8.359 -1.3810 -0.3579  0.5560
  144SAPE  H18Z15872   5.098   0.690   8.392  0.8012 -0.2462 -1.4619
  145SAPE     N15873   0.660   1.734  10.954 -0.2015 -0.5408  0.8958
  145SAPE   HN115874   0.626   1.657  10.892 -1.3808  1.2121 -0.7319
  145SAPE   HN215875   0.714   1.807  10.905  1.1990 -1.3829  1.1272
  145SAPE   HN315876   0.727   1.693  11.022  3.2087 -1.2591 -2.6107
  145SAPE   C1215877   0.547   1.799  11.039  0.4081  0.0076  0.6326
  145SAPE  H12A15878   0.488   1.859  10.967  0.9257 -0.9481 -0.6379
  145SAPE  H12B15879   0.591   1.864  11.118 -1.1726  0.4383  1.1858
  145SAPE   C1115880   0.466   1.686  11.097  0.0921 -0.4124 -0.5127
  145SAPE  H11A15881   0.404   1.628  11.025 -2.2439 -0.7836  1.6576
  145SAPE  H11B15882   0.386   1.734  11.157  2.1801  0.3101  1.8895
  145SAPE     P15883   0.534   1.439  11.184 -0.1100 -0.0555  0.5908
  145SAPE   O1315884   0.630   1.389  11.283 -0.0140  0.3317  0.0005
  145SAPE   O1415885   0.392   1.399  11.199  0.6840 -0.4997  0.1544
  145SAPE   O1215886   0.541   1.599  11.181 -0.6639 -0.2076 -0.0482
  145SAPE   O1115887   0.578   1.414  11.033 -0.0519  0.3261  0.0817
  145SAPE    C115888   0.717   1.368  11.004  0.4710  0.9906 -0.2224
  145SAPE    HA15889   0.793   1.417  11.068  0.9101 -1.3974  1.1919
  145SAPE    HB15890   0.733   1.264  11.040  0.5721  0.5632 -1.4224
  145SAPE    C215891   0.754   1.380  10.857 -0.2843 -0.5609 -0.3328
  145SAPE    HS15892   0.787   1.486  10.844 -0.7576 -0.2221  1.0378
  145SAPE   O2115893   0.644   1.354  10.768  0.2050  0.1039 -0.3187
  145SAPE   C2115894   0.588   1.456  10.709 -0.5932 -0.9130 -0.5412
  145SAPE   O2215895   0.616   1.573  10.740 -0.6649 -0.0340  0.5779
  145SAPE   C2215896   0.481   1.419  10.612 -0.6758  0.7676 -1.0954
  145SAPE   H2R15897   0.526   1.349  10.538  1.2128  1.5185 -0.7095
  145SAPE   H2S15898   0.405   1.359  10.666  0.1544 -1.2357 -2.0453
  145SAPE    C315899   0.881   1.291  10.818 -0.2448 -0.1937  0.3142
  145SAPE    HX15900   0.866   1.188  10.859 -2.3334  0.7862  2.2358
  145SAPE    HY15901   0.969   1.328  10.877  1.1998 -3.8865  0.7902
  145SAPE   O3115902   0.900   1.278  10.674 -0.0469 -0.3876 -1.2707
  145SAPE   C3115903   0.973   1.376  10.621 -0.1978 -0.7221  0.2002
  145SAPE   O3215904   1.008   1.479  10.680 -0.0910  0.0454 -0.8387
  145SAPE   C3215905   1.006   1.350  10.477 -0.6036  0.4944 -0.0735
  145SAPE   H2X15906   0.918   1.390  10.421 -0.3416  1.2936  0.0612
  145SAPE   H2Y15907   0.993   1.241  10.465 -1.0103  0.1686  2.6086
  145SAPE   C2315908   0.416   1.531  10.532 -0.5967 -0.2233 -0.0719
  145SAPE   H3R15909   0.494   1.576  10.468 -0.2084 -2.1038 -0.9903
  145SAPE   H3S15910   0.383   1.603  10.610  1.0457 -0.3811  0.8152
  145SAPE   C2415911   0.304   1.494  10.444 -0.4246 -0.0570  0.4299
  145SAPE   H4R15912   0.341   1.424  10.366  3.0200  1.1554  0.7857
  145SAPE   H4S15913   0.270   1.588  10.395  1.8098  0.7899  0.3488
  145SAPE   C2515914   0.185   1.437  10.515 -0.1226 -0.0658  0.3604
  145SAPE   H5R15915   0.202   1.334  10.550  0.3186 -0.3521 -0.6676
  145SAPE   C2615916   0.067   1.494  10.546 -0.1137  0.5983 -0.3629
  145SAPE   H6R15917  -0.010   1.431  10.593 -0.4527  0.2684 -1.3346
  145SAPE   C2715918   0.031   1.637  10.521 -0.0833 -0.0629 -0.0227
  145SAPE   H7R15919  -0.054   1.635  10.448  1.2975  1.1341 -1.7398
  145SAPE   H7S15920   0.118   1.681  10.468  1.2035 -3.3576 -0.9485
  145SAPE   C2815921   0.001   1.714  10.640 -0.2919  0.0306 -0.3054
  145SAPE   H8R15922   0.085   1.773  10.680 -0.0560  0.9236 -2.0674
  145SAPE   C2915923  -0.113   1.705  10.711  0.1185 -1.0168 -0.3181
  145SAPE   H9R15924  -0.124   1.754  10.809  0.8760  0.5317 -0.9735
  145SAPE  C21015925  -0.238   1.633  10.679  0.8532 -0.3531  0.8317
  145SAPE  H10R15926  -0.222   1.539  10.736  2.6186  0.7449  2.2735
  145SAPE  H10S15927  -0.250   1.615  10.570 -2.7104  1.8011  0.7003
  145SAPE  C21115928  -0.369   1.683  10.715 -0.0302 -0.1708  0.0043
  145SAPE  H11R15929  -0.389   1.691  10.823 -1.4595 -0.2383 -0.2412
  145SAPE  C21215930  -0.458   1.733  10.633 -0.6758  0.0898 -0.4926
  145SAPE  H12R15931  -0.550   1.764  10.684  0.3489  2.2826  0.1800
  145SAPE  C21315932  -0.448   1.745  10.486 -0.2106  0.3477 -0.4105
  145SAPE  H13R15933  -0.349   1.710  10.449 -0.7772 -0.8331 -0.8784
  145SAPE  H13S15934  -0.452   1.853  10.461 -0.4111  0.6601  0.8751
  145SAPE  C21415935  -0.558   1.668  10.414  0.0219 -0.0697 -0.3039
  145SAPE  H14R15936  -0.604   1.587  10.473  0.7222  1.1603  2.0344
  145SAPE  C21515937  -0.597   1.688  10.287  0.3130  0.2189  0.2461
  145SAPE  H15R15938  -0.681   1.632  10.243  0.1322  0.8929 -0.2850
  145SAPE  C21615939  -0.536   1.793  10.189  0.0490 -0.4702 -0.9150
  145SAPE  H16R15940  -0.485   1.870  10.251 -0.5786 -1.3274  0.7152
  145SAPE  H16S15941  -0.619   1.849  10.140 -0.6453 -0.9106 -0.2619
  145SAPE  C21715942  -0.443   1.738  10.078  0.4674 -0.4612  0.3463
  145SAPE  H17R15943  -0.358   1.686  10.127  2.5915  0.9867 -1.5884
  145SAPE  H17S15944  -0.393   1.826  10.032  0.2581 -1.0238 -0.9816
  145SAPE  C21815945  -0.519   1.655   9.971 -0.7382 -0.1435 -0.1313
  145SAPE  H18R15946  -0.605   1.724   9.952  0.0302  1.3417  1.4957
  145SAPE  H18S15947  -0.551   1.562  10.021 -0.5043  0.1989  0.6730
  145SAPE  C21915948  -0.432   1.632   9.845  0.3999 -0.3609 -0.0032
  145SAPE  H19R15949  -0.345   1.568   9.870  2.2017  0.6263 -3.1606
  145SAPE  H19S15950  -0.398   1.730   9.803  1.5607 -1.2790 -1.2977
  145SAPE  C22015951  -0.512   1.566   9.733  0.2896  0.0239 -0.0080
  145SAPE  H20R15952  -0.566   1.477   9.771  0.5647 -0.1978 -0.1296
  145SAPE  H20S15953  -0.430   1.529   9.667  0.6389 -1.9354  1.4362
  145SAPE  H20T15954  -0.576   1.645   9.688 -1.0798 -1.5240 -0.9131
  145SAPE   C3315955   1.137   1.408  10.440 -1.0292 -0.3791  0.4418
  145SAPE   H3X15956   1.221   1.380  10.508 -2.9357  0.3029  3.2345
  145SAPE   H3Y15957   1.126   1.517  10.452 -0.0588 -0.3366  1.1336
  145SAPE   C3415958   1.177   1.367  10.297  0.0627  0.2133 -0.1431
  145SAPE   H4X15959   1.082   1.358  10.239  0.2847  0.5262 -0.5635
  145SAPE   H4Y15960   1.220   1.266  10.281  0.0850  0.3769 -1.1904
  145SAPE   C3515961   1.271   1.471  10.230 -0.2249  0.1101 -0.0991
  145SAPE   H5X15962   1.364   1.490  10.288 -0.0347 -1.7282  0.2596
  145SAPE   H5Y15963   1.216   1.567  10.214 -0.6170 -0.5498 -3.4092
  145SAPE   C3615964   1.324   1.416  10.091 -0.6047 -0.1718  0.0554
  145SAPE   H6X15965   1.331   1.308  10.114  0.6910 -0.1725 -0.2642
  145SAPE   H6Y15966   1.429   1.448  10.073 -0.8871  0.6055 -0.2602
  145SAPE   C3715967   1.231   1.446   9.975  0.0304  0.2752  0.2812
  145SAPE   H7X15968   1.239   1.556   9.961  1.9247  0.0746 -0.4922
  145SAPE   H7Y15969   1.126   1.416   9.996  0.2628 -1.6449 -1.0552
  145SAPE   C3815970   1.277   1.381   9.839  0.0256  0.1898  0.4171
  145SAPE   H8X15971   1.242   1.276   9.837 -0.7720  0.4481  0.5225
  145SAPE   H8Y15972   1.388   1.388   9.831 -0.0470  1.1525  0.0352
  145SAPE   C3915973   1.200   1.448   9.731 -0.3750  0.3027  0.3128
  145SAPE   H9X15974   1.232   1.554   9.720 -1.6937  0.5524 -1.7975
  145SAPE   H9Y15975   1.091   1.455   9.751 -0.5688  1.1485 -0.8811
  145SAPE  C31015976   1.231   1.380   9.598  0.2260 -0.0848 -0.3774
  145SAPE  H10X15977   1.188   1.278   9.600  1.4941 -0.6207  0.2618
  145SAPE  H10Y15978   1.340   1.366   9.584  0.2817  1.6245 -2.2371
  145SAPE  C31115979   1.178   1.452   9.471 -0.5486 -0.0019 -0.5601
  145SAPE  H11X15980   1.068   1.433   9.478 -0.2693 -1.2183  1.2492
  145SAPE  H11Y15981   1.222   1.403   9.382  0.3814 -0.8700  0.3533
  145SAPE  C31215982   1.230   1.596   9.460 -0.9344  0.3135 -0.1330
  145SAPE  H12X15983   1.334   1.604   9.499 -0.6651  0.8790 -0.9619
  145SAPE  H12Y15984   1.180   1.661   9.536  0.9701  0.1031  1.3673
  145SAPE  C31315985   1.208   1.662   9.323  0.7649 -0.2144 -0.9527
  145SAPE  H13X15986   1.237   1.767   9.341 -0.2081 -0.0079 -0.5426
  145SAPE  H13Y15987   1.101   1.645   9.299 -0.1049  2.5237  0.5788
  145SAPE  C31415988   1.298   1.611   9.214 -0.2072 -0.2829 -0.0971
  145SAPE  H14X15989   1.300   1.500   9.211  1.7033 -0.3460  1.6414
  145SAPE  H14Y15990   1.404   1.641   9.224 -0.2496  0.1183 -0.7466
  145SAPE  C31515991   1.264   1.670   9.077  0.0718 -0.3010 -0.6681
  145SAPE  H15X15992   1.296   1.777   9.077  0.5275 -0.4329 -0.9872
  145SAPE  H15Y15993   1.153   1.679   9.071  0.0358  0.4912  0.7700
  145SAPE  C31615994   1.325   1.593   8.958  0.1855  0.1687  0.4354
  145SAPE  H16X15995   1.301   1.484   8.961  0.6686  0.0250 -0.5496
  145SAPE  H16Y15996   1.436   1.605   8.951  0.0058  0.9516 -1.9604
  145SAPE  C31715997   1.276   1.637   8.816 -0.9504 -0.4746  0.2759
  145SAPE  H17X15998   1.320   1.738   8.798 -1.8791  0.1490  1.3572
  145SAPE  H17Y15999   1.167   1.656   8.824 -0.7652  1.2627 -0.7632
  145SAPE  C31816000   1.300   1.528   8.715 -0.1438 -0.1293  0.1394
  145SAPE  H18X16001   1.406   1.524   8.682 -0.2554  2.2374 -0.6897
  145SAPE  H18Y16002   1.242   1.541   8.621 -0.0240 -2.8902 -0.4272
  145SAPE  H18Z16003   1.267   1.432   8.761 -1.2811  0.5243  0.7210
  146SAPE     N16004   0.713   2.426  10.852 -0.5771 -0.1969 -0.1277
  146SAPE   HN116005   0.759   2.333  10.852 -2.4604 -1.2587 -3.3698
  146SAPE   HN216006   0.766   2.493  10.912  0.0562 -0.7478 -0.0618
  146SAPE   HN316007   0.617   2.419  10.889 -1.0105  1.1604 -0.9248
  146SAPE   C1216008   0.718   2.485  10.718 -0.6689 -0.0220  0.2493
  146SAPE  H12A16009   0.627   2.542  10.688  0.3266  0.0289 -3.0477
  146SAPE  H12B16010   0.720   2.397  10.651  1.2164 -0.0168  0.2416
  146SAPE   C1116011   0.840   2.577  10.691  0.8305  0.2725 -0.3658
  146SAPE  H11A16012   0.807   2.674  10.733 -1.1334  0.1092 -1.4134
  146SAPE  H11B16013   0.847   2.587  10.581  1.3595  0.8376 -0.2839
  146SAPE     P16014   1.078   2.612  10.750 -0.2181  0.4404 -0.1072
  146SAPE   O1316015   1.033   2.749  10.722 -0.1407 -0.9025  0.2813
  146SAPE   O1416016   1.160   2.597  10.875 -0.0212  0.0266 -0.1373
  146SAPE   O1216017   0.952   2.517  10.759 -0.0135 -0.6546  0.2807
  146SAPE   O1116018   1.144   2.546  10.626  0.3871  0.3252  0.2486
  146SAPE    C116019   1.262   2.617  10.591  0.5684  0.2484  0.1167
  146SAPE    HA16020   1.256   2.728  10.589  0.4008  0.2430 -2.0234
  146SAPE    HB16021   1.344   2.590  10.661  0.3861  0.6090  0.4692
  146SAPE    C216022   1.319   2.591  10.446  0.1126  0.6121 -0.0090
  146SAPE    HS16023   1.387   2.677  10.431  0.2866  0.5004  0.1348
  146SAPE   O2116024   1.215   2.592  10.346 -0.2588  0.2636  0.2366
  146SAPE   C2116025   1.186   2.706  10.297 -0.2181 -0.3894 -0.6672
  146SAPE   O2216026   1.233   2.817  10.331  0.5787  0.1768 -0.3394
  146SAPE   C2216027   1.072   2.693  10.192  0.3698  0.5278 -0.3151
  146SAPE   H2R16028   1.103   2.624  10.110 -1.2456  0.8587 -1.2305
  146SAPE   H2S16029   0.990   2.631  10.233 -0.8711  1.6228 -1.0644
  146SAPE    C316030   1.405   2.463  10.434 -0.0469  0.1678 -0.4717
  146SAPE    HX16031   1.332   2.380  10.441  0.8940 -0.7635 -1.2228
  146SAPE    HY16032   1.468   2.456  10.525  1.0328  1.2030 -1.1059
  146SAPE   O3116033   1.477   2.448  10.309  0.0058 -0.0299  0.3119
  146SAPE   C3116034   1.576   2.530  10.285 -0.1720  0.3825  0.7608
  146SAPE   O3216035   1.623   2.609  10.368 -0.1402 -0.2435  0.3350
  146SAPE   C3216036   1.636   2.515  10.152 -0.6414 -0.2553 -0.6453
  146SAPE   H2X16037   1.619   2.409  10.121  3.3317 -0.6552 -2.1336
  146SAPE   H2Y16038   1.747   2.515  10.159 -0.6410 -1.3245 -0.4858
  146SAPE   C2316039   1.023   2.826  10.130  0.7223  0.7199  0.6661
  146SAPE   H3R16040   1.113   2.888  10.115 -0.0478  1.7157 -0.0269
  146SAPE   H3S16041   0.967   2.868  10.216 -0.4613 -2.6264  1.6968
  146SAPE   C2416042   0.930   2.803  10.006  0.5674 -0.4234  0.3239
  146SAPE   H4R16043   0.990   2.764   9.921 -0.0640  1.9124 -1.2825
  146SAPE   H4S16044   0.889   2.901   9.975  1.2534 -1.0720 -3.0336
  146SAPE   C2516045   0.811   2.708  10.039 -0.5143  0.4262 -0.3093
  146SAPE   H5R16046   0.773   2.713  10.142 -0.6010 -0.2316 -0.3040
  146SAPE   C2616047   0.761   2.617   9.949 -0.6240  0.2943 -0.3816
  146SAPE   H6R16048   0.674   2.557   9.980 -2.5127  1.7712 -2.4834
  146SAPE   C2716049   0.813   2.605   9.809 -0.7986  0.1735  0.0121
  146SAPE   H7R16050   0.846   2.702   9.768 -0.6651  0.2960  0.4051
  146SAPE   H7S16051   0.732   2.581   9.737 -0.0656 -4.3873  0.3709
  146SAPE   C2816052   0.909   2.495   9.797  0.1090 -0.8064 -0.5716
  146SAPE   H8R16053   0.937   2.450   9.893 -0.0325 -1.1055 -0.6694
  146SAPE   C2916054   0.954   2.441   9.677  0.2104 -1.1731 -0.4819
  146SAPE   H9R16055   1.035   2.369   9.693  3.6220  2.4382  0.2028
  146SAPE  C21016056   0.928   2.471   9.528  0.2756  1.0093 -0.0320
  146SAPE  H10R16057   0.825   2.509   9.518 -1.2745 -2.6390  0.3484
  146SAPE  H10S16058   0.926   2.371   9.479 -3.6581 -0.5611  2.8592
  146SAPE  C21116059   1.031   2.552   9.452 -0.0625 -0.3569 -0.1889
  146SAPE  H11R16060   1.112   2.591   9.515  1.5331 -1.7251 -1.3164
  146SAPE  C21216061   1.029   2.579   9.312  0.2077  0.7250  0.0712
  146SAPE  H12R16062   1.111   2.638   9.269  0.3989  0.5992  0.2622
  146SAPE  C21316063   0.943   2.518   9.207  0.4400  0.6632 -0.2834
  146SAPE  H13R16064   0.931   2.590   9.123 -1.3548 -0.5523 -1.1387
  146SAPE  H13S16065   0.845   2.500   9.256  1.2110 -3.2362  0.1428
  146SAPE  C21416066   0.984   2.381   9.161  0.4286  0.0779  0.2254
  146SAPE  H14R16067   1.008   2.304   9.235  2.1236  0.1152 -0.2599
  146SAPE  C21516068   0.969   2.333   9.034 -0.7178  0.0177 -0.7343
  146SAPE  H15R16069   1.017   2.237   9.010 -1.2988 -0.8044  1.1599
  146SAPE  C21616070   0.926   2.396   8.907  0.2845 -0.5962  0.1973
  146SAPE  H16R16071   1.000   2.384   8.825  1.7315  0.7403  1.2481
  146SAPE  H16S16072   0.921   2.507   8.915  0.4989 -0.5252 -0.5761
  146SAPE  C21716073   0.784   2.358   8.856  0.4718  0.0783  0.6305
  146SAPE  H17R16074   0.788   2.249   8.836  0.4898  0.3353 -0.8359
  146SAPE  H17S16075   0.770   2.409   8.759  0.3461 -0.9799  0.0795
  146SAPE  C21816076   0.667   2.367   8.953  0.5414 -0.0859 -0.7404
  146SAPE  H18R16077   0.642   2.473   8.975 -1.8806 -0.5986 -0.7918
  146SAPE  H18S16078   0.696   2.328   9.053  0.4112 -1.0254 -1.0603
  146SAPE  C21916079   0.542   2.296   8.893 -0.3215 -0.1232  0.7987
  146SAPE  H19R16080   0.514   2.337   8.794 -3.8736 -1.3512  1.1456
  146SAPE  H19S16081   0.453   2.336   8.947 -0.8402  0.3250 -0.3474
  146SAPE  C22016082   0.548   2.148   8.884  0.3443  0.6492  0.3306
  146SAPE  H20R16083   0.570   2.094   8.979 -0.4610 -1.6217 -0.7112
  146SAPE  H20S16084   0.615   2.118   8.801  0.0700  2.4411 -0.5937
  146SAPE  H20T16085   0.446   2.110   8.862  0.5102  1.4458 -2.0605
  146SAPE   C3316086   1.580   2.626  10.058 -0.8932  0.3305  0.2446
  146SAPE   H3X16087   1.654   2.703  10.028 -1.0536  1.2325  2.0215
  146SAPE   H3Y16088   1.492   2.671  10.108 -2.1530  1.1439 -2.5072
  146SAPE   C3416089   1.541   2.564   9.923  0.2113  0.0543 -0.3809
  146SAPE   H4X16090   1.612   2.493   9.876 -0.3663 -1.1019  0.4316
  146SAPE   H4Y16091   1.520   2.645   9.850  2.4884  1.9058  0.9035
  146SAPE   C3516092   1.400   2.497   9.927 -1.3923  0.5408  0.3603
  146SAPE   H5X16093   1.328   2.568   9.973  0.0734  1.3361  1.5041
  146SAPE   H5Y16094   1.420   2.417  10.001 -0.2792 -0.5456 -1.0344
  146SAPE   C3616095   1.355   2.439   9.792 -0.4007 -0.5107  0.1884
  146SAPE   H6X16096   1.361   2.514   9.711  0.9005 -2.0288 -1.2019
  146SAPE   H6Y16097   1.252   2.406   9.817 -0.8110  0.7746  0.2853
  146SAPE   C3716098   1.442   2.329   9.733 -0.3245  0.2114 -0.5601
  146SAPE   H7X16099   1.431   2.247   9.808 -0.3373  0.2988 -0.4660
  146SAPE   H7Y16100   1.551   2.348   9.732 -0.2427  0.0275  1.5188
  146SAPE   C3816101   1.405   2.292   9.589  0.1548  0.3114  0.9486
  146SAPE   H8X16102   1.296   2.276   9.572  0.5423 -2.0013  0.3931
  146SAPE   H8Y16103   1.456   2.196   9.566  1.8007  1.4346 -0.3368
  146SAPE   C3916104   1.460   2.394   9.496  0.0457 -0.3081 -0.3468
  146SAPE   H9X16105   1.570   2.409   9.505 -0.0373 -1.0107  2.9510
  146SAPE   H9Y16106   1.408   2.490   9.515 -1.3097 -1.2230  0.7921
  146SAPE  C31016107   1.424   2.381   9.343 -0.4352  0.1203  0.2231
  146SAPE  H10X16108   1.314   2.390   9.332 -0.9192 -2.9325  1.4408
  146SAPE  H10Y16109   1.459   2.280   9.316  1.3605  0.3454  1.4952
  146SAPE  C31116110   1.503   2.489   9.263 -0.2084  0.9791 -0.4465
  146SAPE  H11X16111   1.613   2.483   9.283 -0.5736  2.1522  2.5210
  146SAPE  H11Y16112   1.473   2.592   9.293  0.3665  0.9603  0.2329
  146SAPE  C31216113   1.467   2.493   9.117  0.8551 -0.0178 -0.0959
  146SAPE  H12X16114   1.364   2.534   9.115  1.3285  1.1982 -0.3013
  146SAPE  H12Y16115   1.458   2.393   9.070 -1.9601  0.2086 -0.2249
  146SAPE  C31316116   1.549   2.590   9.026  0.3058 -0.4519 -0.6558
  146SAPE  H13X16117   1.555   2.687   9.080  0.9879 -0.3569 -0.8942
  146SAPE  H13Y16118   1.485   2.608   8.937 -1.6243  1.6155  1.0277
  146SAPE  C31416119   1.685   2.530   8.980 -0.7163  0.0733 -0.2977
  146SAPE  H14X16120   1.667   2.427   8.945 -0.1410  0.0743 -0.6154
  146SAPE  H14Y16121   1.747   2.521   9.071 -2.4331  0.1569  0.9160
  146SAPE  C31516122   1.756   2.612   8.879  0.1505 -0.6937  0.9070
  146SAPE  H15X16123   1.805   2.702   8.922 -0.0771 -0.0284 -0.1714
  146SAPE  H15Y16124   1.678   2.669   8.824  1.3046 -0.0753 -0.1593
  146SAPE  C31616125   1.861   2.537   8.800 -0.0440 -0.0815  0.3123
  146SAPE  H16X16126   1.806   2.480   8.723 -1.1844  1.8852 -0.3995
  146SAPE  H16Y16127   1.916   2.465   8.864  1.4047  0.6866 -0.0386
  146SAPE  C31716128   1.948   2.630   8.714  0.2279  0.1381  0.6156
  146SAPE  H17X16129   2.045   2.581   8.691  0.4150 -0.1610  1.9539
  146SAPE  H17Y16130   1.977   2.714   8.781  1.9748  0.1059 -0.0667
  146SAPE  C31816131   1.887   2.685   8.584  0.3175  0.1797  0.5450
  146SAPE  H18X16132   1.847   2.605   8.518  2.8434  0.7120 -1.8196
  146SAPE  H18Y16133   1.979   2.718   8.532  0.3111 -0.4619  0.1080
  146SAPE  H18Z16134   1.805   2.758   8.600 -1.4563 -1.4716 -0.5146
  147SAPE     N16135   3.763   0.550   6.247  0.4717 -0.2195 -0.2009
  147SAPE   HN116136   3.727   0.573   6.341 -0.2758 -0.8784 -0.3096
  147SAPE   HN216137   3.821   0.463   6.243 -1.3846 -1.4838 -1.6752
  147SAPE   HN316138   3.810   0.629   6.198 -1.4841  1.6301  0.7771
  147SAPE   C1216139   3.652   0.500   6.161  0.1513  0.1639 -1.2842
  147SAPE  H12A16140   3.706   0.441   6.084 -0.5182 -0.8395 -1.0059
  147SAPE  H12B16141   3.599   0.589   6.122 -1.0262  0.1796  0.2532
  147SAPE   C1116142   3.553   0.421   6.247 -0.4207  0.4142 -0.0146
  147SAPE  H11A16143   3.485   0.488   6.303 -0.2546  0.7963 -0.2592
  147SAPE  H11B16144   3.616   0.359   6.314 -1.8968 -0.7584  0.3221
  147SAPE     P16145   3.335   0.354   6.107 -0.2410  0.3142  0.2000
  147SAPE   O1316146   3.343   0.411   5.971  0.7519  0.1693 -1.2839
  147SAPE   O1416147   3.250   0.233   6.125 -0.0239  0.0804 -0.1526
  147SAPE   O1216148   3.473   0.325   6.164 -0.6861  0.4733 -0.2903
  147SAPE   O1116149   3.272   0.459   6.210 -0.6273 -0.0697 -0.4101
  147SAPE    C116150   3.226   0.416   6.346 -0.3050 -0.5102  0.1104
  147SAPE    HA16151   3.116   0.403   6.338 -0.6013  1.4723  0.5188
  147SAPE    HB16152   3.259   0.316   6.382  0.2643 -0.0137  1.0030
  147SAPE    C216153   3.250   0.526   6.452  0.1435  0.0726 -0.3149
  147SAPE    HS16154   3.357   0.522   6.482 -0.5269  3.9781  3.6112
  147SAPE   O2116155   3.172   0.495   6.573  0.1524 -0.5590  0.4671
  147SAPE   C2116156   3.223   0.395   6.650 -0.0090 -0.8487 -0.0850
  147SAPE   O2216157   3.306   0.313   6.621  0.3989  0.2260  0.5192
  147SAPE   C2216158   3.147   0.383   6.779  1.1002  0.0252  0.0953
  147SAPE   H2R16159   3.042   0.393   6.745  1.4596 -0.3282 -1.2128
  147SAPE   H2S16160   3.155   0.278   6.816 -0.9818  0.3895  1.7482
  147SAPE    C316161   3.217   0.672   6.412  0.5341  0.1111  0.1336
  147SAPE    HX16162   3.120   0.674   6.358 -0.1476  1.1187  1.3156
  147SAPE    HY16163   3.289   0.711   6.337  0.0906  0.6066 -0.0394
  147SAPE   O3116164   3.207   0.762   6.531 -0.1293 -0.2826  0.6255
  147SAPE   C3116165   3.324   0.816   6.556 -0.2029 -0.8115  0.5628
  147SAPE   O3216166   3.436   0.774   6.533 -0.1913 -0.0201 -0.1687
  147SAPE   C3216167   3.312   0.948   6.622 -0.5165 -0.2761 -0.2480
  147SAPE   H2X16168   3.208   0.984   6.605 -1.2253 -2.8720 -1.9999
  147SAPE   H2Y16169   3.386   1.015   6.573 -1.4140  0.3858 -0.7436
  147SAPE   C2316170   3.190   0.486   6.882  0.3647  0.7873 -0.0764
  147SAPE   H3R16171   3.116   0.472   6.963  0.8959 -0.1655  0.2671
  147SAPE   H3S16172   3.180   0.593   6.853 -0.8481  0.8050  0.3771
  147SAPE   C2416173   3.334   0.473   6.933 -0.2250 -0.5672 -0.0887
  147SAPE   H4R16174   3.405   0.464   6.848 -3.7494  1.0234 -3.5162
  147SAPE   H4S16175   3.337   0.382   6.997  0.2523  0.1207  0.8938
  147SAPE   C2516176   3.381   0.592   7.017 -0.1835  0.3233  0.3747
  147SAPE   H5R16177   3.421   0.680   6.965  0.0766 -1.5732 -2.9448
  147SAPE   C2616178   3.387   0.593   7.148 -0.1885  0.1614  0.2670
  147SAPE   H6R16179   3.420   0.684   7.202 -0.0256  0.6355 -0.6122
  147SAPE   C2716180   3.364   0.484   7.249  0.3693  0.1366  0.2734
  147SAPE   H7R16181   3.443   0.406   7.249  0.6040  0.3342 -1.3903
  147SAPE   H7S16182   3.283   0.417   7.210  1.6946 -1.0385 -0.5791
  147SAPE   C2816183   3.325   0.533   7.387 -0.5683  0.0909  0.6025
  147SAPE   H8R16184   3.244   0.607   7.380  0.5820  1.2919 -0.5657
  147SAPE   C2916185   3.367   0.498   7.508  0.3461  0.2855  0.3002
  147SAPE   H9R16186   3.333   0.564   7.589 -0.7175  1.4090 -1.0313
  147SAPE  C21016187   3.481   0.398   7.534  0.3855  0.9079 -0.3801
  147SAPE  H10R16188   3.569   0.450   7.576 -0.5118 -0.0201  2.9846
  147SAPE  H10S16189   3.527   0.351   7.445  1.4223 -0.0698  0.6399
  147SAPE  C21116190   3.432   0.281   7.622  0.1997  0.4287  0.3869
  147SAPE  H11R16191   3.361   0.210   7.575  0.6808  0.9156 -1.1245
  147SAPE  C21216192   3.472   0.253   7.745  0.5330 -0.0560 -0.5796
  147SAPE  H12R16193   3.431   0.172   7.807  1.0258  0.6733  0.7232
  147SAPE  C21316194   3.566   0.334   7.828 -0.2132 -0.6875  0.1813
  147SAPE  H13R16195   3.634   0.399   7.769 -1.4588  1.3408  0.8687
  147SAPE  H13S16196   3.639   0.269   7.881  1.3286  0.3217 -0.6421
  147SAPE  C21416197   3.500   0.439   7.910  0.6943  0.3555  0.3289
  147SAPE  H14R16198   3.405   0.479   7.871  0.7720  1.6865  1.4043
  147SAPE  C21516199   3.553   0.491   8.022  0.0030 -0.2659  0.2379
  147SAPE  H15R16200   3.499   0.571   8.074  1.2819 -0.2375  1.6042
  147SAPE  C21616201   3.682   0.448   8.084  0.5168  0.1295 -0.0209
  147SAPE  H16R16202   3.762   0.521   8.058  0.7886 -0.6447 -1.4586
  147SAPE  H16S16203   3.711   0.350   8.042  0.1732  0.3304 -0.7408
  147SAPE  C21716204   3.668   0.441   8.234 -0.0943  0.5445  0.3445
  147SAPE  H17R16205   3.599   0.358   8.261  0.7778  0.3572  2.0727
  147SAPE  H17S16206   3.638   0.537   8.281  0.2083  0.5308  0.5628
  147SAPE  C21816207   3.802   0.398   8.305 -0.5571 -0.6490  0.2861
  147SAPE  H18R16208   3.880   0.476   8.294  0.1180 -1.2758  0.5204
  147SAPE  H18S16209   3.836   0.305   8.254  0.2402  0.2997 -0.9803
  147SAPE  C21916210   3.780   0.381   8.454  0.2881  0.1751  0.3232
  147SAPE  H19R16211   3.695   0.310   8.467  0.8210 -0.5368  0.0108
  147SAPE  H19S16212   3.761   0.471   8.515 -0.1954  1.8390 -2.1198
  147SAPE  C22016213   3.888   0.316   8.533  0.0110  1.0062 -0.9513
  147SAPE  H20R16214   3.859   0.280   8.634 -0.8508 -0.4538 -1.6802
  147SAPE  H20S16215   3.980   0.377   8.541  0.3040  0.6454 -1.4871
  147SAPE  H20T16216   3.932   0.227   8.484  0.1608 -1.1766  2.7780
  147SAPE   C3316217   3.354   0.947   6.769 -0.5008 -0.4021  0.0058
  147SAPE   H3X16218   3.392   1.048   6.794 -2.8967  0.5510  0.1140
  147SAPE   H3Y16219   3.432   0.873   6.795  1.7095  2.4401  2.0590
  147SAPE   C3416220   3.235   0.924   6.863 -0.0742 -0.6945 -0.6462
  147SAPE   H4X16221   3.195   0.822   6.843 -1.2232  0.0606 -2.3389
  147SAPE   H4Y16222   3.152   0.995   6.842  0.0315  0.6134  2.6561
  147SAPE   C3516223   3.280   0.942   7.012  0.2259 -0.9797 -0.2521
  147SAPE   H5X16224   3.304   1.050   7.022 -1.6274 -0.6064  0.5353
  147SAPE   H5Y16225   3.378   0.892   7.029  1.5315  1.3476 -0.4180
  147SAPE   C3616226   3.174   0.922   7.120 -0.5477 -1.1654 -0.3593
  147SAPE   H6X16227   3.165   0.812   7.133 -2.3000 -0.9644  0.4492
  147SAPE   H6Y16228   3.085   0.959   7.065  0.3839  1.5223 -0.2192
  147SAPE   C3716229   3.185   1.017   7.246 -0.3405  0.1145  0.0955
  147SAPE   H7X16230   3.086   1.058   7.276  0.3724  1.1986  1.0710
  147SAPE   H7Y16231   3.250   1.105   7.224 -3.2582  1.7052 -3.2756
  147SAPE   C3816232   3.249   0.940   7.368  0.1033  0.2710  0.6547
  147SAPE   H8X16233   3.342   0.888   7.337 -0.5315 -0.4570 -0.0838
  147SAPE   H8Y16234   3.183   0.859   7.406 -0.5980 -0.3863 -1.8081
  147SAPE   C3916235   3.286   1.023   7.483  0.2218 -0.1515 -0.2558
  147SAPE   H9X16236   3.190   1.066   7.519  0.6429  1.7198 -1.1990
  147SAPE   H9Y16237   3.352   1.107   7.451 -0.8803  0.4478 -1.0450
  147SAPE  C31016238   3.349   0.939   7.594  0.2599 -0.3558  0.2882
  147SAPE  H10X16239   3.449   0.907   7.560  1.1975 -0.0603  2.5811
  147SAPE  H10Y16240   3.278   0.853   7.601  0.4133 -0.4545  0.6979
  147SAPE  C31116241   3.360   1.017   7.731 -0.1888  0.3367  0.3532
  147SAPE  H11X16242   3.256   1.043   7.762  0.2970  1.0327  1.4414
  147SAPE  H11Y16243   3.424   1.107   7.733  1.4570 -0.7904  0.4825
  147SAPE  C31216244   3.422   0.930   7.843  0.9154 -0.7158  0.5495
  147SAPE  H12X16245   3.511   0.882   7.797  0.6841  1.0817 -2.0381
  147SAPE  H12Y16246   3.345   0.851   7.859 -0.9352  1.2186  1.7065
  147SAPE  C31316247   3.446   0.994   7.971 -0.0062 -0.2368  0.1103
  147SAPE  H13X16248   3.440   1.105   7.978  0.2228 -0.1973 -0.2649
  147SAPE  H13Y16249   3.549   0.972   8.007 -0.1321  0.4815  0.9414
  147SAPE  C31416250   3.329   0.942   8.069 -0.3236  0.3855 -0.3426
  147SAPE  H14X16251   3.228   0.958   8.027 -1.2536  0.7788  1.9229
  147SAPE  H14Y16252   3.345   1.015   8.151  1.2704  0.3120 -0.5396
  147SAPE  C31516253   3.349   0.804   8.132  0.4398 -0.4421  0.1974
  147SAPE  H15X16254   3.454   0.793   8.167  0.7124 -1.2506 -0.8264
  147SAPE  H15Y16255   3.322   0.732   8.052  0.1298  0.8908 -0.9488
  147SAPE  C31616256   3.253   0.779   8.250  0.1776 -0.4494 -0.5115
  147SAPE  H16X16257   3.152   0.807   8.215 -0.0929 -0.6175  0.1143
  147SAPE  H16Y16258   3.276   0.848   8.334 -2.5009 -0.2050  0.0923
  147SAPE  C31716259   3.242   0.645   8.317 -0.6599 -0.1145  0.6261
  147SAPE  H17X16260   3.168   0.652   8.400  1.6301 -0.9120  2.8747
  147SAPE  H17Y16261   3.340   0.616   8.362 -0.3511  1.3074  0.9236
  147SAPE  C31816262   3.203   0.529   8.223  0.0993 -0.2821  0.8207
  147SAPE  H18X16263   3.186   0.440   8.287  0.6257 -2.4905 -1.8895
  147SAPE  H18Y16264   3.280   0.505   8.147 -0.5021  3.8003 -1.3738
  147SAPE  H18Z16265   3.111   0.552   8.165  0.3658 -0.0522  0.4870
  148SAPE     N16266   2.357   5.376   6.468  0.3120  0.3311  0.3907
  148SAPE   HN116267   2.456   5.356   6.494  0.3336  0.7777  0.6698
  148SAPE   HN216268   2.308   5.388   6.559 -3.4531  0.2725 -1.4326
  148SAPE   HN316269   2.324   5.292   6.416  2.3803 -0.4302  0.2265
  148SAPE   C1216270   2.339   5.512   6.403  0.9230 -0.0473 -0.8578
  148SAPE  H12A16271   2.378   5.501   6.299  2.1001  1.8477 -0.6646
  148SAPE  H12B16272   2.393   5.590   6.460 -0.0212  0.0945 -0.1247
  148SAPE   C1116273   2.189   5.550   6.378 -0.1437 -0.2834 -0.0527
  148SAPE  H11A16274   2.153   5.464   6.317  1.1619 -1.8507  1.3000
  148SAPE  H11B16275   2.189   5.642   6.315 -1.9207 -0.9879 -1.1690
  148SAPE     P16276   1.965   5.612   6.493  0.0227 -0.1670  0.1261
  148SAPE   O1316277   1.963   5.753   6.443  0.5840 -0.1663  0.1104
  148SAPE   O1416278   1.886   5.507   6.425 -0.0828 -0.3683  0.1199
  148SAPE   O1216279   2.117   5.568   6.496  0.0684  0.1145 -0.7308
  148SAPE   O1116280   1.929   5.603   6.644  0.3192  0.6028 -0.2771
  148SAPE    C116281   1.987   5.509   6.730 -0.2359 -0.7169  0.5647
  148SAPE    HA16282   2.018   5.416   6.677  2.3299  1.4240 -2.0485
  148SAPE    HB16283   2.086   5.550   6.762 -0.7961  1.2570 -0.0966
  148SAPE    C216284   1.897   5.485   6.856  0.7446 -0.4495 -0.2055
  148SAPE    HS16285   1.843   5.576   6.891  0.9708 -0.6479  0.6844
  148SAPE   O2116286   1.988   5.430   6.959  0.1081  0.5092 -0.2615
  148SAPE   C2116287   2.066   5.525   7.019 -0.1193 -1.0808 -0.3327
  148SAPE   O2216288   2.065   5.642   6.983 -0.0848 -0.1455 -0.4428
  148SAPE   C2216289   2.165   5.467   7.122  0.6289  0.4217  0.3197
  148SAPE   H2R16290   2.229   5.553   7.152 -1.0046  1.5189  0.8167
  148SAPE   H2S16291   2.102   5.439   7.209 -0.3621  0.3548 -0.4040
  148SAPE    C316292   1.793   5.392   6.822  1.2879  0.6577  0.1669
  148SAPE    HX16293   1.843   5.295   6.800  0.5368  0.1987  0.4348
  148SAPE    HY16294   1.743   5.422   6.727  0.7101  1.7051  0.7862
  148SAPE   O3116295   1.690   5.372   6.927  0.2339 -0.3291  0.3378
  148SAPE   C3116296   1.668   5.248   6.973  0.3677 -0.1898  0.2366
  148SAPE   O3216297   1.724   5.145   6.939 -0.1970 -0.5832 -0.0336
  148SAPE   C3216298   1.551   5.264   7.073 -0.0291 -0.6399 -0.0260
  148SAPE   H2X16299   1.455   5.244   7.022 -1.4461  1.7976  1.5106
  148SAPE   H2Y16300   1.554   5.370   7.105 -0.0149 -1.4290  2.8531
  148SAPE   C2316301   2.230   5.345   7.055  0.9298  0.0929 -0.4459
  148SAPE   H3R16302   2.291   5.377   6.968 -0.5251 -2.0645 -2.3794
  148SAPE   H3S16303   2.153   5.283   7.006  1.8034 -1.4685  0.0535
  148SAPE   C2416304   2.333   5.282   7.158  0.3637  0.8709  0.4317
  148SAPE   H4R16305   2.393   5.365   7.200  0.1913  3.1470 -3.3216
  148SAPE   H4S16306   2.404   5.218   7.102  0.0271  0.2811  0.6661
  148SAPE   C2516307   2.254   5.203   7.256  0.3518  0.4936 -0.0898
  148SAPE   H5R16308   2.209   5.112   7.213  0.9240  1.2738 -2.4875
  148SAPE   C2616309   2.235   5.244   7.387  0.1632 -0.4752 -0.0703
  148SAPE   H6R16310   2.177   5.184   7.459 -0.0890  1.4197  1.3645
  148SAPE   C2716311   2.291   5.361   7.455  0.3184 -0.3789 -0.0970
  148SAPE   H7R16312   2.216   5.384   7.534 -2.2284  1.2378 -2.7887
  148SAPE   H7S16313   2.294   5.451   7.390 -0.8127  1.6366  2.4366
  148SAPE   C2816314   2.414   5.334   7.530 -0.3710 -0.8505 -0.2003
  148SAPE   H8R16315   2.496   5.305   7.463 -0.8775 -0.4720 -1.0063
  148SAPE   C2916316   2.437   5.334   7.659  0.0434  0.5540  0.2050
  148SAPE   H9R16317   2.544   5.323   7.684 -0.0127 -0.7362 -0.0783
  148SAPE  C21016318   2.333   5.362   7.765 -0.1517  0.3485  0.3441
  148SAPE  H10R16319   2.276   5.448   7.724  0.7728  0.9874  0.3783
  148SAPE  H10S16320   2.387   5.409   7.850  0.0320  0.0616  0.3875
  148SAPE  C21116321   2.248   5.245   7.803  0.3297 -0.1312  0.3772
  148SAPE  H11R16322   2.210   5.187   7.719 -2.0101  0.7762  0.7406
  148SAPE  C21216323   2.197   5.218   7.928 -0.3503  0.0885  0.3437
  148SAPE  H12R16324   2.129   5.135   7.949  2.3682 -2.2797  0.3194
  148SAPE  C21316325   2.229   5.290   8.052 -0.3348 -0.6415 -0.1528
  148SAPE  H13R16326   2.335   5.321   8.045  0.2077 -1.9566  1.3841
  148SAPE  H13S16327   2.239   5.215   8.134  2.0145 -0.2389 -0.0070
  148SAPE  C21416328   2.142   5.407   8.088  0.4560 -0.0347  0.3893
  148SAPE  H14R16329   2.113   5.473   8.005  1.2239 -0.9795 -0.6575
  148SAPE  C21516330   2.111   5.435   8.215  0.1301  0.3219  1.1534
  148SAPE  H15R16331   2.046   5.522   8.237  0.3158  1.3138 -1.7539
  148SAPE  C21616332   2.149   5.368   8.345  0.8573 -0.0086 -0.5443
  148SAPE  H16R16333   2.216   5.442   8.394 -0.7765  1.2477 -0.1327
  148SAPE  H16S16334   2.202   5.275   8.315  0.0590 -0.0679 -1.8292
  148SAPE  C21716335   2.030   5.331   8.446 -0.4217  0.5674 -0.6031
  148SAPE  H17R16336   1.952   5.260   8.411  0.7900 -1.6879  1.0359
  148SAPE  H17S16337   1.977   5.428   8.457 -1.0119  0.2629 -0.7492
  148SAPE  C21816338   2.077   5.305   8.586  0.1069 -0.4948 -0.0856
  148SAPE  H18R16339   2.156   5.380   8.608  0.2927 -0.0318 -2.0782
  148SAPE  H18S16340   2.124   5.205   8.586  0.9325 -0.1319 -1.1339
  148SAPE  C21916341   1.966   5.314   8.690  0.4741 -0.1936  0.2024
  148SAPE  H19R16342   1.867   5.286   8.649  0.6801 -0.7047  0.0482
  148SAPE  H19S16343   1.954   5.420   8.720 -2.5896 -0.7150  1.1471
  148SAPE  C22016344   1.992   5.238   8.818 -0.2091  0.0069  0.0570
  148SAPE  H20R16345   2.098   5.258   8.843 -0.4194  0.1971  0.8434
  148SAPE  H20S16346   1.977   5.128   8.812  0.1348  0.0213 -1.2989
  148SAPE  H20T16347   1.921   5.279   8.894 -0.4920  0.9095 -0.6846
  148SAPE   C3316348   1.576   5.181   7.203  0.4454  0.2766  0.3079
  148SAPE   H3X16349   1.614   5.076   7.202  0.0509  0.1106 -1.5466
  148SAPE   H3Y16350   1.475   5.179   7.251  0.0349  1.2211 -0.4902
  148SAPE   C3416351   1.659   5.253   7.313  0.0236 -0.3980  0.2394
  148SAPE   H4X16352   1.659   5.182   7.399  1.7514 -0.5179  0.1836
  148SAPE   H4Y16353   1.599   5.342   7.341  1.1331  0.2733  0.5320
  148SAPE   C3516354   1.798   5.283   7.289 -0.4474 -0.3080  0.1573
  148SAPE   H5X16355   1.812   5.312   7.183  0.2743 -2.5505 -0.4164
  148SAPE   H5Y16356   1.870   5.198   7.289 -1.1042 -0.9387 -2.4183
  148SAPE   C3616357   1.844   5.392   7.380  0.2537  0.0505  0.2027
  148SAPE   H6X16358   1.767   5.471   7.365 -0.7933 -0.8931  0.4691
  148SAPE   H6Y16359   1.940   5.429   7.338  0.1941  0.0979  0.1088
  148SAPE   C3716360   1.866   5.344   7.525 -0.0872  0.1334 -0.1817
  148SAPE   H7X16361   1.940   5.261   7.530  0.2134  0.4620  1.3853
  148SAPE   H7Y16362   1.768   5.301   7.556 -1.8362  1.8596 -2.8864
  148SAPE   C3816363   1.900   5.459   7.620  0.0406 -0.4189 -0.3345
  148SAPE   H8X16364   1.832   5.547   7.620  0.3273 -0.1688 -1.7985
  148SAPE   H8Y16365   1.997   5.506   7.594  0.9819 -1.2352  1.5144
  148SAPE   C3916366   1.925   5.420   7.770 -0.5240  0.1106  0.3995
  148SAPE   H9X16367   1.993   5.499   7.809  1.5154 -0.8703 -0.9941
  148SAPE   H9Y16368   1.988   5.328   7.766  2.0838  1.6916  2.0724
  148SAPE  C31016369   1.796   5.421   7.850 -0.0294 -0.4068 -0.1704
  148SAPE  H10X16370   1.710   5.431   7.781 -0.5972 -2.3765  0.1787
  148SAPE  H10Y16371   1.789   5.514   7.910  2.2112 -1.8937  2.6847
  148SAPE  C31116372   1.763   5.294   7.935  0.2824 -0.4794 -0.1734
  148SAPE  H11X16373   1.838   5.292   8.017 -0.2962  0.1455  0.3871
  148SAPE  H11Y16374   1.792   5.208   7.871 -0.4677 -0.6518 -0.2897
  148SAPE  C31216375   1.623   5.292   7.994  0.0651  0.0208  0.4949
  148SAPE  H12X16376   1.536   5.289   7.926  0.0468 -1.6446  0.5555
  148SAPE  H12Y16377   1.609   5.384   8.055 -1.0433  1.3330 -1.6494
  148SAPE  C31316378   1.609   5.162   8.085 -0.4479 -0.5239  0.0102
  148SAPE  H13X16379   1.670   5.074   8.056  0.9353  0.6884 -0.9341
  148SAPE  H13Y16380   1.501   5.139   8.079 -0.3740 -0.6529 -1.0516
  148SAPE  C31416381   1.650   5.197   8.234  0.1288 -0.3395  0.1213
  148SAPE  H14X16382   1.589   5.269   8.294 -1.2360 -1.8001  0.5706
  148SAPE  H14Y16383   1.753   5.236   8.233 -0.1289  0.5180  1.9661
  148SAPE  C31516384   1.645   5.066   8.309 -0.1903  0.1781 -0.2393
  148SAPE  H15X16385   1.695   4.983   8.256 -2.8562 -0.2959 -2.1980
  148SAPE  H15Y16386   1.541   5.029   8.310 -0.0702 -0.1610 -0.2449
  148SAPE  C31616387   1.697   5.077   8.454  0.5766 -0.3759 -0.2337
  148SAPE  H16X16388   1.632   5.150   8.508  0.2331  0.2908 -1.5036
  148SAPE  H16Y16389   1.801   5.113   8.439  0.3969 -0.2539 -1.2186
  148SAPE  C31716390   1.709   4.946   8.543 -0.5078 -0.7607  0.2374
  148SAPE  H17X16391   1.771   4.869   8.493  0.8971  0.7706 -0.4566
  148SAPE  H17Y16392   1.609   4.899   8.556 -0.8727 -0.4090 -1.1953
  148SAPE  C31816393   1.772   4.984   8.675 -0.4983 -0.7714  0.5126
  148SAPE  H18X16394   1.705   5.039   8.744  1.3705  2.8481 -0.3441
  148SAPE  H18Y16395   1.864   5.046   8.669 -1.8684  1.2643 -0.8557
  148SAPE  H18Z16396   1.809   4.889   8.720 -0.0615 -1.3616 -1.0081
  149SAPE     N16397   2.342   6.414   6.537  0.0218  0.1997  0.0679
  149SAPE   HN116398   2.250   6.385   6.499  0.2226  0.7079 -0.8356
  149SAPE   HN216399   2.386   6.327   6.574  0.2672 -0.1365 -0.9881
  149SAPE   HN316400   2.342   6.490   6.607  1.5839 -0.3237  0.6915
  149SAPE   C1216401   2.415   6.481   6.423 -0.6660 -0.3511  0.3131
  149SAPE  H12A16402   2.513   6.514   6.466 -1.9362  3.7005  0.4980
  149SAPE  H12B16403   2.352   6.570   6.401  1.8816  1.9237  1.5491
  149SAPE   C1116404   2.424   6.379   6.306  0.6836  0.5462 -0.3370
  149SAPE  H11A16405   2.458   6.438   6.217 -1.0228 -0.8755 -2.0038
  149SAPE  H11B16406   2.328   6.330   6.282  0.5296  0.3208  0.6996
  149SAPE     P16407   2.667   6.275   6.269 -0.3085 -0.0162  0.4281
  149SAPE   O1316408   2.728   6.153   6.330 -0.0045 -0.4254  0.3376
  149SAPE   O1416409   2.655   6.281   6.119  0.0716  0.6368  0.2553
  149SAPE   O1216410   2.528   6.283   6.333  0.2711 -0.3011  0.0216
  149SAPE   O1116411   2.749   6.401   6.315  0.2076  0.0374  0.1469
  149SAPE    C116412   2.866   6.392   6.385 -1.1217 -0.2544 -0.2627
  149SAPE    HA16413   2.926   6.308   6.343 -1.8484 -1.1177  0.3926
  149SAPE    HB16414   2.922   6.488   6.377  1.7218 -1.8065 -0.1364
  149SAPE    C216415   2.841   6.369   6.538  0.6013  0.2544 -0.3481
  149SAPE    HS16416   2.771   6.283   6.538  1.2647 -0.2936  0.1028
  149SAPE   O2116417   2.781   6.486   6.605 -0.7193 -0.0111 -0.0491
  149SAPE   C2116418   2.716   6.464   6.720  0.3707  1.1450  0.7565
  149SAPE   O2216419   2.672   6.353   6.750  0.1459  0.4774  0.1610
  149SAPE   C2216420   2.681   6.589   6.789 -0.4208 -0.9287 -0.0586
  149SAPE   H2R16421   2.776   6.644   6.801 -1.5169  0.4929  3.3739
  149SAPE   H2S16422   2.608   6.646   6.726 -0.2030  1.1408  1.4434
  149SAPE    C316423   2.965   6.333   6.612 -0.4625  0.0829 -0.3263
  149SAPE    HX16424   3.027   6.425   6.615 -1.5938  0.9172 -1.5003
  149SAPE    HY16425   3.018   6.253   6.556 -1.4969 -0.1288 -1.0438
  149SAPE   O3116426   2.945   6.288   6.748  0.7008  0.7096 -0.0451
  149SAPE   C3116427   2.908   6.155   6.755 -0.8343 -0.1901 -0.2720
  149SAPE   O3216428   2.882   6.091   6.658  0.1900  0.4959  0.0679
  149SAPE   C3216429   2.913   6.114   6.897  0.6831  0.3656  0.3230
  149SAPE   H2X16430   2.808   6.104   6.932  0.6415  1.1868  0.4382
  149SAPE   H2Y16431   2.957   6.201   6.950 -4.0646  1.3903  3.1239
  149SAPE   C2316432   2.610   6.567   6.925  0.0163 -0.5610  0.9959
  149SAPE   H3R16433   2.511   6.522   6.906 -0.1960  0.6868 -1.2452
  149SAPE   H3S16434   2.590   6.669   6.965 -1.2853 -0.4173  0.0486
  149SAPE   C2416435   2.694   6.495   7.031  0.5185  0.2284 -0.1161
  149SAPE   H4R16436   2.781   6.560   7.055  0.2324  0.0919  1.3575
  149SAPE   H4S16437   2.732   6.398   6.992 -1.3022 -0.8999  0.7603
  149SAPE   C2516438   2.615   6.476   7.159  0.5089 -0.1888  0.0485
  149SAPE   H5R16439   2.525   6.539   7.171  0.9672  0.0824  2.3794
  149SAPE   C2616440   2.658   6.389   7.256  0.5820  0.1534  0.0983
  149SAPE   H6R16441   2.593   6.360   7.340 -0.4922 -3.2984 -1.6920
  149SAPE   C2716442   2.771   6.296   7.255 -0.2582  0.3622  0.7251
  149SAPE   H7R16443   2.816   6.296   7.357  3.2497  0.1305 -0.6867
  149SAPE   H7S16444   2.848   6.325   7.180 -1.4501  0.5164 -0.4720
  149SAPE   C2816445   2.727   6.163   7.218  0.4898 -0.5516  0.2529
  149SAPE   H8R16446   2.695   6.167   7.113  1.7197  1.2913 -0.0960
  149SAPE   C2916447   2.717   6.052   7.289 -0.0679  0.6139 -0.1102
  149SAPE   H9R16448   2.664   5.966   7.245 -1.6713  0.8535  1.2416
  149SAPE  C21016449   2.771   6.025   7.428  0.0755  0.2684 -0.7214
  149SAPE  H10R16450   2.854   6.096   7.451  0.2640 -0.3794  0.7585
  149SAPE  H10S16451   2.814   5.923   7.428  0.6905  0.5257 -1.1937
  149SAPE  C21116452   2.675   6.018   7.543 -0.6400 -0.6448  0.3363
  149SAPE  H11R16453   2.579   5.966   7.529 -0.9464 -0.5283  1.8331
  149SAPE  C21216454   2.714   6.045   7.672 -0.3540  0.0246  0.1348
  149SAPE  H12R16455   2.630   6.042   7.744 -0.2496 -0.3308  0.2436
  149SAPE  C21316456   2.853   6.085   7.730 -0.6731  0.1286  0.6600
  149SAPE  H13R16457   2.857   6.191   7.763 -1.1504 -0.2146  1.8946
  149SAPE  H13S16458   2.926   6.090   7.647 -3.2478 -1.4225 -1.8552
  149SAPE  C21416459   2.895   5.978   7.825 -0.0368  0.2436 -1.0291
  149SAPE  H14R16460   2.888   5.874   7.790 -1.2993 -0.2130  0.4271
  149SAPE  C21516461   2.926   6.000   7.955 -1.4947 -0.2784 -0.2385
  149SAPE  H15R16462   2.944   5.914   8.021  0.8476  0.2252 -0.1560
  149SAPE  C21616463   2.916   6.132   8.031  0.1751  0.3961 -0.0778
  149SAPE  H16R16464   2.832   6.193   7.992 -1.2645 -1.4113  0.0776
  149SAPE  H16S16465   3.009   6.185   8.000  0.3483 -0.1656 -0.5435
  149SAPE  C21716466   2.901   6.123   8.192 -0.6634  0.2548  0.7064
  149SAPE  H17R16467   2.802   6.075   8.210 -1.1786  1.1607  0.4165
  149SAPE  H17S16468   2.883   6.226   8.230  1.4268  0.5875  0.8817
  149SAPE  C21816469   3.023   6.067   8.261 -0.6909 -0.3544 -1.0085
  149SAPE  H18R16470   3.105   6.141   8.264  0.4845 -1.5801 -1.9581
  149SAPE  H18S16471   3.052   5.966   8.226 -1.3552 -1.2987  0.9636
  149SAPE  C21916472   2.987   6.041   8.409  0.3430  0.5752  0.0956
  149SAPE  H19R16473   2.949   6.134   8.456 -0.4329  0.6101 -0.5735
  149SAPE  H19S16474   3.076   6.021   8.472 -1.0028 -0.5571  1.7271
  149SAPE  C22016475   2.887   5.927   8.431  0.2807 -0.0294 -0.2280
  149SAPE  H20R16476   2.895   5.911   8.540  0.9651  0.7534 -0.1591
  149SAPE  H20S16477   2.923   5.831   8.388  1.5639 -0.5547  1.9054
  149SAPE  H20T16478   2.787   5.948   8.385  0.4509 -1.4840 -1.3434
  149SAPE   C3316479   2.999   5.986   6.923 -0.3094 -0.3941 -0.1342
  149SAPE   H3X16480   3.100   5.990   6.877 -0.3864 -1.9792 -0.5035
  149SAPE   H3Y16481   2.953   5.890   6.890  0.6019 -0.4270 -1.3822
  149SAPE   C3416482   3.026   5.974   7.074 -0.0687 -0.0654 -0.3097
  149SAPE   H4X16483   2.936   5.994   7.136  0.6611  0.0722  0.7239
  149SAPE   H4Y16484   3.086   6.061   7.109  0.2316  0.5074 -2.1588
  149SAPE   C3516485   3.101   5.848   7.119  0.4976 -0.4478  0.0838
  149SAPE   H5X16486   3.208   5.855   7.090  0.5134  2.6577  0.5003
  149SAPE   H5Y16487   3.067   5.759   7.063 -0.9619 -0.8117  1.4743
  149SAPE   C3616488   3.065   5.812   7.261  0.8029  0.8520  0.7716
  149SAPE   H6X16489   3.080   5.703   7.277  1.5147  0.8060 -0.1449
  149SAPE   H6Y16490   2.957   5.821   7.284  0.5523  1.0804 -0.4295
  149SAPE   C3716491   3.156   5.870   7.369  0.7468 -0.0497 -0.0771
  149SAPE   H7X16492   3.152   5.980   7.385  4.2125 -0.1199  2.2982
  149SAPE   H7Y16493   3.263   5.858   7.341  1.1095  1.1627  0.6815
  149SAPE   C3816494   3.141   5.798   7.499  0.0504  0.1265  0.4192
  149SAPE   H8X16495   3.117   5.690   7.487  1.9060 -0.3573  0.6726
  149SAPE   H8Y16496   3.059   5.847   7.555 -0.3508 -0.6879  0.5642
  149SAPE   C3916497   3.266   5.833   7.594 -0.6484  0.1538  0.5258
  149SAPE   H9X16498   3.289   5.941   7.612  0.4573  0.0927 -0.4030
  149SAPE   H9Y16499   3.352   5.786   7.542  0.1954  1.7551  0.3981
  149SAPE  C31016500   3.247   5.772   7.735  0.8008  0.4588  0.2547
  149SAPE  H10X16501   3.222   5.664   7.723  0.5250  0.5610 -0.0934
  149SAPE  H10Y16502   3.151   5.815   7.770  1.0418  0.7616  0.5452
  149SAPE  C31116503   3.359   5.793   7.841 -0.3138 -0.9916  0.0197
  149SAPE  H11X16504   3.369   5.903   7.848 -0.5954 -0.8512 -1.4514
  149SAPE  H11Y16505   3.447   5.753   7.787 -1.3658 -4.1546  0.4401
  149SAPE  C31216506   3.345   5.729   7.981  0.2178 -0.2816 -0.5170
  149SAPE  H12X16507   3.374   5.805   8.056 -2.0688  0.0747  0.0809
  149SAPE  H12Y16508   3.407   5.637   7.988 -1.0848 -1.1452  0.2028
  149SAPE  C31316509   3.201   5.697   8.022 -0.0279  0.3265  0.0859
  149SAPE  H13X16510   3.173   5.604   7.967  1.5937  0.3724 -0.8631
  149SAPE  H13Y16511   3.124   5.774   8.000  0.0980  0.6328  0.7057
  149SAPE  C31416512   3.194   5.673   8.173  0.0452  0.9988 -0.0689
  149SAPE  H14X16513   3.220   5.771   8.219  0.7032  0.5254  0.5957
  149SAPE  H14Y16514   3.275   5.599   8.189 -1.5898 -1.4527 -2.4233
  149SAPE  C31516515   3.069   5.609   8.231 -0.4741  0.3622 -0.9908
  149SAPE  H15X16516   3.059   5.513   8.178  0.9689 -1.1684  1.3120
  149SAPE  H15Y16517   2.988   5.685   8.221 -3.4841 -2.0870  2.1966
  149SAPE  C31616518   3.087   5.587   8.382 -0.2070 -0.3504  0.8863
  149SAPE  H16X16519   3.100   5.679   8.444  3.3837 -1.4913  2.1029
  149SAPE  H16Y16520   3.176   5.526   8.409  0.7867  0.7723  0.2859
  149SAPE  C31716521   2.977   5.507   8.460 -0.5915 -0.2404  0.3105
  149SAPE  H17X16522   2.877   5.540   8.423  0.7748  2.1421 -1.5646
  149SAPE  H17Y16523   2.983   5.522   8.570 -0.5364 -0.6072  0.3597
  149SAPE  C31816524   2.991   5.357   8.446 -0.3577  0.4568 -0.2147
  149SAPE  H18X16525   3.091   5.321   8.479 -0.4922  2.0808  2.2290
  149SAPE  H18Y16526   2.984   5.312   8.345  3.3173 -1.0838  0.0862
  149SAPE  H18Z16527   2.916   5.308   8.511  0.2446 -1.1499 -0.6987
  150SAPE     N16528   1.599   6.590   6.341  0.9860 -0.2418 -0.4335
  150SAPE   HN116529   1.687   6.534   6.344 -0.2319 -2.2192  1.0842
  150SAPE   HN216530   1.523   6.520   6.332 -1.3777  2.1433 -0.3281
  150SAPE   HN316531   1.594   6.663   6.267 -0.0364  0.3002  0.1500
  150SAPE   C1216532   1.569   6.668   6.468 -0.1508  0.0086  0.5042
  150SAPE  H12A16533   1.584   6.589   6.544 -0.4519 -0.8132 -0.2712
  150SAPE  H12B16534   1.463   6.702   6.470 -1.2645 -2.8861 -2.1229
  150SAPE   C1116535   1.669   6.783   6.486 -0.7037  1.4030 -0.5865
  150SAPE  H11A16536   1.773   6.745   6.483 -0.6911  1.1407  1.3497
  150SAPE  H11B16537   1.659   6.829   6.587  0.3691  1.6715 -0.5934
  150SAPE     P16538   1.564   7.015   6.400 -0.2180  0.1883 -0.0771
  150SAPE   O1316539   1.583   7.099   6.278 -0.3695 -0.7336  0.3630
  150SAPE   O1416540   1.426   6.966   6.428 -0.1083 -0.2764  0.2243
  150SAPE   O1216541   1.657   6.888   6.390  0.0528  0.0904  0.3692
  150SAPE   O1116542   1.612   7.090   6.535  0.0797  0.3752 -0.2672
  150SAPE    C116543   1.745   7.103   6.578  1.0591  0.5775 -0.0519
  150SAPE    HA16544   1.809   7.030   6.524 -0.1593 -0.3731 -0.2694
  150SAPE    HB16545   1.777   7.205   6.549 -2.2792  1.4685 -1.0433
  150SAPE    C216546   1.767   7.093   6.727 -0.5299 -0.5706 -0.6353
  150SAPE    HS16547   1.746   6.987   6.753 -0.7016 -0.0361  1.6106
  150SAPE   O2116548   1.672   7.171   6.791 -0.5199 -0.7912 -0.6840
  150SAPE   C2116549   1.574   7.108   6.855  0.4337  0.0484  0.8194
  150SAPE   O2216550   1.562   6.988   6.854  0.2859 -0.2062  0.0996
  150SAPE   C2216551   1.474   7.208   6.908  0.4165  0.2199  0.1993
  150SAPE   H2R16552   1.497   7.317   6.902 -1.0797  0.5906  0.7137
  150SAPE   H2S16553   1.392   7.190   6.835  2.6543  1.0504 -2.6913
  150SAPE    C316554   1.903   7.138   6.776 -0.0241  0.2276 -0.2375
  150SAPE    HX16555   1.944   7.235   6.741  2.0591 -0.4237  0.2724
  150SAPE    HY16556   1.971   7.072   6.719  0.4325  0.5246 -0.0379
  150SAPE   O3116557   1.929   7.122   6.920  0.2004 -0.3277  0.5690
  150SAPE   C3116558   1.965   6.996   6.959  1.2567  0.2424 -0.0701
  150SAPE   O3216559   1.956   6.894   6.891 -0.5171 -0.8566  0.1419
  150SAPE   C3216560   2.000   7.003   7.108 -0.4961 -0.3771 -0.0559
  150SAPE   H2X16561   2.057   7.097   7.123  0.5392 -0.8796 -0.6552
  150SAPE   H2Y16562   2.071   6.920   7.133  0.4640  0.3396 -0.3475
  150SAPE   C2316563   1.426   7.177   7.053 -0.3609  0.4410 -0.2387
  150SAPE   H3R16564   1.417   7.067   7.068  1.5160  0.5542  2.5554
  150SAPE   H3S16565   1.324   7.221   7.058 -0.4164  0.2817  0.0453
  150SAPE   C2416566   1.515   7.225   7.173  0.3931 -0.0800 -0.8534
  150SAPE   H4R16567   1.619   7.201   7.145 -0.3955 -3.0346 -1.6420
  150SAPE   H4S16568   1.491   7.173   7.269  0.8830 -0.5397 -0.9797
  150SAPE   C2516569   1.504   7.375   7.189  0.0910  0.0838  0.0013
  150SAPE   H5R16570   1.537   7.443   7.109 -1.2066  0.6556 -0.0761
  150SAPE   C2616571   1.459   7.429   7.309  0.1151 -0.3541  0.1503
  150SAPE   H6R16572   1.444   7.538   7.318  0.6879 -0.0175 -2.2722
  150SAPE   C2716573   1.401   7.362   7.434 -0.0087 -0.2960 -0.0206
  150SAPE   H7R16574   1.336   7.281   7.394  0.6275  0.2199 -2.2088
  150SAPE   H7S16575   1.329   7.440   7.466 -1.4996 -0.9481 -1.5892
  150SAPE   C2816576   1.509   7.300   7.524  0.3620  0.2548  0.3221
  150SAPE   H8R16577   1.593   7.253   7.471 -0.0048 -1.0134  0.8464
  150SAPE   C2916578   1.517   7.320   7.658  0.3486 -0.0953 -0.7135
  150SAPE   H9R16579   1.590   7.264   7.718 -0.8580  0.8331  1.7658
  150SAPE  C21016580   1.418   7.408   7.728  0.0889  0.2747 -0.1516
  150SAPE  H10R16581   1.317   7.376   7.698 -0.8713  0.6365  2.4020
  150SAPE  H10S16582   1.435   7.515   7.704  1.1059  0.1774  0.0438
  150SAPE  C21116583   1.430   7.393   7.875 -0.0015 -0.7711 -0.1015
  150SAPE  H11R16584   1.430   7.290   7.915  1.5390 -0.2381  1.4121
  150SAPE  C21216585   1.446   7.494   7.969 -0.1287  0.3386  0.1509
  150SAPE  H12R16586   1.457   7.453   8.071 -2.8299 -1.0875 -0.0421
  150SAPE  C21316587   1.450   7.641   7.960 -0.3337  0.4242  0.1659
  150SAPE  H13R16588   1.443   7.684   8.063 -0.6247 -1.6054  1.0295
  150SAPE  H13S16589   1.360   7.673   7.902 -0.1965 -1.9559 -1.4867
  150SAPE  C21416590   1.576   7.681   7.894 -0.0523 -0.1367  0.0670
  150SAPE  H14R16591   1.592   7.652   7.789  3.6892  0.2967  0.4046
  150SAPE  C21516592   1.669   7.757   7.953 -0.3328 -0.4261 -0.0509
  150SAPE  H15R16593   1.754   7.796   7.895 -0.3156 -1.1170 -0.4899
  150SAPE  C21616594   1.677   7.824   8.092 -0.0201  0.1215 -0.6085
  150SAPE  H16R16595   1.576   7.843   8.134 -0.5769 -0.9305 -1.4315
  150SAPE  H16S16596   1.742   7.914   8.085  1.2020 -0.7973 -1.5946
  150SAPE  C21716597   1.725   7.722   8.194  0.0310 -0.2897 -0.1892
  150SAPE  H17R16598   1.832   7.701   8.174  0.7980  1.4981  1.6415
  150SAPE  H17S16599   1.672   7.625   8.186 -0.4127 -0.0096 -0.6782
  150SAPE  C21816600   1.723   7.785   8.332  0.2710 -0.6767 -0.3827
  150SAPE  H18R16601   1.680   7.707   8.398 -0.7425  0.1324 -0.0588
  150SAPE  H18S16602   1.642   7.861   8.343  2.2960  1.4634  0.5571
  150SAPE  C21916603   1.854   7.846   8.389  0.0047  0.0439 -0.6926
  150SAPE  H19R16604   1.938   7.775   8.372  0.2263  0.0999  0.1022
  150SAPE  H19S16605   1.831   7.865   8.497  0.0346 -0.2205 -0.6381
  150SAPE  C22016606   1.899   7.978   8.327  0.5661 -0.5437 -0.2733
  150SAPE  H20R16607   1.891   7.981   8.216 -1.1589  4.3792 -0.2699
  150SAPE  H20S16608   1.997   8.002   8.372  0.3591 -2.5187  1.3729
  150SAPE  H20T16609   1.834   8.064   8.355 -1.2456 -1.7105 -0.7062
  150SAPE   C3316610   1.878   6.984   7.203  0.2374  0.1901 -0.4315
  150SAPE   H3X16611   1.851   6.876   7.210 -0.0147  0.1000 -2.2677
  150SAPE   H3Y16612   1.785   7.023   7.156 -2.1749 -1.4499  2.5727
  150SAPE   C3416613   1.906   7.047   7.341  0.1494 -0.4172 -0.1684
  150SAPE   H4X16614   2.010   7.020   7.369  0.3191  1.1080  0.7821
  150SAPE   H4Y16615   1.836   7.005   7.416  0.1186  0.9305  0.5952
  150SAPE   C3516616   1.895   7.203   7.344 -0.0379 -0.2055  0.0022
  150SAPE   H5X16617   1.797   7.228   7.299  0.9470  1.5136 -1.3194
  150SAPE   H5Y16618   1.973   7.224   7.267  0.9727 -1.8929  0.5130
  150SAPE   C3616619   1.914   7.286   7.477 -0.3464  0.2932 -0.6517
  150SAPE   H6X16620   2.015   7.262   7.518 -1.1596 -1.0583  0.6687
  150SAPE   H6Y16621   1.842   7.254   7.556 -0.4687  1.0469 -0.4542
  150SAPE   C3716622   1.887   7.432   7.451  0.8224 -0.5450  0.1698
  150SAPE   H7X16623   1.793   7.443   7.392  2.4095  2.6935 -2.0434
  150SAPE   H7Y16624   1.967   7.463   7.381  2.1032 -2.5512  0.6534
  150SAPE   C3816625   1.887   7.524   7.580 -0.8061 -1.1893  0.4487
  150SAPE   H8X16626   1.809   7.481   7.646 -1.5879  2.1857  1.9307
  150SAPE   H8Y16627   1.843   7.620   7.548  0.0144 -0.3995  1.6148
  150SAPE   C3916628   2.031   7.556   7.641  0.9263 -0.5725 -0.2327
  150SAPE   H9X16629   2.068   7.638   7.576 -0.2775 -0.1813 -0.4580
  150SAPE   H9Y16630   2.090   7.462   7.637  1.6918 -0.0723 -1.3796
  150SAPE  C31016631   2.005   7.615   7.781  0.1067  0.7746 -0.7933
  150SAPE  H10X16632   1.958   7.537   7.845  0.7332  1.3594  0.3964
  150SAPE  H10Y16633   1.925   7.692   7.772 -1.9829 -1.0485  0.9138
  150SAPE  C31116634   2.128   7.671   7.845  0.3549 -0.2958  0.6507
  150SAPE  H11X16635   2.187   7.727   7.769 -3.2765  1.7929 -0.8758
  150SAPE  H11Y16636   2.189   7.584   7.878 -1.1928 -1.1270  1.4315
  150SAPE  C31216637   2.091   7.765   7.959 -0.0172 -0.2945  0.1100
  150SAPE  H12X16638   2.000   7.727   8.009 -0.7037 -0.6663 -1.3882
  150SAPE  H12Y16639   2.066   7.866   7.919 -0.5149 -1.0045 -1.4166
  150SAPE  C31316640   2.204   7.776   8.056  0.4127 -0.0216  0.0026
  150SAPE  H13X16641   2.292   7.823   8.007 -0.8750  1.5235 -0.9517
  150SAPE  H13Y16642   2.229   7.672   8.085  2.2624  0.1230 -0.9599
  150SAPE  C31416643   2.162   7.856   8.174 -0.2629 -0.3491  0.3043
  150SAPE  H14X16644   2.082   7.802   8.230 -0.8370 -1.1610 -1.2296
  150SAPE  H14Y16645   2.114   7.950   8.139  0.4380 -1.0874 -2.9581
  150SAPE  C31516646   2.278   7.878   8.270  0.1680  0.3003 -0.1345
  150SAPE  H15X16647   2.345   7.790   8.274  0.4220  0.4419 -1.0841
  150SAPE  H15Y16648   2.230   7.882   8.371 -2.1628 -0.2120 -1.1527
  150SAPE  C31616649   2.350   8.017   8.255 -0.1292  0.5374  0.1764
  150SAPE  H16X16650   2.273   8.098   8.256 -1.0022 -0.2141 -1.9045
  150SAPE  H16Y16651   2.378   8.033   8.149 -0.7213  0.1609 -0.0398
  150SAPE  C31716652   2.463   8.037   8.353 -0.6034  0.9081 -0.3115
  150SAPE  H17X16653   2.555   8.030   8.291 -0.6656 -3.1246 -0.2486
  150SAPE  H17Y16654   2.483   7.960   8.431  0.8593  0.3901 -1.1584
  150SAPE  C31816655   2.458   8.170   8.422 -0.8307 -0.1463 -0.3678
  150SAPE  H18X16656   2.361   8.189   8.474  0.3041  1.9758  1.1539
  150SAPE  H18Y16657   2.466   8.260   8.357  1.9363  0.7904  1.1101
  150SAPE  H18Z16658   2.538   8.184   8.497  1.1600  2.5067 -2.7571
  151SAPE     N16659   4.782   5.720   6.411 -0.0888 -0.0329 -0.2284
  151SAPE   HN116660   4.790   5.618   6.393 -0.2647 -0.5130  2.0403
  151SAPE   HN216661   4.772   5.733   6.514  1.2294 -3.3009  0.4501
  151SAPE   HN316662   4.690   5.734   6.364 -1.3530 -0.5881  1.9161
  151SAPE   C1216663   4.895   5.788   6.343 -0.4795  0.2094 -0.2446
  151SAPE  H12A16664   4.877   5.891   6.381  0.5163  0.3549 -0.1313
  151SAPE  H12B16665   4.880   5.784   6.233 -0.9961  0.2069 -0.1764
  151SAPE   C1116666   5.033   5.718   6.369  0.5549 -0.3829 -0.3230
  151SAPE  H11A16667   5.057   5.706   6.476 -0.7035 -1.0947 -0.1031
  151SAPE  H11B16668   5.106   5.790   6.326 -0.3596  0.3988 -0.5890
  151SAPE     P16669   4.972   5.462   6.341  0.0216 -0.0358 -0.4452
  151SAPE   O1316670   4.829   5.473   6.300  0.2750  0.2701  0.0760
  151SAPE   O1416671   5.050   5.347   6.294 -0.2628  0.0280  0.0544
  151SAPE   O1216672   5.048   5.591   6.297 -0.2986  0.3061 -0.2200
  151SAPE   O1116673   4.967   5.465   6.498 -0.0832  0.1496  0.2355
  151SAPE    C116674   5.070   5.415   6.584  0.0526 -0.2695 -0.2103
  151SAPE    HA16675   5.168   5.438   6.539 -0.3087 -1.6377 -1.7804
  151SAPE    HB16676   5.068   5.471   6.680  3.5545 -1.5014  0.7146
  151SAPE    C216677   5.045   5.263   6.597  0.1881  0.8446 -0.2512
  151SAPE    HS16678   4.992   5.225   6.507 -0.6846 -0.4997  0.7921
  151SAPE   O2116679   4.967   5.243   6.715 -0.7304  0.3462  0.3590
  151SAPE   C2116680   4.900   5.121   6.723 -0.3048 -0.0506 -0.0969
  151SAPE   O2216681   4.890   5.040   6.635  0.2210 -0.1797 -0.3959
  151SAPE   C2216682   4.809   5.117   6.848 -0.2556 -0.3216  0.8468
  151SAPE   H2R16683   4.871   5.089   6.936  0.5626 -0.6345  0.1756
  151SAPE   H2S16684   4.773   5.221   6.865 -0.7777 -0.1884 -0.8724
  151SAPE    C316685   5.176   5.183   6.614 -0.2775 -0.4866  0.3861
  151SAPE    HX16686   5.256   5.218   6.546  0.2162 -1.9945  0.1512
  151SAPE    HY16687   5.157   5.075   6.593 -0.6016 -0.1836 -0.9060
  151SAPE   O3116688   5.234   5.212   6.745  0.2137  0.4139  0.3788
  151SAPE   C3116689   5.218   5.116   6.837 -0.3851  0.0273 -0.3155
  151SAPE   O3216690   5.161   5.012   6.820 -0.3450  0.4697 -0.3846
  151SAPE   C3216691   5.297   5.152   6.973  0.0105  0.4009 -0.3385
  151SAPE   H2X16692   5.397   5.185   6.938 -0.4202  1.4497 -0.6149
  151SAPE   H2Y16693   5.315   5.059   7.031 -1.5984 -0.2107 -0.7733
  151SAPE   C2316694   4.685   5.013   6.853 -0.3719 -1.0739  0.3281
  151SAPE   H3R16695   4.735   4.915   6.844  1.3959 -0.0409 -2.3840
  151SAPE   H3S16696   4.609   5.024   6.773 -0.0028 -1.0278 -0.0193
  151SAPE   C2416697   4.624   4.999   6.995 -0.0280 -0.4820  0.0132
  151SAPE   H4R16698   4.714   4.977   7.057  0.4171  1.4114  0.0873
  151SAPE   H4S16699   4.561   4.909   7.010 -0.1106  0.1604  5.4840
  151SAPE   C2516700   4.546   5.120   7.040 -0.3237  1.0294 -0.2731
  151SAPE   H5R16701   4.497   5.169   6.954 -0.9973 -1.3283 -1.3184
  151SAPE   C2616702   4.522   5.172   7.161  0.0626 -0.4208 -0.2410
  151SAPE   H6R16703   4.451   5.255   7.171 -1.2407 -1.3771 -1.1875
  151SAPE   C2716704   4.575   5.108   7.289  0.0505 -0.0218  0.1663
  151SAPE   H7R16705   4.679   5.072   7.273  0.0024  0.1277 -0.5480
  151SAPE   H7S16706   4.512   5.025   7.327  1.2890  0.2090  2.8805
  151SAPE   C2816707   4.594   5.214   7.398 -0.0447  0.3217  0.8884
  151SAPE   H8R16708   4.672   5.282   7.357 -0.7884 -0.4603 -2.0749
  151SAPE   C2916709   4.554   5.229   7.526  0.3517  0.1734 -0.3444
  151SAPE   H9R16710   4.579   5.307   7.599 -1.5463  0.2390  0.3045
  151SAPE  C21016711   4.465   5.132   7.597  0.2319 -0.5501 -0.1746
  151SAPE  H10R16712   4.468   5.145   7.707 -2.3371 -1.1861  0.0376
  151SAPE  H10S16713   4.497   5.027   7.580  0.5044 -0.6806  1.0569
  151SAPE  C21116714   4.328   5.142   7.549  1.2837 -0.6481 -0.3670
  151SAPE  H11R16715   4.314   5.105   7.447 -0.2000 -0.1250 -0.3834
  151SAPE  C21216716   4.224   5.202   7.612 -0.1921  0.1681  0.0717
  151SAPE  H12R16717   4.123   5.209   7.570 -0.4992  2.0197  1.0009
  151SAPE  C21316718   4.230   5.266   7.745  0.3317 -0.1315  0.5951
  151SAPE  H13R16719   4.183   5.367   7.745 -0.8241 -0.5407 -2.9481
  151SAPE  H13S16720   4.332   5.299   7.772  0.1040  0.4577  0.7552
  151SAPE  C21416721   4.177   5.184   7.863  0.0088  0.0051 -0.5372
  151SAPE  H14R16722   4.070   5.158   7.856 -0.1183  0.1758  0.5556
  151SAPE  C21516723   4.245   5.140   7.974  0.5293 -0.1679  0.1277
  151SAPE  H15R16724   4.197   5.075   8.049  1.0139 -1.6998 -0.8310
  151SAPE  C21616725   4.379   5.174   8.016 -0.8521 -0.6794 -0.0459
  151SAPE  H16R16726   4.411   5.251   7.943 -3.2544 -0.1292 -0.5806
  151SAPE  H16S16727   4.447   5.085   8.013  0.7928  0.5082  0.7015
  151SAPE  C21716728   4.377   5.229   8.155  0.1362 -0.4775 -0.5812
  151SAPE  H17R16729   4.291   5.295   8.176  0.6132 -0.0597  0.0961
  151SAPE  H17S16730   4.467   5.294   8.166 -0.1893 -0.2880  1.5190
  151SAPE  C21816731   4.368   5.119   8.266 -0.2124  0.6018  0.4368
  151SAPE  H18R16732   4.448   5.050   8.234  1.5586  1.7470  2.1624
  151SAPE  H18S16733   4.267   5.073   8.263 -0.0692  0.2327  1.2111
  151SAPE  C21916734   4.395   5.167   8.413  0.0673 -1.1329  0.2612
  151SAPE  H19R16735   4.348   5.265   8.435 -0.4273 -1.6110  1.3821
  151SAPE  H19S16736   4.504   5.182   8.428 -0.0328 -0.3118  0.1880
  151SAPE  C22016737   4.340   5.066   8.514  0.3524  0.2104 -0.0141
  151SAPE  H20R16738   4.330   5.108   8.616  0.5361  0.9605 -0.2931
  151SAPE  H20S16739   4.240   5.040   8.474 -0.1862 -2.0938  2.5863
  151SAPE  H20T16740   4.395   4.970   8.508  0.6458  0.4308 -1.1996
  151SAPE   C3316741   5.234   5.253   7.064  0.5587 -0.7054 -0.2304
  151SAPE   H3X16742   5.214   5.342   7.001  0.6539 -0.0532  0.6489
  151SAPE   H3Y16743   5.296   5.297   7.145  0.3656  0.3524 -0.6476
  151SAPE   C3416744   5.107   5.211   7.141  0.0846 -0.0582 -0.5139
  151SAPE   H4X16745   5.075   5.115   7.095 -2.5769 -0.3735  1.7126
  151SAPE   H4Y16746   5.015   5.272   7.134 -0.4304 -0.8522 -0.7540
  151SAPE   C3516747   5.134   5.187   7.298 -0.3053 -0.5362 -0.1206
  151SAPE   H5X16748   5.165   5.282   7.345 -0.8149  0.0745 -0.9877
  151SAPE   H5Y16749   5.207   5.103   7.306 -0.3147 -0.5640 -0.3007
  151SAPE   C3616750   5.006   5.124   7.363  0.2133 -0.4096 -0.0940
  151SAPE   H6X16751   4.973   5.047   7.290  2.8593 -0.6641 -1.1569
  151SAPE   H6Y16752   4.943   5.215   7.367  1.4325  0.4311  2.5329
  151SAPE   C3716753   5.020   5.070   7.506 -0.0663 -0.5614 -0.3495
  151SAPE   H7X16754   5.071   5.137   7.578 -0.5439 -0.1183 -0.4168
  151SAPE   H7Y16755   5.070   4.971   7.501  1.1720  0.1028 -2.4797
  151SAPE   C3816756   4.874   5.041   7.560  0.0237  0.1474 -0.1407
  151SAPE   H8X16757   4.816   4.985   7.484 -0.5663  2.4466 -1.4459
  151SAPE   H8Y16758   4.818   5.136   7.569 -1.7757 -0.8754 -0.0920
  151SAPE   C3916759   4.879   4.978   7.703 -0.6183 -0.1159 -0.6355
  151SAPE   H9X16760   4.910   5.057   7.774 -2.2239 -1.0890  1.2585
  151SAPE   H9Y16761   4.952   4.895   7.714 -0.5397  0.0423  0.0627
  151SAPE  C31016762   4.745   4.912   7.749 -0.5897 -0.3563 -0.2584
  151SAPE  H10X16763   4.729   4.828   7.678 -0.7693 -1.4226  0.9974
  151SAPE  H10Y16764   4.663   4.986   7.760  1.2602  1.7839 -0.2073
  151SAPE  C31116765   4.757   4.847   7.889 -0.5242  0.0077  0.0525
  151SAPE  H11X16766   4.850   4.787   7.902 -1.5490 -1.3618  1.4825
  151SAPE  H11Y16767   4.681   4.767   7.891 -0.1491 -0.3571 -0.0862
  151SAPE  C31216768   4.742   4.947   8.004  0.0367  0.2804  0.3194
  151SAPE  H12X16769   4.647   4.998   7.979 -0.1635  0.1398  0.7839
  151SAPE  H12Y16770   4.823   5.023   7.990 -0.6584  0.5397 -3.2758
  151SAPE  C31316771   4.729   4.875   8.138 -0.1422  0.6858 -0.0298
  151SAPE  H13X16772   4.655   4.792   8.138 -0.6249  1.1124 -0.0350
  151SAPE  H13Y16773   4.704   4.948   8.218  3.9717  0.9914  1.2077
  151SAPE  C31416774   4.866   4.833   8.189 -0.3624 -1.1234  0.0326
  151SAPE  H14X16775   4.927   4.788   8.108  0.2192  1.5817 -1.1676
  151SAPE  H14Y16776   4.838   4.761   8.269 -3.8112  1.3481  1.3104
  151SAPE  C31516777   4.952   4.949   8.247  0.3745  0.1525 -1.1119
  151SAPE  H15X16778   4.911   4.975   8.347  0.3155  0.9465 -1.3339
  151SAPE  H15Y16779   4.948   5.039   8.182 -3.0472  0.1065 -1.1750
  151SAPE  C31616780   5.096   4.911   8.278  0.7673 -0.6950 -0.0530
  151SAPE  H16X16781   5.135   4.999   8.333 -0.2258  0.5233 -1.2078
  151SAPE  H16Y16782   5.151   4.909   8.182 -0.5877 -1.3270 -0.8580
  151SAPE  C31716783   5.121   4.780   8.352  0.3529 -0.1675 -0.2062
  151SAPE  H17X16784   5.097   4.690   8.292  2.0258 -0.8852  0.1408
  151SAPE  H17Y16785   5.069   4.774   8.450  1.6060  0.0019  0.4891
  151SAPE  C31816786   5.270   4.772   8.377  0.4832 -0.2026 -0.0470
  151SAPE  H18X16787   5.331   4.723   8.298  0.4681 -0.1446 -0.0954
  151SAPE  H18Y16788   5.289   4.717   8.471  0.0255 -0.1621  0.0673
  151SAPE  H18Z16789   5.306   4.877   8.390  2.5031 -0.6711 -1.2972
  152SAPE     N16790   1.115   2.148   5.784 -0.1543 -0.3882 -0.1213
  152SAPE   HN116791   1.138   2.072   5.852  1.2065  1.2956  1.4015
  152SAPE   HN216792   1.179   2.140   5.702  1.1774  0.8774  0.7634
  152SAPE   HN316793   1.146   2.233   5.834  1.8185 -1.9555  1.5501
  152SAPE   C1216794   0.970   2.136   5.751 -0.2073 -0.4763  0.6653
  152SAPE  H12A16795   0.956   2.066   5.666 -1.7544 -1.3190  1.5795
  152SAPE  H12B16796   0.946   2.240   5.719  2.0376  0.1738  0.9209
  152SAPE   C1116797   0.892   2.083   5.870  0.1065 -0.5002 -0.5731
  152SAPE  H11A16798   0.931   1.980   5.883 -0.3817 -0.6312 -0.1425
  152SAPE  H11B16799   0.783   2.089   5.850  0.1233 -0.2019 -0.5740
  152SAPE     P16800   0.843   2.145   6.119 -0.2361 -0.4624 -0.2092
  152SAPE   O1316801   0.916   2.218   6.221 -0.1270 -0.3067 -0.0433
  152SAPE   O1416802   0.704   2.181   6.094 -0.1225  0.1596 -0.3111
  152SAPE   O1216803   0.922   2.156   5.983  0.0373 -0.1540  0.4891
  152SAPE   O1116804   0.844   1.994   6.158  0.3057 -0.5848 -0.4146
  152SAPE    C116805   0.954   1.909   6.155  0.0666 -0.4702  0.1455
  152SAPE    HA16806   0.945   1.848   6.063 -0.9254 -0.9285  0.5318
  152SAPE    HB16807   1.048   1.967   6.138  0.3215 -1.0729 -0.5364
  152SAPE    C216808   0.935   1.817   6.284 -0.2529 -0.4348  0.6444
  152SAPE    HS16809   0.839   1.762   6.283 -0.2028 -0.5222  0.5509
  152SAPE   O2116810   0.948   1.897   6.402  0.0244  0.7999  0.1446
  152SAPE   C2116811   0.838   1.948   6.449  0.1673  0.1012  0.4269
  152SAPE   O2216812   0.729   1.942   6.393 -0.0545 -0.1866 -0.3703
  152SAPE   C2216813   0.854   2.017   6.581  0.5884 -0.2969 -0.4622
  152SAPE   H2R16814   0.959   2.031   6.615  0.6692 -0.9513 -0.4302
  152SAPE   H2S16815   0.819   2.118   6.551  2.6780  0.0610 -2.0045
  152SAPE    C316816   1.042   1.706   6.288  0.6504  1.1465  0.5055
  152SAPE    HX16817   1.138   1.756   6.264  2.5807 -2.1039  0.7542
  152SAPE    HY16818   1.010   1.641   6.204  1.8661  0.9771  0.1656
  152SAPE   O3116819   1.047   1.623   6.416  0.8833 -0.2650 -0.1188
  152SAPE   C3116820   1.114   1.676   6.511 -0.1335 -0.0567 -0.6531
  152SAPE   O3216821   1.181   1.782   6.519 -0.4133 -0.1549  0.1384
  152SAPE   C3216822   1.094   1.588   6.635  0.4874 -0.1099  0.2112
  152SAPE   H2X16823   1.193   1.541   6.652  0.4524  0.4988  2.3750
  152SAPE   H2Y16824   1.018   1.508   6.620  0.9620 -0.2679 -1.6519
  152SAPE   C2316825   0.785   1.949   6.703  0.1032  0.4470 -0.0955
  152SAPE   H3R16826   0.833   1.850   6.722 -2.0991 -0.6214  0.1302
  152SAPE   H3S16827   0.679   1.920   6.687  0.2311 -2.8265  3.5606
  152SAPE   C2416828   0.783   2.027   6.830 -0.0286 -0.6949 -0.6961
  152SAPE   H4R16829   0.735   1.958   6.903 -0.8109 -0.1757 -0.6943
  152SAPE   H4S16830   0.713   2.113   6.816  0.7255  0.1252  0.4258
  152SAPE   C2516831   0.912   2.089   6.878 -0.0629 -0.4109  0.1799
  152SAPE   H5R16832   0.952   2.159   6.803 -0.9712 -0.5376 -0.4493
  152SAPE   C2616833   0.976   2.082   6.995  0.4323 -0.3620 -0.2377
  152SAPE   H6R16834   1.060   2.153   6.998 -1.4267  1.9899 -0.4630
  152SAPE   C2716835   0.935   2.002   7.119  0.0284 -0.4694  0.0676
  152SAPE   H7R16836   1.020   1.947   7.165 -0.6595 -0.6127  1.1900
  152SAPE   H7S16837   0.860   1.926   7.091 -0.5098  0.0023  0.2150
  152SAPE   C2816838   0.873   2.103   7.214 -0.9417 -0.6607  0.2574
  152SAPE   H8R16839   0.816   2.179   7.159  0.1115  0.3784  0.5750
  152SAPE   C2916840   0.881   2.108   7.347  1.0542  0.5053 -0.4181
  152SAPE   H9R16841   0.826   2.190   7.395  2.7893  1.1681  0.5187
  152SAPE  C21016842   0.949   2.018   7.442  0.3921  0.0206  0.3507
  152SAPE  H10R16843   1.047   2.061   7.474  1.6364 -2.2858 -0.1512
  152SAPE  H10S16844   0.971   1.932   7.377  1.7513 -0.0565  0.8751
  152SAPE  C21116845   0.870   1.986   7.559 -0.5818 -0.0315 -0.1944
  152SAPE  H11R16846   0.803   1.900   7.543  1.8999 -1.9303 -1.0291
  152SAPE  C21216847   0.873   2.044   7.680  0.6921  0.2635  0.2687
  152SAPE  H12R16848   0.800   2.021   7.760  1.3717  0.1772  0.8700
  152SAPE  C21316849   0.973   2.155   7.718 -0.0990 -0.1571  0.5254
  152SAPE  H13R16850   0.915   2.221   7.786  1.1090 -0.7922  2.2283
  152SAPE  H13S16851   1.002   2.213   7.627 -0.6052  0.2908  0.6456
  152SAPE  C21416852   1.108   2.102   7.768  0.4381 -0.1874  0.6560
  152SAPE  H14R16853   1.176   2.090   7.682 -0.3654  0.4578 -0.0937
  152SAPE  C21516854   1.148   2.098   7.894 -0.4210 -0.1375  0.1885
  152SAPE  H15R16855   1.253   2.069   7.899 -0.4742 -1.3121 -2.9792
  152SAPE  C21616856   1.075   2.125   8.025 -0.6181  0.3009  0.4580
  152SAPE  H16R16857   1.130   2.068   8.103 -0.3988 -1.2686 -0.7938
  152SAPE  H16S16858   0.974   2.081   8.016 -0.3555 -0.3376  0.6069
  152SAPE  C21716859   1.065   2.276   8.067 -0.3242 -0.3840 -0.9404
  152SAPE  H17R16860   1.035   2.321   7.970 -1.2480 -1.4973 -1.1907
  152SAPE  H17S16861   1.171   2.302   8.087 -0.4256 -1.0557  0.5815
  152SAPE  C21816862   0.958   2.306   8.175 -0.2593 -0.0240 -0.2507
  152SAPE  H18R16863   0.877   2.238   8.144 -1.2321  1.2137 -0.5038
  152SAPE  H18S16864   0.925   2.412   8.169  1.5325  0.4957 -1.8473
  152SAPE  C21916865   0.994   2.276   8.320 -0.9642 -0.3666  0.4496
  152SAPE  H19R16866   1.019   2.168   8.329  4.8087  0.4105 -1.9168
  152SAPE  H19S16867   0.907   2.305   8.382 -0.4411  1.3177  0.4369
  152SAPE  C22016868   1.120   2.347   8.375 -0.3720  0.1044 -0.3051
  152SAPE  H20R16869   1.215   2.316   8.326  0.3073  2.6847 -0.7791
  152SAPE  H20S16870   1.130   2.309   8.478 -1.0879 -0.5043 -0.4519
  152SAPE  H20T16871   1.113   2.458   8.377  1.7575  0.2807  0.0461
  152SAPE   C3316872   1.067   1.662   6.772  0.2154 -0.5820 -0.8250
  152SAPE   H3X16873   0.958   1.654   6.794  0.2813 -1.6792 -0.8476
  152SAPE   H3Y16874   1.090   1.771   6.766 -0.1911 -0.4183  0.2772
  152SAPE   C3416875   1.154   1.605   6.892 -0.4435 -0.1123 -0.6032
  152SAPE   H4X16876   1.263   1.627   6.886  0.1223 -2.2677  0.5752
  152SAPE   H4Y16877   1.150   1.494   6.895  2.6117 -0.3165 -0.4383
  152SAPE   C3516878   1.098   1.664   7.020  1.0318  0.0932  0.5483
  152SAPE   H5X16879   0.989   1.644   7.025  1.1404 -1.2803 -1.3840
  152SAPE   H5Y16880   1.112   1.774   7.020 -0.7064  0.3292  0.3354
  152SAPE   C3616881   1.173   1.594   7.136  0.3926  0.1888 -0.0348
  152SAPE   H6X16882   1.280   1.626   7.133  0.1738  0.8810 -0.5795
  152SAPE   H6Y16883   1.168   1.484   7.116 -0.1852  0.3829 -0.9897
  152SAPE   C3716884   1.112   1.625   7.273  0.3587  0.0551 -0.6241
  152SAPE   H7X16885   1.012   1.577   7.266 -0.0596  0.8096  0.0391
  152SAPE   H7Y16886   1.084   1.733   7.273  0.8547  0.1845 -0.6628
  152SAPE   C3816887   1.192   1.593   7.398  0.1977 -0.7752  0.0838
  152SAPE   H8X16888   1.282   1.659   7.404 -1.1299  0.9774  1.9750
  152SAPE   H8Y16889   1.241   1.493   7.392 -0.7650 -1.3719  1.4870
  152SAPE   C3916890   1.124   1.640   7.521  0.5783 -0.1293 -0.9663
  152SAPE   H9X16891   1.030   1.579   7.524  0.0106  0.7028 -1.4748
  152SAPE   H9Y16892   1.090   1.745   7.526 -0.6861 -0.5837  1.3583
  152SAPE  C31016893   1.201   1.623   7.655 -0.3685 -0.0715 -0.7922
  152SAPE  H10X16894   1.309   1.647   7.641  0.5739 -2.7546  0.9130
  152SAPE  H10Y16895   1.203   1.521   7.701  0.2196  1.0330  1.8110
  152SAPE  C31116896   1.145   1.713   7.769  1.0953  0.5266  0.9531
  152SAPE  H11X16897   1.037   1.688   7.776  1.0225  0.7106  0.5375
  152SAPE  H11Y16898   1.144   1.817   7.729 -0.1655  1.5657  3.4652
  152SAPE  C31216899   1.218   1.686   7.898 -0.0379  0.0986 -1.0299
  152SAPE  H12X16900   1.326   1.704   7.881  0.0668 -1.1469 -1.8314
  152SAPE  H12Y16901   1.211   1.579   7.927  0.4932  0.6406  1.2921
  152SAPE  C31316902   1.155   1.762   8.012  0.4792 -0.5453 -0.6720
  152SAPE  H13X16903   1.056   1.792   7.969 -0.0920 -3.4170 -1.5755
  152SAPE  H13Y16904   1.210   1.858   8.018 -0.9631  0.3444 -1.1662
  152SAPE  C31416905   1.126   1.687   8.148 -0.1118 -0.4542  0.4254
  152SAPE  H14X16906   1.224   1.646   8.182  0.7269  1.2773  0.2356
  152SAPE  H14Y16907   1.060   1.603   8.120 -3.1628  1.0749  2.4650
  152SAPE  C31516908   1.062   1.785   8.246  0.4726 -0.0372  0.2747
  152SAPE  H15X16909   0.968   1.828   8.205 -0.8957 -1.0506  2.1962
  152SAPE  H15Y16910   1.137   1.865   8.267 -0.1581  0.7390 -0.3443
  152SAPE  C31616911   1.030   1.710   8.378  0.1342  0.5984  0.3616
  152SAPE  H16X16912   1.118   1.648   8.403 -0.0853  0.1227 -0.0126
  152SAPE  H16Y16913   0.957   1.629   8.354  0.4709  0.4627 -0.2435
  152SAPE  C31716914   0.983   1.801   8.491 -0.3386  0.5241 -0.8640
  152SAPE  H17X16915   0.936   1.746   8.575  0.6193  0.5760 -0.2821
  152SAPE  H17Y16916   0.905   1.864   8.442  1.2334  3.1597 -0.2124
  152SAPE  C31816917   1.084   1.892   8.548  0.6820 -0.3340 -0.3812
  152SAPE  H18X16918   1.042   1.962   8.623 -0.0000  0.4407 -1.4563
  152SAPE  H18Y16919   1.116   1.963   8.469  0.7404  0.8108  0.6489
  152SAPE  H18Z16920   1.176   1.844   8.588  1.2310 -0.7742 -2.0815
  153SAPE     N16921   4.602   2.385   6.045  0.5398 -0.2064 -0.2709
  153SAPE   HN116922   4.580   2.285   6.025 -0.9387  0.5205 -2.5567
  153SAPE   HN216923   4.619   2.436   5.956 -0.6429 -2.2408 -1.7724
  153SAPE   HN316924   4.685   2.402   6.105 -0.6823  2.5660  0.7716
  153SAPE   C1216925   4.481   2.456   6.104  0.0520 -0.2084  1.3063
  153SAPE  H12A16926   4.432   2.507   6.018  0.0202 -1.0081  0.8333
  153SAPE  H12B16927   4.519   2.538   6.168 -0.8362  0.7490  0.6393
  153SAPE   C1116928   4.383   2.372   6.181  0.9352 -0.4425  0.1335
  153SAPE  H11A16929   4.327   2.298   6.120  1.2291 -1.0268  0.5738
  153SAPE  H11B16930   4.316   2.453   6.217  1.7779 -0.5807  2.1493
  153SAPE     P16931   4.352   2.252   6.410  0.2288 -0.4737  0.2015
  153SAPE   O1316932   4.343   2.373   6.499  0.4012 -0.1976  0.3643
  153SAPE   O1416933   4.220   2.207   6.359 -0.1571 -0.0085 -0.0542
  153SAPE   O1216934   4.440   2.298   6.285 -0.1900  0.1232 -0.1419
  153SAPE   O1116935   4.427   2.128   6.477  0.1511 -0.1718 -0.0975
  153SAPE    C116936   4.564   2.105   6.450  0.1532  0.3022  0.9112
  153SAPE    HA16937   4.557   1.998   6.424 -1.1155  0.7776 -0.8905
  153SAPE    HB16938   4.608   2.156   6.362 -1.7158  0.1064 -0.1861
  153SAPE    C216939   4.659   2.139   6.570  0.0510 -0.6963  0.1565
  153SAPE    HS16940   4.757   2.101   6.533  0.2868  1.2827 -1.4535
  153SAPE   O2116941   4.620   2.077   6.688  0.4995  0.1870  0.4617
  153SAPE   C2116942   4.627   1.944   6.696 -0.1178 -0.0637  0.0734
  153SAPE   O2216943   4.675   1.865   6.618  0.0352  0.4689  0.0053
  153SAPE   C2216944   4.599   1.913   6.847  0.2352 -0.1691  0.5093
  153SAPE   H2R16945   4.642   1.816   6.879 -4.3038 -1.9492  2.0376
  153SAPE   H2S16946   4.663   1.991   6.892  1.4012  0.0648 -1.4191
  153SAPE    C316947   4.670   2.294   6.587 -0.3508  0.0028  0.1161
  153SAPE    HX16948   4.565   2.325   6.605 -1.6820 -2.9312 -1.7427
  153SAPE    HY16949   4.705   2.334   6.489  0.2476 -1.2242 -0.1921
  153SAPE   O3116950   4.771   2.316   6.684  0.3037 -0.4462 -0.0596
  153SAPE   C3116951   4.734   2.374   6.796  0.4725 -0.0132 -0.1895
  153SAPE   O3216952   4.622   2.429   6.807 -0.0678 -0.1155  0.1558
  153SAPE   C3216953   4.839   2.372   6.897  0.5012  0.1308 -0.2537
  153SAPE   H2X16954   4.931   2.424   6.862  0.4782  0.2975 -0.0739
  153SAPE   H2Y16955   4.870   2.267   6.912  1.2431  0.4113  0.2298
  153SAPE   C2316956   4.459   1.911   6.911 -0.0192  0.1394 -0.2144
  153SAPE   H3R16957   4.406   1.814   6.896  2.0507 -1.8656  3.9401
  153SAPE   H3S16958   4.400   1.994   6.865 -0.7675 -0.9431 -1.2634
  153SAPE   C2416959   4.460   1.951   7.056  0.4067 -0.1767  0.8125
  153SAPE   H4R16960   4.364   1.996   7.088 -0.9600 -1.9204 -0.6266
  153SAPE   H4S16961   4.533   2.034   7.066 -0.7266  0.9633 -0.0062
  153SAPE   C2516962   4.495   1.835   7.140 -0.2451 -0.5663  0.0886
  153SAPE   H5R16963   4.451   1.737   7.114 -1.3050 -0.3675  1.0416
  153SAPE   C2616964   4.565   1.841   7.255  0.0585 -0.1871  0.3109
  153SAPE   H6R16965   4.587   1.745   7.303  2.0333 -0.9270 -1.9007
  153SAPE   C2716966   4.634   1.961   7.314  0.5620 -0.0647 -0.1114
  153SAPE   H7R16967   4.653   2.033   7.232  1.5880 -0.8499 -0.5836
  153SAPE   H7S16968   4.735   1.929   7.346 -0.0198 -0.9790  0.9013
  153SAPE   C2816969   4.581   2.035   7.433 -0.4804  0.4435 -0.2601
  153SAPE   H8R16970   4.553   2.141   7.418 -3.2321 -0.1677 -0.0089
  153SAPE   C2916971   4.555   1.977   7.556 -0.1199 -0.0125 -0.1577
  153SAPE   H9R16972   4.515   2.044   7.633  0.5151 -1.9017  1.9138
  153SAPE  C21016973   4.569   1.836   7.599 -0.0494  0.1775  0.2472
  153SAPE  H10R16974   4.606   1.826   7.703  3.6408 -1.4038 -1.0260
  153SAPE  H10S16975   4.640   1.778   7.536 -1.5779  0.7186 -2.0858
  153SAPE  C21116976   4.427   1.783   7.583  0.6484 -0.4005  0.0815
  153SAPE  H11R16977   4.374   1.800   7.488 -0.2693  0.8933  0.7856
  153SAPE  C21216978   4.358   1.711   7.674  0.3793 -1.1480 -0.1798
  153SAPE  H12R16979   4.262   1.666   7.643 -0.5362 -0.4686  1.5639
  153SAPE  C21316980   4.407   1.672   7.815  0.7385 -0.3605  0.5456
  153SAPE  H13R16981   4.514   1.698   7.830  0.5762 -0.0244  1.1411
  153SAPE  H13S16982   4.416   1.563   7.834  0.8638 -0.3797  0.3850
  153SAPE  C21416983   4.337   1.737   7.926  0.2415 -0.2300 -0.2722
  153SAPE  H14R16984   4.287   1.834   7.914 -0.6725 -0.2872  2.4587
  153SAPE  C21516985   4.349   1.709   8.055 -0.0346  0.5120  0.5873
  153SAPE  H15R16986   4.310   1.780   8.130 -0.1415 -0.8522  1.8535
  153SAPE  C21616987   4.433   1.602   8.114  0.0565  0.3592 -0.2569
  153SAPE  H16R16988   4.507   1.648   8.183  0.5429 -0.3768 -0.2811
  153SAPE  H16S16989   4.497   1.568   8.029 -0.9554 -1.7144 -0.2354
  153SAPE  C21716990   4.371   1.480   8.180 -0.8667 -0.0525  0.5328
  153SAPE  H17R16991   4.318   1.416   8.106  1.7524 -0.4236 -1.1214
  153SAPE  H17S16992   4.293   1.518   8.250 -1.9642  1.0436 -1.2220
  153SAPE  C21816993   4.482   1.391   8.248 -0.4152  0.2466 -0.5190
  153SAPE  H18R16994   4.421   1.303   8.280 -0.8395 -0.2835 -2.6406
  153SAPE  H18S16995   4.513   1.448   8.338  2.3558 -0.2247 -1.0740
  153SAPE  C21916996   4.606   1.362   8.166  1.0266  0.0109  0.3709
  153SAPE  H19R16997   4.655   1.460   8.145 -1.8374  1.9473  2.0217
  153SAPE  H19S16998   4.570   1.323   8.068  1.2905 -0.3518  0.4196
  153SAPE  C22016999   4.710   1.267   8.219 -0.5330  0.1040  0.3183
  153SAPE  H20R17000   4.801   1.278   8.155 -1.2189  0.3692 -0.6443
  153SAPE  H20S17001   4.679   1.161   8.219  0.8969 -0.3454  1.8044
  153SAPE  H20T17002   4.733   1.282   8.326 -0.2912  2.2584  0.0137
  153SAPE   C3317003   4.789   2.412   7.039  0.3876  0.0823 -0.0044
  153SAPE   H3X17004   4.683   2.380   7.052  1.0621 -1.8960  0.9930
  153SAPE   H3Y17005   4.784   2.522   7.050 -0.4466  0.0846 -0.3195
  153SAPE   C3417006   4.871   2.345   7.149 -0.0052 -0.2234  0.0900
  153SAPE   H4X17007   4.972   2.391   7.138  0.2298 -0.5566  0.7999
  153SAPE   H4Y17008   4.876   2.235   7.130 -0.5225 -0.1248 -0.6458
  153SAPE   C3517009   4.813   2.360   7.296 -0.0341 -0.0013  0.7499
  153SAPE   H5X17010   4.722   2.298   7.314  0.0568 -0.2198  0.4574
  153SAPE   H5Y17011   4.792   2.468   7.309 -0.4473 -0.0881  0.8363
  153SAPE   C3617012   4.931   2.323   7.389  0.0546 -0.0104 -0.7126
  153SAPE   H6X17013   5.018   2.391   7.378  0.2907  0.0060  1.0070
  153SAPE   H6Y17014   4.961   2.218   7.369  2.1665  0.3413  0.3138
  153SAPE   C3717015   4.879   2.351   7.533  0.0789 -0.0720  0.0709
  153SAPE   H7X17016   4.780   2.302   7.541 -0.1510  0.4189  0.3157
  153SAPE   H7Y17017   4.872   2.461   7.547  0.8502 -0.0243  0.1636
  153SAPE   C3817018   4.975   2.292   7.639 -0.1267  0.0383 -0.4559
  153SAPE   H8X17019   5.071   2.348   7.629 -0.3506  0.0960 -2.9248
  153SAPE   H8Y17020   4.999   2.189   7.606 -1.0318 -0.2653 -0.1964
  153SAPE   C3917021   4.914   2.291   7.780  0.3302  0.7067 -0.6399
  153SAPE   H9X17022   4.916   2.397   7.813  1.6951  0.7771 -0.9062
  153SAPE   H9Y17023   4.985   2.243   7.850  0.5448 -0.4505 -1.6138
  153SAPE  C31017024   4.779   2.216   7.788  0.1005  0.3056 -0.7875
  153SAPE  H10X17025   4.796   2.122   7.731 -1.1349  0.3270 -1.2128
  153SAPE  H10Y17026   4.708   2.289   7.743 -0.7230 -0.0805 -0.1351
  153SAPE  C31117027   4.746   2.169   7.935 -0.5267  0.5219 -0.3947
  153SAPE  H11X17028   4.784   2.250   8.001  1.4790 -2.3041  2.2411
  153SAPE  H11Y17029   4.804   2.076   7.955  1.2165  1.3147 -1.5277
  153SAPE  C31217030   4.600   2.143   7.970 -0.3508 -0.4741 -0.1245
  153SAPE  H12X17031   4.548   2.090   7.888  0.0563 -1.2108  0.0851
  153SAPE  H12Y17032   4.549   2.241   7.984 -2.9189 -1.5891 -1.1391
  153SAPE  C31317033   4.587   2.076   8.105  0.6380 -0.2520  0.1357
  153SAPE  H13X17034   4.649   1.984   8.111  0.7141 -0.3629 -1.7018
  153SAPE  H13Y17035   4.484   2.037   8.120  0.8013  0.1507  2.9525
  153SAPE  C31417036   4.614   2.173   8.222  0.4699  0.2242  0.1259
  153SAPE  H14X17037   4.538   2.254   8.228  1.8833  1.5898  0.3119
  153SAPE  H14Y17038   4.706   2.234   8.212  0.3080  0.3522 -0.6398
  153SAPE  C31517039   4.606   2.102   8.357 -0.2044 -0.3815 -0.1266
  153SAPE  H15X17040   4.694   2.036   8.377 -0.5061 -1.0531 -0.9379
  153SAPE  H15Y17041   4.526   2.026   8.360 -0.7529  0.2244  1.1903
  153SAPE  C31617042   4.608   2.210   8.470 -0.5738  0.3521  0.5391
  153SAPE  H16X17043   4.522   2.281   8.465 -1.2088 -0.4307  0.0754
  153SAPE  H16Y17044   4.697   2.273   8.448  0.0492  0.7090  3.6526
  153SAPE  C31717045   4.617   2.149   8.612  0.1465 -0.3715 -0.1009
  153SAPE  H17X17046   4.627   2.235   8.682  2.0396  0.1367 -0.9275
  153SAPE  H17Y17047   4.706   2.084   8.621  0.1709 -0.1436  1.5851
  153SAPE  C31817048   4.489   2.074   8.646 -0.1592  0.0496 -0.0103
  153SAPE  H18X17049   4.401   2.142   8.650 -0.2885  0.1420 -2.4985
  153SAPE  H18Y17050   4.507   2.028   8.745 -3.5757 -1.0318  0.2468
  153SAPE  H18Z17051   4.461   1.998   8.570  0.2962 -0.1455  0.0182
  154SAPE     N17052   5.201   0.952   6.162  0.1817  0.4511  0.1734
  154SAPE   HN117053   5.251   1.043   6.169 -0.6932  0.9856 -0.3538
  154SAPE   HN217054   5.163   0.925   6.254 -0.5562  0.3469 -0.1555
  154SAPE   HN317055   5.266   0.874   6.138  1.0739  0.3898  2.5577
  154SAPE   C1217056   5.091   0.984   6.067 -0.6385  0.1990  0.8697
  154SAPE  H12A17057   5.013   0.905   6.059 -0.6683  0.4325 -1.9005
  154SAPE  H12B17058   5.141   1.002   5.970  0.6829 -2.2058  1.0400
  154SAPE   C1117059   5.018   1.112   6.110  0.2778 -0.0702  0.0335
  154SAPE  H11A17060   4.964   1.089   6.204 -1.0290  0.0943 -0.6500
  154SAPE  H11B17061   4.940   1.143   6.037 -0.6879  0.3841  1.2268
  154SAPE     P17062   5.088   1.373   6.109 -0.0912  0.1821  0.1747
  154SAPE   O1317063   5.212   1.445   6.133  0.1806 -0.2457 -0.1395
  154SAPE   O1417064   5.025   1.397   5.979  0.6091  0.3826 -0.9717
  154SAPE   O1217065   5.118   1.219   6.116 -0.3751  0.1132  0.1122
  154SAPE   O1117066   4.984   1.399   6.225 -0.2218  0.0398 -0.0918
  154SAPE    C117067   4.983   1.538   6.265 -0.2391  0.3749  0.1201
  154SAPE    HA17068   5.081   1.571   6.306  0.1987  0.0578 -0.6511
  154SAPE    HB17069   4.953   1.606   6.182 -0.2324  0.6962  0.3762
  154SAPE    C217070   4.881   1.570   6.375  0.1779  0.4072  0.4079
  154SAPE    HS17071   4.873   1.677   6.404  0.0421  0.4916  0.0613
  154SAPE   O2117072   4.903   1.492   6.493  0.2195  0.1852 -0.1448
  154SAPE   C2117073   5.015   1.525   6.561 -0.1508  0.7710 -0.4480
  154SAPE   O2217074   5.091   1.616   6.540 -0.2207 -0.2996 -1.0050
  154SAPE   C2217075   5.020   1.435   6.681  0.8199 -0.6181  0.1412
  154SAPE   H2R17076   4.926   1.376   6.693  1.4540 -1.9341 -1.0978
  154SAPE   H2S17077   5.102   1.368   6.648 -0.1468 -0.9508 -1.7035
  154SAPE    C317078   4.742   1.531   6.312  0.1913  0.6945 -0.6195
  154SAPE    HX17079   4.746   1.422   6.287 -1.2875 -0.0250  1.9339
  154SAPE    HY17080   4.745   1.596   6.222  2.0454 -0.3425 -1.3585
  154SAPE   O3117081   4.633   1.551   6.403  0.0187 -0.0752  0.0414
  154SAPE   C3117082   4.559   1.666   6.391 -1.5242  0.6233  0.1866
  154SAPE   O3217083   4.586   1.757   6.316  0.5813 -0.4494 -0.2974
  154SAPE   C3217084   4.432   1.659   6.476  0.0019  0.4335 -0.1823
  154SAPE   H2X17085   4.366   1.744   6.451  0.4495  1.0538  0.6898
  154SAPE   H2Y17086   4.476   1.668   6.577  0.0904  0.9126 -0.2617
  154SAPE   C2317087   5.058   1.520   6.805  0.4134  0.0607 -0.4061
  154SAPE   H3R17088   5.148   1.583   6.787 -0.2816  0.9030 -1.0776
  154SAPE   H3S17089   5.068   1.448   6.888 -0.4131  1.6451  1.1379
  154SAPE   C2417090   4.945   1.621   6.843  0.1155 -0.0828  0.2256
  154SAPE   H4R17091   4.933   1.708   6.774  2.5471  0.2745  0.1556
  154SAPE   H4S17092   4.991   1.679   6.926  0.1029  1.0074 -0.5089
  154SAPE   C2517093   4.815   1.549   6.877  0.4416 -0.1775 -0.5410
  154SAPE   H5R17094   4.769   1.497   6.792 -0.1430  1.6035 -1.3685
  154SAPE   C2617095   4.757   1.539   6.998  0.1425  0.7126 -0.2438
  154SAPE   H6R17096   4.666   1.478   7.004  1.7148 -1.7520 -0.3554
  154SAPE   C2717097   4.803   1.604   7.125 -0.2989 -0.6870 -0.7499
  154SAPE   H7R17098   4.714   1.654   7.169  0.0957  0.1822 -0.9292
  154SAPE   H7S17099   4.872   1.688   7.103 -0.5227 -0.4618 -0.6063
  154SAPE   C2817100   4.871   1.516   7.217 -0.2988 -0.0806 -1.1165
  154SAPE   H8R17101   4.978   1.494   7.200 -0.1040 -0.2184  0.1945
  154SAPE   C2917102   4.819   1.462   7.330  0.0517 -0.2530  0.6942
  154SAPE   H9R17103   4.885   1.396   7.389 -1.3970 -1.8020  0.6570
  154SAPE  C21017104   4.675   1.484   7.378  0.8317  0.2526  0.1036
  154SAPE  H10R17105   4.615   1.502   7.287  1.5020 -2.0058 -0.8500
  154SAPE  H10S17106   4.665   1.575   7.441  1.3695  1.1003 -1.0041
  154SAPE  C21117107   4.602   1.380   7.454  0.8745 -0.0628  0.4027
  154SAPE  H11R17108   4.534   1.319   7.393 -2.2090  3.0068  0.4510
  154SAPE  C21217109   4.635   1.333   7.576  0.2428  0.9059 -0.0728
  154SAPE  H12R17110   4.571   1.257   7.623  0.1821 -0.1565 -1.7874
  154SAPE  C21317111   4.749   1.369   7.668  0.2546 -0.0667 -0.0554
  154SAPE  H13R17112   4.832   1.384   7.595 -1.5903 -0.6119 -2.3617
  154SAPE  H13S17113   4.758   1.277   7.731 -0.0019 -1.1243 -1.4988
  154SAPE  C21417114   4.730   1.497   7.754  0.3815  0.3261 -0.2787
  154SAPE  H14R17115   4.631   1.544   7.751  0.0074 -0.4314 -0.0560
  154SAPE  C21517116   4.826   1.546   7.832 -0.3823 -0.0869  0.2371
  154SAPE  H15R17117   4.813   1.639   7.889  2.9436  0.8539 -0.3149
  154SAPE  C21617118   4.959   1.480   7.853  0.8156  0.0245  0.1037
  154SAPE  H16R17119   5.037   1.527   7.789  0.8925 -0.6831 -0.3441
  154SAPE  H16S17120   4.958   1.374   7.820  3.9156  0.0763 -0.4875
  154SAPE  C21717121   5.014   1.503   7.994 -0.1061  0.7399 -0.6980
  154SAPE  H17R17122   4.943   1.461   8.069  2.2114  0.5325  1.5322
  154SAPE  H17S17123   5.015   1.605   8.037 -2.0470  0.1010  1.0409
  154SAPE  C21817124   5.140   1.415   8.029 -0.6099 -0.3825  0.2584
  154SAPE  H18R17125   5.229   1.456   7.976  0.5562 -2.1308  0.8043
  154SAPE  H18S17126   5.121   1.312   7.993  0.1089  0.5897 -3.2964
  154SAPE  C21917127   5.187   1.439   8.173 -0.3226  0.0827  0.4230
  154SAPE  H19R17128   5.261   1.360   8.201 -2.7856 -2.9569 -1.1418
  154SAPE  H19S17129   5.103   1.413   8.240 -1.2021 -1.1376 -1.1105
  154SAPE  C22017130   5.243   1.581   8.206  1.0071  0.0795 -0.3693
  154SAPE  H20R17131   5.331   1.593   8.139  2.2461  1.7744  1.4749
  154SAPE  H20S17132   5.280   1.583   8.311 -0.1395  0.5127  0.0411
  154SAPE  H20T17133   5.176   1.665   8.179  1.0766 -0.1781 -1.3950
  154SAPE   C3317134   4.348   1.523   6.465 -0.3111 -0.3368  0.4510
  154SAPE   H3X17135   4.411   1.435   6.491 -0.8193 -1.1328 -0.9164
  154SAPE   H3Y17136   4.324   1.519   6.356 -2.2614 -1.6173  0.8903
  154SAPE   C3417137   4.223   1.528   6.551  0.1376  0.6780 -0.0954
  154SAPE   H4X17138   4.144   1.455   6.522  0.4556  0.4443 -0.3854
  154SAPE   H4Y17139   4.174   1.627   6.546 -0.5050  0.4199  0.7990
  154SAPE   C3517140   4.261   1.516   6.703  0.1925  0.0043 -0.7472
  154SAPE   H5X17141   4.292   1.617   6.737 -1.0669 -0.2909  1.4438
  154SAPE   H5Y17142   4.346   1.450   6.731  2.6684  2.5200 -1.8403
  154SAPE   C3617143   4.140   1.481   6.787  0.1510 -0.0990 -0.7232
  154SAPE   H6X17144   4.091   1.386   6.759 -0.8884  0.1845  0.0792
  154SAPE   H6Y17145   4.062   1.560   6.783  0.5787  0.2927 -1.6191
  154SAPE   C3717146   4.175   1.461   6.935  0.4590  0.0071 -0.0545
  154SAPE   H7X17147   4.281   1.428   6.948  0.0046 -1.7582 -0.6068
  154SAPE   H7Y17148   4.111   1.386   6.985  0.3311  1.9898  3.0953
  154SAPE   C3817149   4.163   1.597   7.008 -0.6342  0.1587 -0.5265
  154SAPE   H8X17150   4.054   1.617   7.018 -1.2336 -2.5407 -0.8183
  154SAPE   H8Y17151   4.216   1.666   6.938 -0.4071 -0.2760 -0.7869
  154SAPE   C3917152   4.232   1.586   7.144  0.8386  0.1779  0.3048
  154SAPE   H9X17153   4.233   1.687   7.190  1.4201  0.9214 -1.2641
  154SAPE   H9Y17154   4.333   1.542   7.134  0.8383 -0.1760  1.6720
  154SAPE  C31017155   4.155   1.490   7.234  0.3429 -0.0885 -0.1232
  154SAPE  H10X17156   4.140   1.389   7.190 -0.6868 -1.5370  3.2463
  154SAPE  H10Y17157   4.056   1.535   7.253  1.0516  1.4262  0.1178
  154SAPE  C31117158   4.240   1.462   7.367 -0.2681  0.3818  0.2711
  154SAPE  H11X17159   4.269   1.559   7.413  1.1160  0.1060  0.0438
  154SAPE  H11Y17160   4.341   1.429   7.332  0.4318  3.5498 -1.0459
  154SAPE  C31217161   4.179   1.364   7.462 -0.3092  0.6007  0.1857
  154SAPE  H12X17162   4.154   1.269   7.410 -0.6337  1.7612 -1.8777
  154SAPE  H12Y17163   4.090   1.416   7.502  0.7437  1.8865  0.9593
  154SAPE  C31317164   4.271   1.334   7.579 -0.3902  0.1220  0.2122
  154SAPE  H13X17165   4.331   1.425   7.601 -3.1379  1.8750  0.9669
  154SAPE  H13Y17166   4.345   1.256   7.553 -0.7606  0.9014 -3.9393
  154SAPE  C31417167   4.201   1.324   7.715 -0.2877 -0.1416  0.7097
  154SAPE  H14X17168   4.126   1.242   7.711 -0.8943  0.4554 -1.0931
  154SAPE  H14Y17169   4.159   1.426   7.731 -1.7763 -0.4381 -0.9213
  154SAPE  C31517170   4.295   1.288   7.831 -0.1775  0.1181  0.1532
  154SAPE  H15X17171   4.247   1.324   7.924  4.9387  0.0185  3.1609
  154SAPE  H15Y17172   4.393   1.337   7.812 -0.1969 -0.6685 -2.4011
  154SAPE  C31617173   4.327   1.138   7.853  0.4290  0.0454 -0.4110
  154SAPE  H16X17174   4.423   1.122   7.906  0.7370  0.1370 -0.9317
  154SAPE  H16Y17175   4.328   1.097   7.750  0.1154  0.8676 -0.7557
  154SAPE  C31717176   4.219   1.057   7.926 -0.2378 -0.6839 -0.0141
  154SAPE  H17X17177   4.256   0.952   7.920 -0.6815 -0.8813  0.5758
  154SAPE  H17Y17178   4.118   1.061   7.880 -1.3369  0.4260  2.3352
  154SAPE  C31817179   4.203   1.103   8.071  0.0306  0.4018 -0.5090
  154SAPE  H18X17180   4.195   1.211   8.096 -1.6987 -0.2018  1.9509
  154SAPE  H18Y17181   4.287   1.061   8.130  0.0672  3.1946  1.6502
  154SAPE  H18Z17182   4.118   1.052   8.120  0.9897  1.8478  2.9673
  155SAPE     N17183   2.083   3.190   6.629  0.4850 -0.1535  0.6321
  155SAPE   HN117184   2.169   3.204   6.686  0.6790 -0.3637  0.3868
  155SAPE   HN217185   2.108   3.172   6.530 -1.8361 -0.3750  0.0379
  155SAPE   HN317186   2.015   3.269   6.632  0.1327 -0.3880 -0.6879
  155SAPE   C1217187   2.013   3.075   6.681 -0.4005  0.0225 -0.2129
  155SAPE  H12A17188   1.916   3.059   6.629 -1.1672 -1.3418  1.5529
  155SAPE  H12B17189   1.979   3.091   6.785 -1.0063  0.1440 -0.4247
  155SAPE   C1117190   2.094   2.943   6.669 -0.7411 -0.0438  0.1266
  155SAPE  H11A17191   2.024   2.869   6.712 -2.6170  1.9405  0.6317
  155SAPE  H11B17192   2.185   2.955   6.732 -0.9894  0.3724  0.4115
  155SAPE     P17193   2.286   2.884   6.489  0.1032  0.1252 -0.3587
  155SAPE   O1317194   2.287   2.799   6.369  0.0248 -0.3931 -0.0742
  155SAPE   O1417195   2.365   3.007   6.472 -0.1833 -0.0035 -0.1314
  155SAPE   O1217196   2.133   2.917   6.528 -0.1695  0.3419  0.5010
  155SAPE   O1117197   2.341   2.804   6.617 -0.2558  0.5727  0.4907
  155SAPE    C117198   2.474   2.757   6.627  0.2363  0.4295  0.0076
  155SAPE    HA17199   2.489   2.652   6.594 -3.3932 -0.1168 -0.2586
  155SAPE    HB17200   2.545   2.806   6.556  2.1795 -1.3086  0.6225
  155SAPE    C217201   2.527   2.761   6.777 -0.7229 -0.3285  0.1607
  155SAPE    HS17202   2.638   2.753   6.769 -0.6650  1.7008 -2.4054
  155SAPE   O2117203   2.458   2.657   6.849  0.0370  0.3316 -0.3952
  155SAPE   C2117204   2.540   2.561   6.894  0.3335 -0.0486  0.3072
  155SAPE   O2217205   2.659   2.560   6.876 -0.5765 -0.3565 -0.5137
  155SAPE   C2217206   2.455   2.457   6.962  0.1158  0.4614 -0.1155
  155SAPE   H2R17207   2.386   2.492   7.042 -1.2569 -0.9706 -0.6225
  155SAPE   H2S17208   2.400   2.406   6.880 -0.7948 -0.5454  1.0869
  155SAPE    C317209   2.500   2.897   6.851  0.2600 -0.2653  0.1422
  155SAPE    HX17210   2.393   2.924   6.839 -0.3510 -2.9046 -1.0339
  155SAPE    HY17211   2.555   2.977   6.796 -0.0628  0.4443  0.8243
  155SAPE   O3117212   2.544   2.882   6.988  0.0493 -0.6993 -0.0559
  155SAPE   C3117213   2.466   2.950   7.075  0.5939  0.0627 -0.4807
  155SAPE   O3217214   2.359   3.008   7.051  0.3662 -0.1954 -0.4646
  155SAPE   C3217215   2.527   2.919   7.215 -0.0437 -0.1194 -0.2115
  155SAPE   H2X17216   2.631   2.956   7.209  0.1432 -0.1182  2.2877
  155SAPE   H2Y17217   2.534   2.808   7.225  2.2053 -0.0740 -0.7636
  155SAPE   C2317218   2.535   2.339   7.028 -0.4069  0.3609 -0.6019
  155SAPE   H3R17219   2.598   2.369   7.114  0.7859  2.2083 -2.0369
  155SAPE   H3S17220   2.592   2.295   6.943  0.7670  0.5142  0.0830
  155SAPE   C2417221   2.449   2.230   7.092 -0.1409  0.0627  0.2896
  155SAPE   H4R17222   2.378   2.201   7.011 -1.1250 -0.3301  1.2495
  155SAPE   H4S17223   2.394   2.268   7.181 -1.2515 -0.1781 -0.2703
  155SAPE   C2517224   2.526   2.105   7.130  0.6234 -0.2051  0.4630
  155SAPE   H5R17225   2.534   2.027   7.053 -2.0178  0.8589 -1.0595
  155SAPE   C2617226   2.588   2.090   7.250 -0.0610  0.6493  0.1763
  155SAPE   H6R17227   2.654   2.002   7.249 -3.0515 -1.8347 -2.6006
  155SAPE   C2717228   2.589   2.184   7.375  0.0293  0.5301 -0.2026
  155SAPE   H7R17229   2.502   2.254   7.371  0.1224  0.8163  1.8000
  155SAPE   H7S17230   2.679   2.246   7.355 -0.3798  0.6469 -1.7626
  155SAPE   C2817231   2.590   2.116   7.508  0.4019 -0.8336  0.2530
  155SAPE   H8R17232   2.534   2.021   7.512 -1.4576  0.2428  1.5721
  155SAPE   C2917233   2.646   2.163   7.619  0.0918 -0.8170  0.4049
  155SAPE   H9R17234   2.642   2.101   7.710  0.0694  2.4459  2.8257
  155SAPE  C21017235   2.730   2.284   7.635 -0.7811 -0.0253 -0.5346
  155SAPE  H10R17236   2.797   2.315   7.552 -0.7176  0.4682 -0.3005
  155SAPE  H10S17237   2.792   2.269   7.725  1.4826  2.7967 -1.4958
  155SAPE  C21117238   2.635   2.396   7.664 -0.3575 -0.1445  0.3602
  155SAPE  H11R17239   2.616   2.464   7.579 -0.6350 -0.4784  0.1546
  155SAPE  C21217240   2.587   2.415   7.793  0.1233 -0.1384  0.1861
  155SAPE  H12R17241   2.526   2.506   7.808 -0.6468 -0.8662  1.6313
  155SAPE  C21317242   2.589   2.334   7.919  0.3568  0.5899  1.0197
  155SAPE  H13R17243   2.600   2.224   7.903  0.9181  0.4216  2.4157
  155SAPE  H13S17244   2.494   2.349   7.973 -0.3164  2.0161 -0.4882
  155SAPE  C21417245   2.716   2.370   7.996  0.2252 -0.5797  0.5901
  155SAPE  H14R17246   2.810   2.369   7.940 -1.6562  0.1439 -2.8949
  155SAPE  C21517247   2.718   2.398   8.129 -0.3694 -0.6606 -0.1775
  155SAPE  H15R17248   2.817   2.402   8.175  0.1507 -0.4008 -1.2787
  155SAPE  C21617249   2.603   2.399   8.224  0.3751  0.3336 -0.6297
  155SAPE  H16R17250   2.512   2.449   8.185 -0.7251 -1.4888 -0.5124
  155SAPE  H16S17251   2.647   2.448   8.313  1.1042 -1.4210  0.0191
  155SAPE  C21717252   2.548   2.266   8.280 -0.3355 -0.2132 -0.5125
  155SAPE  H17R17253   2.494   2.197   8.211 -2.4107 -0.7522  1.5385
  155SAPE  H17S17254   2.468   2.296   8.351 -1.7758  0.6782 -2.4315
  155SAPE  C21817255   2.658   2.183   8.345  0.0699  0.3277 -0.4854
  155SAPE  H18R17256   2.687   2.230   8.442  3.2426  0.2744 -1.3069
  155SAPE  H18S17257   2.751   2.187   8.285  0.4433  0.5388  0.1000
  155SAPE  C21917258   2.606   2.044   8.366  0.0426 -0.1598  0.1204
  155SAPE  H19R17259   2.591   1.985   8.272  1.6087 -0.6931  0.1649
  155SAPE  H19S17260   2.506   2.044   8.414 -0.1787 -1.1685 -0.3036
  155SAPE  C22017261   2.694   1.949   8.449 -0.1311  0.1722 -0.1131
  155SAPE  H20R17262   2.648   1.847   8.446 -2.8465  1.2248  1.5760
  155SAPE  H20S17263   2.696   1.996   8.550 -0.0616  3.1033 -1.3811
  155SAPE  H20T17264   2.794   1.948   8.401  0.5089  1.7418  1.0992
  155SAPE   C3317265   2.436   2.961   7.334  0.3067  0.1122  0.1863
  155SAPE   H3X17266   2.334   2.920   7.319  0.0744 -0.3382  2.5882
  155SAPE   H3Y17267   2.432   3.072   7.337 -2.9894  0.0755  0.2998
  155SAPE   C3417268   2.486   2.926   7.477  0.5881 -0.0196 -0.1816
  155SAPE   H4X17269   2.488   2.815   7.487 -1.3145 -0.0687  0.1495
  155SAPE   H4Y17270   2.417   2.960   7.557  0.6170 -1.0496  0.3067
  155SAPE   C3517271   2.618   2.992   7.515  0.4886 -0.3313  0.0186
  155SAPE   H5X17272   2.612   3.102   7.530 -0.2979 -0.6709  2.6822
  155SAPE   H5Y17273   2.697   2.986   7.437 -0.2655  0.1925 -0.8123
  155SAPE   C3617274   2.672   2.923   7.644 -0.1287  0.3769 -0.2035
  155SAPE   H6X17275   2.773   2.957   7.676 -0.1424 -0.5480  0.8809
  155SAPE   H6Y17276   2.682   2.816   7.618 -0.0503  0.5950 -1.0931
  155SAPE   C3717277   2.592   2.943   7.777 -0.3179 -0.6653  0.4727
  155SAPE   H7X17278   2.483   2.940   7.759 -0.3011 -0.0253  0.2528
  155SAPE   H7Y17279   2.610   3.047   7.810 -1.5451 -0.0181 -0.7675
  155SAPE   C3817280   2.626   2.843   7.887  0.2434  0.0900  0.4511
  155SAPE   H8X17281   2.732   2.850   7.919  0.1201 -2.9637  1.9540
  155SAPE   H8Y17282   2.622   2.742   7.840  1.5731  0.9314 -1.5743
  155SAPE   C3917283   2.547   2.868   8.019  0.6349  0.1669 -0.1043
  155SAPE   H9X17284   2.436   2.866   8.010  0.6312 -2.1336 -0.1397
  155SAPE   H9Y17285   2.560   2.974   8.048 -0.4399 -0.2182  1.9345
  155SAPE  C31017286   2.585   2.785   8.136 -0.0051 -0.8775 -0.5066
  155SAPE  H10X17287   2.571   2.675   8.129  1.8920 -1.5407  3.2407
  155SAPE  H10Y17288   2.526   2.819   8.224  0.4026  0.5845 -0.7617
  155SAPE  C31117289   2.737   2.823   8.173  0.3813 -0.4389 -0.1228
  155SAPE  H11X17290   2.759   2.931   8.160  0.5915 -0.6992 -2.1607
  155SAPE  H11Y17291   2.802   2.776   8.097 -0.3149 -0.2791 -0.8293
  155SAPE  C31217292   2.774   2.777   8.315 -0.7450  0.1700  0.3580
  155SAPE  H12X17293   2.884   2.783   8.333 -0.8089  0.6518  0.6176
  155SAPE  H12Y17294   2.736   2.673   8.324 -3.1300  0.9349 -0.1570
  155SAPE  C31317295   2.727   2.867   8.432  0.3294  1.0096  0.2027
  155SAPE  H13X17296   2.616   2.855   8.433  0.2845  1.4138  0.5617
  155SAPE  H13Y17297   2.751   2.974   8.411 -2.6649  1.2588 -2.7849
  155SAPE  C31417298   2.781   2.834   8.574  0.3369 -0.8820 -0.1239
  155SAPE  H14X17299   2.892   2.830   8.576  0.4114  0.8275  0.9201
  155SAPE  H14Y17300   2.755   2.728   8.591  1.7968 -1.1253  0.7773
  155SAPE  C31517301   2.734   2.927   8.680  0.3573  0.0716  0.1691
  155SAPE  H15X17302   2.624   2.923   8.695  0.4536  0.0524  0.9616
  155SAPE  H15Y17303   2.760   3.026   8.637 -2.5206 -0.2270 -2.6103
  155SAPE  C31617304   2.797   2.900   8.815  0.4228 -1.1625 -0.1653
  155SAPE  H16X17305   2.907   2.889   8.802  0.6491 -1.2040  1.5631
  155SAPE  H16Y17306   2.761   2.802   8.852 -1.1277 -0.8741 -0.8561
  155SAPE  C31717307   2.776   3.011   8.915 -0.0191 -0.2987  0.4550
  155SAPE  H17X17308   2.668   3.033   8.932  0.1211  0.0709  0.8765
  155SAPE  H17Y17309   2.822   3.108   8.885  1.5812 -1.7704 -2.2277
  155SAPE  C31817310   2.839   2.981   9.052 -0.1070  0.2423 -0.4685
  155SAPE  H18X17311   2.808   3.065   9.118 -0.7276  0.9503 -1.6406
  155SAPE  H18Y17312   2.949   2.965   9.052  0.1190  1.6299  0.6160
  155SAPE  H18Z17313   2.799   2.889   9.100  1.5805  0.2435  1.0461
  156SAPE     N17314   0.595   2.875   5.999  0.0658  0.0804 -0.4033
  156SAPE   HN117315   0.681   2.826   5.965  1.2346  2.2675 -0.7581
  156SAPE   HN217316   0.522   2.817   6.045  0.9526 -0.3640  0.4844
  156SAPE   HN317317   0.546   2.928   5.925 -0.2867  1.8243  0.9965
  156SAPE   C1217318   0.640   2.976   6.105  0.0801 -0.7291  0.1600
  156SAPE  H12A17319   0.561   3.055   6.098  0.6128  0.0334  1.9849
  156SAPE  H12B17320   0.740   3.018   6.083  0.8435 -1.3859  2.1409
  156SAPE   C1117321   0.617   2.916   6.247  0.0802 -1.0076 -0.0655
  156SAPE  H11A17322   0.629   2.987   6.332 -0.0275 -0.1450 -0.7571
  156SAPE  H11B17323   0.696   2.838   6.258  0.1752 -1.1677 -1.7513
  156SAPE     P17324   0.450   2.758   6.369  0.3951 -0.1898 -0.1638
  156SAPE   O1317325   0.306   2.734   6.364  0.3254 -0.4287 -0.6697
  156SAPE   O1417326   0.541   2.649   6.351 -0.5114 -0.0399 -0.5982
  156SAPE   O1217327   0.483   2.856   6.250 -0.8950  0.3348 -0.0586
  156SAPE   O1117328   0.488   2.833   6.508  0.4015 -0.4498 -0.1925
  156SAPE    C117329   0.401   2.946   6.538  0.3898 -0.6301 -0.3268
  156SAPE    HA17330   0.437   3.038   6.488  1.5110 -1.3433 -0.8786
  156SAPE    HB17331   0.295   2.937   6.504  0.8171 -0.6092 -1.7571
  156SAPE    C217332   0.387   2.977   6.691  0.7890 -0.1872 -0.4132
  156SAPE    HS17333   0.321   3.065   6.705  0.7312 -0.2918 -0.0151
  156SAPE   O2117334   0.514   2.990   6.751 -0.3632 -0.3873  0.9543
  156SAPE   C2117335   0.577   3.109   6.733  0.3344 -0.0244 -0.4850
  156SAPE   O2217336   0.538   3.188   6.652 -0.0175 -0.4345  0.6995
  156SAPE   C2217337   0.707   3.121   6.808 -0.0650  0.3467 -0.1269
  156SAPE   H2R17338   0.720   3.019   6.850 -0.9771 -0.7095 -2.2541
  156SAPE   H2S17339   0.785   3.138   6.731 -0.7201  1.5961 -0.5504
  156SAPE    C317340   0.314   2.866   6.770  0.1680 -0.2647 -0.4494
  156SAPE    HX17341   0.391   2.787   6.774 -0.3795 -0.8140 -0.6350
  156SAPE    HY17342   0.222   2.821   6.727  0.2776 -0.1608 -0.7926
  156SAPE   O3117343   0.286   2.897   6.911  0.8509  0.2587  0.0716
  156SAPE   C3117344   0.220   3.001   6.940 -0.2706 -0.2289  0.0847
  156SAPE   O3217345   0.147   3.063   6.866 -0.4752 -0.1365  0.9315
  156SAPE   C3217346   0.234   3.036   7.081 -0.2422 -0.2885  0.1122
  156SAPE   H2X17347   0.278   3.138   7.095  0.7514 -0.7842  0.7068
  156SAPE   H2Y17348   0.288   2.959   7.139 -1.5327 -0.2508  1.4307
  156SAPE   C2317349   0.684   3.243   6.907 -0.4852  0.4339 -0.3928
  156SAPE   H3R17350   0.652   3.329   6.845 -2.8824 -0.5417 -0.6089
  156SAPE   H3S17351   0.787   3.263   6.946 -0.5902  4.0610 -1.6128
  156SAPE   C2417352   0.586   3.209   7.028 -0.4347 -0.2873  0.1656
  156SAPE   H4R17353   0.487   3.194   6.981 -1.2160 -1.6345  2.1428
  156SAPE   H4S17354   0.577   3.292   7.101  1.1178 -1.3613  1.6538
  156SAPE   C2517355   0.632   3.081   7.099 -0.4537  0.0614 -0.2301
  156SAPE   H5R17356   0.671   2.993   7.046  2.1159  0.7798  0.2863
  156SAPE   C2617357   0.612   3.062   7.234  0.1979 -0.2671 -0.2783
  156SAPE   H6R17358   0.647   2.970   7.284 -1.2754 -0.8578 -0.2716
  156SAPE   C2717359   0.558   3.157   7.342  0.2749 -0.1610  0.6952
  156SAPE   H7R17360   0.551   3.093   7.433 -1.7802 -1.8325 -0.5317
  156SAPE   H7S17361   0.450   3.169   7.318 -0.3473 -3.6107  1.2217
  156SAPE   C2817362   0.647   3.274   7.362 -0.0359  0.1792  0.1221
  156SAPE   H8R17363   0.680   3.313   7.264 -1.4820 -0.8510 -0.8212
  156SAPE   C2917364   0.705   3.313   7.478  0.5564 -0.5786 -0.0873
  156SAPE   H9R17365   0.775   3.397   7.467 -1.8768  1.4206 -1.5906
  156SAPE  C21017366   0.678   3.257   7.616  0.6899  0.5710  0.0100
  156SAPE  H10R17367   0.775   3.236   7.666  0.6459  1.4448  0.4829
  156SAPE  H10S17368   0.629   3.157   7.618 -1.6261  1.5941  3.0093
  156SAPE  C21117369   0.577   3.331   7.702 -1.0831  0.5389 -0.3966
  156SAPE  H11R17370   0.515   3.409   7.655 -3.1424 -0.3848  0.6748
  156SAPE  C21217371   0.562   3.310   7.834  0.1558  0.7060 -0.4119
  156SAPE  H12R17372   0.495   3.368   7.898 -0.3539 -0.1994 -0.1028
  156SAPE  C21317373   0.647   3.216   7.915 -0.0863 -0.7941 -0.1020
  156SAPE  H13R17374   0.675   3.264   8.011  0.9822 -1.7854  0.0980
  156SAPE  H13S17375   0.747   3.202   7.868 -0.3410 -0.2940 -0.8212
  156SAPE  C21417376   0.593   3.079   7.938  0.2986  0.6060 -0.1322
  156SAPE  H14R17377   0.599   3.021   7.845 -4.0800 -0.4582  0.0059
  156SAPE  C21517378   0.537   3.019   8.049  0.2832 -0.8499  0.0583
  156SAPE  H15R17379   0.500   2.917   8.034  0.8933 -1.0615 -0.0596
  156SAPE  C21617380   0.513   3.087   8.175  0.3315  0.6680 -0.0084
  156SAPE  H16R17381   0.419   3.041   8.212  2.1733 -1.5466  2.2743
  156SAPE  H16S17382   0.496   3.192   8.144  0.9723  0.3158 -1.6374
  156SAPE  C21717383   0.617   3.085   8.289  0.3633 -0.5929  0.8196
  156SAPE  H17R17384   0.660   2.985   8.312  1.1332 -1.0013 -2.0204
  156SAPE  H17S17385   0.565   3.127   8.377  0.2080 -0.1713  0.5277
  156SAPE  C21817386   0.734   3.175   8.263 -0.0837  0.8075  1.1337
  156SAPE  H18R17387   0.706   3.277   8.229  0.9678  0.7646  0.0483
  156SAPE  H18S17388   0.799   3.132   8.183 -0.4865  0.3008  1.0684
  156SAPE  C21917389   0.838   3.191   8.379  0.7368  0.1916 -0.1674
  156SAPE  H19R17390   0.862   3.083   8.395 -0.4270 -0.2649 -1.2694
  156SAPE  H19S17391   0.786   3.222   8.472 -1.0156  0.4339 -1.1867
  156SAPE  C22017392   0.952   3.282   8.348  0.2743 -0.7684  0.4833
  156SAPE  H20R17393   0.909   3.381   8.324 -1.1336 -1.7077 -1.0916
  156SAPE  H20S17394   1.019   3.252   8.265 -0.9367  0.1669 -0.8824
  156SAPE  H20T17395   1.007   3.302   8.442  0.7634 -0.2453  0.0912
  156SAPE   C3317396   0.093   3.049   7.153 -0.3236  0.0308 -0.4294
  156SAPE   H3X17397   0.054   2.946   7.169 -2.0183  0.6607 -0.2967
  156SAPE   H3Y17398   0.027   3.101   7.081 -0.5357  0.4133  0.0366
  156SAPE   C3417399   0.101   3.118   7.290  0.1676 -0.7884 -0.0144
  156SAPE   H4X17400  -0.002   3.142   7.323 -0.0530  0.6142 -1.5405
  156SAPE   H4Y17401   0.137   3.221   7.266 -1.3968  0.2391  1.7532
  156SAPE   C3517402   0.188   3.048   7.398  0.8733 -0.1503 -0.0677
  156SAPE   H5X17403   0.291   3.044   7.357 -0.2823 -0.5221 -3.1813
  156SAPE   H5Y17404   0.150   2.943   7.394 -0.5493  0.2701  1.2572
  156SAPE   C3617405   0.160   3.105   7.541 -0.0150 -0.6471 -0.1444
  156SAPE   H6X17406   0.201   3.033   7.615 -1.9518 -0.3320  1.3173
  156SAPE   H6Y17407   0.051   3.103   7.559 -0.2939 -0.9085 -1.6939
  156SAPE   C3717408   0.218   3.243   7.567  0.2346  0.6087 -0.3565
  156SAPE   H7X17409   0.184   3.308   7.484  0.4111  0.7172 -0.3441
  156SAPE   H7Y17410   0.328   3.231   7.560  0.4305  2.6052 -1.4589
  156SAPE   C3817411   0.182   3.292   7.710  0.0016  0.7880  0.3464
  156SAPE   H8X17412   0.074   3.306   7.732 -0.0413  0.9885  0.0082
  156SAPE   H8Y17413   0.239   3.385   7.730  2.1620  0.3183 -2.8967
  156SAPE   C3917414   0.203   3.188   7.820  0.4421  1.1131 -0.3208
  156SAPE   H9X17415   0.310   3.159   7.824 -0.2770 -1.8679  0.3655
  156SAPE   H9Y17416   0.146   3.094   7.800  1.4714  0.8838 -2.5525
  156SAPE  C31017417   0.163   3.235   7.956 -0.2058 -0.1051 -0.5373
  156SAPE  H10X17418   0.202   3.338   7.974  0.4332 -0.5363  0.6084
  156SAPE  H10Y17419   0.213   3.166   8.027  1.5487  0.8784 -0.7474
  156SAPE  C31117420   0.013   3.240   7.983 -0.3747 -0.2214  0.1641
  156SAPE  H11X17421  -0.031   3.139   7.966 -1.1044  0.4085 -1.9633
  156SAPE  H11Y17422  -0.040   3.312   7.918 -2.4508 -2.1708 -0.4269
  156SAPE  C31217423  -0.017   3.279   8.126  0.3539  0.1336 -0.3732
  156SAPE  H12X17424  -0.125   3.302   8.134  0.2501 -0.1439 -0.8986
  156SAPE  H12Y17425   0.040   3.372   8.146 -0.8953  0.8110  0.1185
  156SAPE  C31317426   0.007   3.162   8.221  0.6918 -0.2625 -0.2955
  156SAPE  H13X17427   0.116   3.153   8.240  0.2482 -2.1431  1.7417
  156SAPE  H13Y17428  -0.025   3.062   8.185 -0.1765 -0.2942  0.5397
  156SAPE  C31417429  -0.047   3.202   8.361 -0.4611  0.0496  0.2508
  156SAPE  H14X17430  -0.157   3.213   8.357 -0.4230  0.3588  0.0429
  156SAPE  H14Y17431  -0.025   3.306   8.392 -1.0496  0.3914 -0.4340
  156SAPE  C31517432  -0.002   3.102   8.464  0.6302  0.0375 -0.0640
  156SAPE  H15X17433   0.109   3.091   8.461  0.6411  0.3803 -1.4488
  156SAPE  H15Y17434  -0.023   2.995   8.446  0.6431 -0.0552  0.4397
  156SAPE  C31617435  -0.070   3.124   8.599 -0.1880  0.1868  0.2224
  156SAPE  H16X17436  -0.050   3.228   8.632  0.3576  0.4628 -0.9273
  156SAPE  H16Y17437  -0.036   3.053   8.676 -1.7284  0.5874  1.3294
  156SAPE  C31717438  -0.222   3.104   8.603 -0.2076  0.5922 -0.3770
  156SAPE  H17X17439  -0.273   3.158   8.521 -0.2486  1.6991  0.3575
  156SAPE  H17Y17440  -0.264   3.143   8.698  1.4429 -1.5624  1.3568
  156SAPE  C31817441  -0.269   2.957   8.595  0.3784 -0.1366 -0.0676
  156SAPE  H18X17442  -0.228   2.902   8.508 -0.6056 -3.1280  1.2351
  156SAPE  H18Y17443  -0.379   2.946   8.589  0.3007  0.6827 -0.3296
  156SAPE  H18Z17444  -0.235   2.898   8.683 -1.0365  1.7585  1.8581
  157SAPE     N17445   5.592   3.509   6.416  0.0607 -0.4558  0.8997
  157SAPE   HN117446   5.656   3.444   6.365  2.3667  3.4825 -1.7473
  157SAPE   HN217447   5.657   3.552   6.484  1.2696 -0.0350 -0.4715
  157SAPE   HN317448   5.522   3.447   6.461  1.2778 -2.9569 -0.4147
  157SAPE   C1217449   5.534   3.588   6.300 -0.3536  0.1028  0.4969
  157SAPE  H12A17450   5.431   3.621   6.327 -0.5808 -1.4669  1.7088
  157SAPE  H12B17451   5.525   3.514   6.217 -1.8695  0.1060  0.6237
  157SAPE   C1117452   5.629   3.709   6.262  0.0731  0.2991  0.4223
  157SAPE  H11A17453   5.642   3.773   6.353  1.4670  0.3492  0.2088
  157SAPE  H11B17454   5.591   3.786   6.192  0.8065 -0.8146 -1.2574
  157SAPE     P17455   5.889   3.739   6.223  0.1843  0.4471  0.0825
  157SAPE   O1317456   5.999   3.646   6.193 -0.3102 -0.0956 -0.2313
  157SAPE   O1417457   5.876   3.854   6.145 -0.6493 -0.3479  0.3246
  157SAPE   O1217458   5.755   3.658   6.210  0.0824  0.0209 -0.3145
  157SAPE   O1117459   5.901   3.786   6.376 -0.3427  0.0451 -0.3995
  157SAPE    C117460   6.000   3.891   6.396  0.0576 -0.3237  0.4282
  157SAPE    HA17461   6.094   3.868   6.341  0.3614  0.1814  0.7272
  157SAPE    HB17462   5.963   3.990   6.361  2.5794  0.1387 -1.1894
  157SAPE    C217463   6.022   3.897   6.547  0.2553  0.8025  0.2576
  157SAPE    HS17464   6.103   3.971   6.562 -1.2399  2.3117  1.2035
  157SAPE   O2117465   6.043   3.774   6.611 -0.0294  0.1899 -0.0624
  157SAPE   C2117466   6.166   3.732   6.590  0.0221 -0.0062  0.4025
  157SAPE   O2217467   6.249   3.779   6.514  0.7684  0.2303  0.2990
  157SAPE   C2217468   6.202   3.625   6.694 -0.6007 -0.1103 -0.1761
  157SAPE   H2R17469   6.196   3.527   6.641  2.9148 -1.4035  1.5068
  157SAPE   H2S17470   6.311   3.626   6.714 -1.0421 -0.6081  2.6113
  157SAPE    C317471   5.889   3.958   6.615  0.0235 -0.6251 -0.1040
  157SAPE    HX17472   5.811   3.881   6.599 -0.5284 -0.3279  1.0265
  157SAPE    HY17473   5.856   4.046   6.555  0.3588 -1.9246 -2.2804
  157SAPE   O3117474   5.903   3.996   6.752 -0.2861 -0.0517  0.5954
  157SAPE   C3117475   5.848   3.906   6.844  0.1122 -0.3781 -0.3695
  157SAPE   O3217476   5.765   3.824   6.812  0.4423 -0.4115 -0.3680
  157SAPE   C3217477   5.898   3.926   6.983 -0.4585  0.2994  0.5069
  157SAPE   H2X17478   5.865   4.023   7.027  3.1597  2.4033 -0.9725
  157SAPE   H2Y17479   6.007   3.945   6.973 -0.3769 -1.3309 -2.8385
  157SAPE   C2317480   6.131   3.628   6.829  0.9695  0.3159 -0.4388
  157SAPE   H3R17481   6.022   3.610   6.818  0.8013  1.1231 -0.1268
  157SAPE   H3S17482   6.146   3.721   6.888  1.8901  0.2965 -0.6281
  157SAPE   C2417483   6.176   3.502   6.908  0.2441  0.1090 -0.5780
  157SAPE   H4R17484   6.285   3.485   6.924  0.1150  1.5727  2.7412
  157SAPE   H4S17485   6.147   3.403   6.868  1.4350 -1.0863  1.3256
  157SAPE   C2517486   6.122   3.513   7.049 -0.5483 -0.2424  0.2515
  157SAPE   H5R17487   6.021   3.557   7.048 -0.6174 -0.2813 -2.3313
  157SAPE   C2617488   6.173   3.477   7.168  0.2835 -0.2363 -0.5435
  157SAPE   H6R17489   6.116   3.496   7.260  2.1837 -0.3434  0.7142
  157SAPE   C2717490   6.310   3.414   7.197  0.6581  0.5667  0.1860
  157SAPE   H7R17491   6.379   3.491   7.239 -1.2971  2.2079  0.5294
  157SAPE   H7S17492   6.353   3.378   7.101  1.8815  0.6846  0.6767
  157SAPE   C2817493   6.307   3.295   7.291 -0.3302 -0.4119  0.5268
  157SAPE   H8R17494   6.314   3.199   7.236  2.6618  0.6870 -1.2107
  157SAPE   C2917495   6.306   3.287   7.425  0.6823 -0.1698  0.2372
  157SAPE   H9R17496   6.317   3.188   7.471  0.6175 -0.2171  0.1524
  157SAPE  C21017497   6.304   3.405   7.521  0.0378 -0.3092  0.0260
  157SAPE  H10R17498   6.206   3.413   7.574  0.2045 -2.4867  0.7970
  157SAPE  H10S17499   6.327   3.496   7.462 -1.2131 -1.7564 -2.9213
  157SAPE  C21117500   6.421   3.378   7.619  0.1393 -0.3573 -0.1093
  157SAPE  H11R17501   6.507   3.338   7.562  1.2922  1.0959  0.5486
  157SAPE  C21217502   6.427   3.389   7.750 -0.3408  0.0532 -0.5377
  157SAPE  H12R17503   6.523   3.364   7.798 -0.6280 -0.4675 -0.2241
  157SAPE  C21317504   6.320   3.428   7.853  0.3904 -0.0446  0.3596
  157SAPE  H13R17505   6.291   3.332   7.901  0.1648 -0.4857 -0.6323
  157SAPE  H13S17506   6.230   3.465   7.799  2.9578  4.1846 -1.5623
  157SAPE  C21417507   6.373   3.532   7.946  0.4015  0.4516 -0.0499
  157SAPE  H14R17508   6.417   3.614   7.889 -0.6930  0.6912 -0.5632
  157SAPE  C21517509   6.388   3.524   8.079 -0.4646  0.7280 -0.9300
  157SAPE  H15R17510   6.447   3.605   8.124  0.5117  0.8505 -2.3819
  157SAPE  C21617511   6.343   3.402   8.156 -0.0774  0.1969  0.2966
  157SAPE  H16R17512   6.396   3.306   8.139 -3.1693 -1.5434 -0.3781
  157SAPE  H16S17513   6.238   3.377   8.129  0.1038 -1.6968  1.1426
  157SAPE  C21717514   6.339   3.413   8.309  0.1500 -0.8281 -0.0065
  157SAPE  H17R17515   6.445   3.423   8.340 -0.0800 -0.6724  0.7533
  157SAPE  H17S17516   6.305   3.315   8.349  1.0505 -0.4792  1.6730
  157SAPE  C21817517   6.239   3.525   8.360  0.4241  0.0077 -0.9736
  157SAPE  H18R17518   6.144   3.537   8.303 -1.3090  1.5640  2.0181
  157SAPE  H18S17519   6.286   3.625   8.352 -0.8665  0.9304  1.7943
  157SAPE  C21917520   6.198   3.501   8.509 -0.5098 -0.5869 -0.2402
  157SAPE  H19R17521   6.291   3.524   8.566  0.3509 -1.8796 -1.0800
  157SAPE  H19S17522   6.171   3.396   8.532  1.1214 -0.8121  0.8903
  157SAPE  C22017523   6.080   3.587   8.550 -0.6205  0.3495 -0.3014
  157SAPE  H20R17524   5.982   3.546   8.517 -1.0383 -0.7168  2.0268
  157SAPE  H20S17525   6.092   3.692   8.515  0.8557  0.8430  1.5190
  157SAPE  H20T17526   6.073   3.591   8.661  1.1605  2.3921 -0.1894
  157SAPE   C3317527   5.860   3.799   7.059  0.5692  0.2130  0.0238
  157SAPE   H3X17528   5.884   3.707   7.001  0.1689 -0.1543  0.4362
  157SAPE   H3Y17529   5.749   3.793   7.069  0.5088 -0.1695 -0.7735
  157SAPE   C3417530   5.929   3.781   7.195 -0.3816  0.5527  0.0607
  157SAPE   H4X17531   6.038   3.786   7.176 -0.5238  1.1589 -0.6194
  157SAPE   H4Y17532   5.899   3.680   7.229 -2.5564  0.5858 -1.5674
  157SAPE   C3517533   5.879   3.888   7.293 -0.3631 -0.4033  0.0233
  157SAPE   H5X17534   5.769   3.874   7.296 -0.0944 -3.4714  3.4781
  157SAPE   H5Y17535   5.908   3.992   7.264  2.0007 -0.4160  1.9950
  157SAPE   C3617536   5.948   3.879   7.441  0.1672 -0.5907  0.5798
  157SAPE   H6X17537   6.046   3.931   7.436 -0.0304 -0.1317  1.3524
  157SAPE   H6Y17538   5.968   3.772   7.464 -1.1897 -1.3385 -1.4698
  157SAPE   C3717539   5.866   3.949   7.551  0.2361  0.2615 -0.1726
  157SAPE   H7X17540   5.778   3.886   7.576  0.0344  0.4014 -0.5301
  157SAPE   H7Y17541   5.829   4.048   7.515  2.8934  0.9719 -1.2609
  157SAPE   C3817542   5.952   3.979   7.673 -0.2507 -0.5202 -0.0401
  157SAPE   H8X17543   6.030   4.050   7.640  1.7333 -1.3273  2.6076
  157SAPE   H8Y17544   5.996   3.884   7.711 -0.5817 -0.4930  0.4205
  157SAPE   C3917545   5.878   4.053   7.787 -0.3704  0.1796 -0.5955
  157SAPE   H9X17546   5.845   4.155   7.758  0.3243  0.8515  0.8787
  157SAPE   H9Y17547   5.951   4.079   7.866  0.2515 -0.4141 -0.9704
  157SAPE  C31017548   5.763   3.978   7.854 -0.4846  0.0728  0.2385
  157SAPE  H10X17549   5.800   3.874   7.871 -0.1849  0.1980  0.3603
  157SAPE  H10Y17550   5.679   3.975   7.782 -0.0861  1.3667 -0.3000
  157SAPE  C31117551   5.715   4.039   7.987 -0.2575 -0.2184 -0.4723
  157SAPE  H11X17552   5.678   4.140   7.959 -2.3979 -1.5807 -3.0651
  157SAPE  H11Y17553   5.806   4.039   8.050 -0.5133 -2.3534  0.0003
  157SAPE  C31217554   5.594   3.967   8.041  0.2290 -0.2495  0.2785
  157SAPE  H12X17555   5.619   3.859   8.034  0.9539 -0.1067  0.5726
  157SAPE  H12Y17556   5.504   3.971   7.977  1.3927  0.9612 -1.3514
  157SAPE  C31317557   5.551   4.011   8.179  0.2357 -0.0749 -0.3579
  157SAPE  H13X17558   5.505   4.107   8.149 -3.4115 -1.9116 -1.1771
  157SAPE  H13Y17559   5.647   4.013   8.236 -0.1305 -3.0781  0.5590
  157SAPE  C31417560   5.440   3.931   8.244  0.3682  0.4434 -0.3686
  157SAPE  H14X17561   5.411   3.995   8.330 -2.9073  1.5620 -2.1131
  157SAPE  H14Y17562   5.488   3.838   8.281 -0.6434  0.1898  0.3598
  157SAPE  C31517563   5.314   3.916   8.157  0.0013 -0.4592 -0.6437
  157SAPE  H15X17564   5.335   3.833   8.086 -2.1991 -0.6306 -1.1465
  157SAPE  H15Y17565   5.314   4.007   8.093 -0.3568 -1.1803 -1.6973
  157SAPE  C31617566   5.192   3.875   8.241 -0.4076  0.1303  0.3866
  157SAPE  H16X17567   5.166   3.949   8.319 -0.2573  0.1915  0.3779
  157SAPE  H16Y17568   5.222   3.775   8.281  2.2851 -0.0557 -1.8178
  157SAPE  C31717569   5.055   3.877   8.165 -0.2070 -0.5176 -0.9178
  157SAPE  H17X17570   5.051   3.979   8.121  0.9052 -0.6092 -1.2732
  157SAPE  H17Y17571   4.976   3.868   8.242 -0.0963  1.9128 -0.4336
  157SAPE  C31817572   5.053   3.775   8.052 -0.1173 -0.1551 -0.3919
  157SAPE  H18X17573   5.097   3.677   8.081 -0.0813  0.1546  0.6588
  157SAPE  H18Y17574   5.121   3.815   7.973  0.4449  1.2214  0.7336
  157SAPE  H18Z17575   4.951   3.762   8.011 -0.8339  1.7786  0.6202
  158SAPE     N17576   6.388   3.950   6.304 -0.2973  1.0419  0.1899
  158SAPE   HN117577   6.352   3.903   6.389 -0.9896  3.1010  1.0745
  158SAPE   HN217578   6.469   4.006   6.338  0.8247 -1.3647  1.7736
  158SAPE   HN317579   6.309   4.005   6.264 -2.2223 -0.9895  1.0014
  158SAPE   C1217580   6.435   3.850   6.205  0.9150  0.4035 -0.5914
  158SAPE  H12A17581   6.464   3.917   6.121 -2.2443  1.4415 -0.9977
  158SAPE  H12B17582   6.351   3.787   6.169 -0.0999  0.9932  0.6982
  158SAPE   C1117583   6.552   3.765   6.261 -0.0704 -0.5167  0.0132
  158SAPE  H11A17584   6.562   3.673   6.200  0.2493 -0.1632 -0.4754
  158SAPE  H11B17585   6.523   3.735   6.364  0.6863 -1.0455  0.0835
  158SAPE     P17586   6.785   3.809   6.348  0.1317 -0.2737  0.5121
  158SAPE   O1317587   6.818   3.665   6.341 -0.4197  0.0768  0.1957
  158SAPE   O1417588   6.901   3.897   6.348  0.1141  0.0136 -0.0715
  158SAPE   O1217589   6.673   3.838   6.238 -0.9915 -0.1782  0.8161
  158SAPE   O1117590   6.715   3.833   6.486  0.1705 -0.2855  0.0532
  158SAPE    C117591   6.699   3.962   6.549 -0.3475 -0.2652 -0.5943
  158SAPE    HA17592   6.783   4.030   6.522 -0.5141  0.7776  1.3684
  158SAPE    HB17593   6.608   4.009   6.505  0.6269  0.1199 -2.3287
  158SAPE    C217594   6.677   3.931   6.695  0.0124 -0.3953  0.0120
  158SAPE    HS17595   6.645   4.030   6.733 -1.8555 -0.5430 -1.0905
  158SAPE   O2117596   6.801   3.881   6.749  0.2364 -0.0957 -0.0210
  158SAPE   C2117597   6.880   3.975   6.796 -0.2404 -0.2485  0.4252
  158SAPE   O2217598   6.859   4.092   6.780 -0.5837 -0.8133 -1.0840
  158SAPE   C2217599   7.004   3.909   6.871 -0.1504 -0.1131 -0.1859
  158SAPE   H2R17600   6.980   3.803   6.893  0.1977 -0.0256  0.6350
  158SAPE   H2S17601   7.086   3.918   6.796  1.8637 -0.6195  1.8430
  158SAPE    C317602   6.565   3.827   6.719  0.2324 -0.3052  0.2034
  158SAPE    HX17603   6.585   3.727   6.674 -3.7255 -0.2114 -2.2329
  158SAPE    HY17604   6.476   3.856   6.659  0.2977  0.0770  0.2890
  158SAPE   O3117605   6.538   3.811   6.862 -0.2792 -0.0149  0.5989
  158SAPE   C3117606   6.428   3.880   6.903 -0.4383 -0.3087  0.0342
  158SAPE   O3217607   6.336   3.920   6.834 -0.0665  0.0352  0.4804
  158SAPE   C3217608   6.458   3.924   7.046 -0.6228 -0.4633  0.5587
  158SAPE   H2X17609   6.407   4.022   7.049 -0.6921 -0.5136  1.5023
  158SAPE   H2Y17610   6.568   3.938   7.045 -0.4354 -1.7170 -1.4770
  158SAPE   C2317611   7.054   3.989   6.996  0.8896  0.4699  0.1799
  158SAPE   H3R17612   7.102   4.081   6.958  1.5907 -0.2339 -0.6933
  158SAPE   H3S17613   7.127   3.919   7.043 -0.9636 -0.4092  1.9264
  158SAPE   C2417614   6.940   4.035   7.099 -0.2894  0.0683  0.0193
  158SAPE   H4R17615   6.870   4.100   7.042  0.0624  2.1645  1.8368
  158SAPE   H4S17616   6.991   4.099   7.174 -3.3397 -0.2931  2.5917
  158SAPE   C2517617   6.857   3.934   7.173 -0.3509 -0.1139 -0.9168
  158SAPE   H5R17618   6.842   3.839   7.120 -2.1439 -1.5362  1.9411
  158SAPE   C2617619   6.792   3.961   7.292 -0.1862  0.0385 -0.2422
  158SAPE   H6R17620   6.729   3.878   7.326 -0.1403  0.4372  0.8547
  158SAPE   C2717621   6.785   4.089   7.372 -0.5163  0.1888 -0.9813
  158SAPE   H7R17622   6.684   4.102   7.416 -0.6008 -0.5665 -0.9349
  158SAPE   H7S17623   6.811   4.186   7.325  1.2570  0.2490  0.0283
  158SAPE   C2817624   6.879   4.075   7.492  0.2561  0.2963 -0.4517
  158SAPE   H8R17625   6.982   4.056   7.459  0.0865 -1.6127  0.0452
  158SAPE   C2917626   6.861   4.060   7.624  0.4723  0.0868 -0.8054
  158SAPE   H9R17627   6.946   4.074   7.691 -0.3148  0.7412  0.0749
  158SAPE  C21017628   6.723   4.057   7.691  0.7458  0.8972  0.5285
  158SAPE  H10R17629   6.657   3.980   7.646  0.0509  0.6423  1.9326
  158SAPE  H10S17630   6.663   4.148   7.674 -1.4881 -0.3995  1.0872
  158SAPE  C21117631   6.724   4.030   7.839 -0.8435  0.4274 -0.0154
  158SAPE  H11R17632   6.756   3.928   7.865 -3.2158 -0.2946  0.3272
  158SAPE  C21217633   6.679   4.112   7.938  0.3949  0.2586  0.5504
  158SAPE  H12R17634   6.676   4.071   8.040 -0.3373  0.8889  0.7873
  158SAPE  C21317635   6.612   4.252   7.941  0.9682  0.1488  0.8686
  158SAPE  H13R17636   6.643   4.317   7.856  0.5152  0.6438  1.0730
  158SAPE  H13S17637   6.661   4.314   8.019  0.8816  1.1794  0.1222
  158SAPE  C21417638   6.463   4.230   7.958  0.3329  1.4231  0.2268
  158SAPE  H14R17639   6.422   4.155   7.890 -0.2478  2.2736 -0.3837
  158SAPE  C21517640   6.381   4.289   8.042 -0.2842  0.2671  0.0492
  158SAPE  H15R17641   6.275   4.260   8.046  0.1215 -1.4280 -0.5146
  158SAPE  C21617642   6.416   4.404   8.135 -0.7993  0.2788  0.6261
  158SAPE  H16R17643   6.335   4.479   8.149 -2.0019 -0.8641 -0.0041
  158SAPE  H16S17644   6.511   4.451   8.101 -1.6183  0.6477 -1.2465
  158SAPE  C21717645   6.448   4.368   8.286 -0.7444 -0.2418 -0.0560
  158SAPE  H17R17646   6.520   4.445   8.321 -1.5677  1.3753 -1.7122
  158SAPE  H17S17647   6.499   4.269   8.281 -0.9313 -0.4254  1.2666
  158SAPE  C21817648   6.315   4.369   8.363  0.0172  0.1398 -0.0034
  158SAPE  H18R17649   6.238   4.301   8.320 -1.4791  0.8139  1.4986
  158SAPE  H18S17650   6.275   4.472   8.367 -0.5245 -0.0991  1.1848
  158SAPE  C21917651   6.324   4.316   8.508 -0.1404 -0.1092  0.4937
  158SAPE  H19R17652   6.358   4.210   8.504 -0.1339 -0.0689 -0.7638
  158SAPE  H19S17653   6.226   4.338   8.554  0.4424  0.4682  1.5051
  158SAPE  C22017654   6.428   4.398   8.583 -0.2719 -0.2275 -0.5768
  158SAPE  H20R17655   6.412   4.388   8.692 -1.2115  0.5279 -0.6381
  158SAPE  H20S17656   6.414   4.507   8.569 -0.4452  0.0094  1.2714
  158SAPE  H20T17657   6.535   4.385   8.554 -0.7206  0.0075 -2.4464
  158SAPE   C3317658   6.411   3.826   7.154 -0.0834  0.2100 -0.1304
  158SAPE   H3X17659   6.481   3.743   7.133 -0.1113  0.0531  0.3701
  158SAPE   H3Y17660   6.307   3.794   7.133  0.3527 -2.9220  1.8250
  158SAPE   C3417661   6.435   3.870   7.299  1.1237 -0.2285  0.2359
  158SAPE   H4X17662   6.395   3.972   7.314 -0.6997 -0.9796  0.8037
  158SAPE   H4Y17663   6.542   3.871   7.329  1.1813 -0.0977  0.0251
  158SAPE   C3517664   6.355   3.781   7.397 -0.1311 -0.2578  0.2414
  158SAPE   H5X17665   6.406   3.683   7.406  1.2676  0.5626  1.7175
  158SAPE   H5Y17666   6.253   3.766   7.357 -0.0274 -0.6155  0.1041
  158SAPE   C3617667   6.350   3.848   7.534 -0.6540 -1.0455 -0.4355
  158SAPE   H6X17668   6.299   3.946   7.525  0.5023 -0.5239 -1.6963
  158SAPE   H6Y17669   6.453   3.880   7.561 -1.2023 -0.1517  0.6742
  158SAPE   C3717670   6.270   3.778   7.646  0.5360  0.2763  0.1896
  158SAPE   H7X17671   6.169   3.752   7.609  0.9108 -0.6138 -0.2535
  158SAPE   H7Y17672   6.321   3.689   7.689 -1.3682 -1.7397 -1.4617
  158SAPE   C3817673   6.274   3.873   7.769  0.1750  0.1081  0.1092
  158SAPE   H8X17674   6.217   3.965   7.744 -2.2321 -0.5711  2.5457
  158SAPE   H8Y17675   6.379   3.905   7.786  0.9267 -1.6369 -0.9927
  158SAPE   C3917676   6.206   3.840   7.902 -0.3190  0.4446  0.5067
  158SAPE   H9X17677   6.255   3.754   7.953  1.1022  2.0139  1.9144
  158SAPE   H9Y17678   6.101   3.806   7.891  0.7865 -3.3856  0.4066
  158SAPE  C31017679   6.201   3.962   7.996  0.1328  0.9225  0.4448
  158SAPE  H10X17680   6.187   4.061   7.947 -0.9221  0.1729 -0.8158
  158SAPE  H10Y17681   6.295   3.967   8.055  1.1911  1.9028 -1.2334
  158SAPE  C31117682   6.089   3.935   8.101  0.4213 -0.5871  0.1459
  158SAPE  H11X17683   6.104   3.841   8.159 -1.7137 -0.0091  1.7707
  158SAPE  H11Y17684   5.995   3.929   8.041 -1.0464 -0.0146  2.2809
  158SAPE  C31217685   6.081   4.058   8.193  0.4249 -0.2084 -0.0153
  158SAPE  H12X17686   6.063   4.146   8.127  0.6121 -1.2608 -1.5283
  158SAPE  H12Y17687   6.177   4.069   8.249 -0.7250 -0.2835  2.0441
  158SAPE  C31317688   5.960   4.053   8.290 -0.5502 -0.1911 -0.2405
  158SAPE  H13X17689   5.868   4.103   8.253  0.1562  1.8231  0.5535
  158SAPE  H13Y17690   5.986   4.124   8.371 -1.7900  1.3635 -1.1298
  158SAPE  C31417691   5.919   3.902   8.323  1.0848 -0.4407  0.1227
  158SAPE  H14X17692   6.010   3.843   8.345  0.2538 -2.2090 -0.9576
  158SAPE  H14Y17693   5.866   3.860   8.235 -1.7235 -0.0098  1.4856
  158SAPE  C31517694   5.822   3.908   8.445  0.2485 -0.1218 -0.3495
  158SAPE  H15X17695   5.724   3.954   8.423  0.3146  1.0477  1.6174
  158SAPE  H15Y17696   5.871   3.986   8.507  3.9735 -0.5349 -2.4712
  158SAPE  C31617697   5.788   3.781   8.523 -0.3339  0.3908 -0.2478
  158SAPE  H16X17698   5.870   3.786   8.598 -0.1822 -0.5951 -0.3325
  158SAPE  H16Y17699   5.799   3.690   8.460  0.4072  0.4594 -0.2277
  158SAPE  C31717700   5.660   3.790   8.610  0.0180 -0.0164  0.5805
  158SAPE  H17X17701   5.584   3.825   8.537  2.1866  1.1730 -1.2152
  158SAPE  H17Y17702   5.676   3.869   8.686 -2.2520  0.7227  0.3601
  158SAPE  C31817703   5.608   3.657   8.657 -0.0011  0.4301 -0.3992
  158SAPE  H18X17704   5.499   3.651   8.675 -0.0042 -0.9300 -0.7434
  158SAPE  H18Y17705   5.663   3.623   8.748 -0.8096  1.0146  0.3203
  158SAPE  H18Z17706   5.625   3.584   8.575 -1.6634 -0.8368  0.3156
  159SAPE     N17707   5.068   5.570   6.024 -0.1622  0.1487 -0.0958
  159SAPE   HN117708   5.105   5.474   6.037  2.2767  1.0592  0.0755
  159SAPE   HN217709   5.080   5.621   6.114 -0.8817 -1.5369  1.0128
  159SAPE   HN317710   4.964   5.569   6.011 -0.1195 -1.2052 -0.5182
  159SAPE   C1217711   5.125   5.629   5.901  0.1598 -0.7038 -0.2611
  159SAPE  H12A17712   5.083   5.732   5.902 -0.5569 -0.9976  0.3451
  159SAPE  H12B17713   5.094   5.566   5.814  0.0815 -1.6056  0.4038
  159SAPE   C1117714   5.281   5.640   5.899  0.8503  0.1921  0.1875
  159SAPE  H11A17715   5.292   5.712   5.815 -2.0501  1.5074  0.7784
  159SAPE  H11B17716   5.312   5.538   5.868 -1.8632 -0.8766  0.6845
  159SAPE     P17717   5.494   5.713   6.004 -0.1487  0.2295 -0.1442
  159SAPE   O1317718   5.550   5.588   5.946  0.6766  0.6284 -0.4344
  159SAPE   O1417719   5.527   5.834   5.931  0.6038 -0.1974  0.1503
  159SAPE   O1217720   5.340   5.688   6.015 -0.1349  0.2059  0.0419
  159SAPE   O1117721   5.545   5.730   6.149  0.3589  0.0318 -0.5194
  159SAPE    C117722   5.491   5.650   6.251 -0.2608 -0.3025 -0.1495
  159SAPE    HA17723   5.383   5.627   6.240 -0.2410 -0.8578  0.6974
  159SAPE    HB17724   5.545   5.553   6.255  0.2541 -0.0073  0.1942
  159SAPE    C217725   5.498   5.723   6.387  0.0309  0.4074  1.1340
  159SAPE    HS17726   5.456   5.825   6.376  2.0729  1.0358 -2.3872
  159SAPE   O2117727   5.640   5.721   6.420  0.0237 -0.0966 -0.4303
  159SAPE   C2117728   5.683   5.808   6.490 -0.2651  0.2830 -0.5302
  159SAPE   O2217729   5.630   5.906   6.543  0.4742 -0.1451  0.2065
  159SAPE   C2217730   5.826   5.775   6.506  0.6273  0.3586  0.4767
  159SAPE   H2R17731   5.873   5.743   6.410 -0.6440  1.0131 -0.3938
  159SAPE   H2S17732   5.890   5.866   6.514  1.1036  0.0834 -0.1047
  159SAPE    C317733   5.425   5.641   6.494 -0.5819  0.8206  0.3786
  159SAPE    HX17734   5.490   5.551   6.500 -1.3009  0.0484 -2.1632
  159SAPE    HY17735   5.324   5.612   6.459 -0.0008 -2.0669  0.8380
  159SAPE   O3117736   5.422   5.703   6.627 -0.0955 -0.4658 -0.4082
  159SAPE   C3117737   5.350   5.820   6.639  0.4952 -0.5093 -0.4704
  159SAPE   O3217738   5.273   5.859   6.552 -0.3910 -0.7105 -0.0683
  159SAPE   C3217739   5.387   5.886   6.771  0.1626  0.2288 -0.4149
  159SAPE   H2X17740   5.378   5.996   6.757 -2.0857  0.1533 -0.0140
  159SAPE   H2Y17741   5.492   5.856   6.787 -0.1956 -1.0231 -0.3160
  159SAPE   C2317742   5.867   5.689   6.623 -0.3803 -0.3864 -0.3848
  159SAPE   H3R17743   5.954   5.624   6.597 -0.5376 -0.7147 -0.0973
  159SAPE   H3S17744   5.780   5.622   6.645 -1.1921  0.2787 -1.5136
  159SAPE   C2417745   5.880   5.779   6.752 -0.0880 -0.3091  0.3254
  159SAPE   H4R17746   5.795   5.850   6.759 -0.7326 -0.9027 -1.0935
  159SAPE   H4S17747   5.969   5.839   6.725  1.2260 -1.1777  2.4473
  159SAPE   C2517748   5.881   5.717   6.884 -1.1658 -0.2459 -0.0690
  159SAPE   H5R17749   5.782   5.671   6.898 -1.7883  1.0881  0.0672
  159SAPE   C2617750   5.972   5.735   6.980  0.2083  0.0497 -0.3471
  159SAPE   H6R17751   5.966   5.684   7.078 -0.4959  0.5468 -0.1224
  159SAPE   C2717752   6.102   5.800   6.973 -0.1631  0.9867 -0.2141
  159SAPE   H7R17753   6.159   5.770   6.882 -0.8500  1.1019 -0.6854
  159SAPE   H7S17754   6.153   5.763   7.064 -0.6236  0.0353 -0.3317
  159SAPE   C2817755   6.093   5.951   6.954  0.4196  0.2060 -0.2141
  159SAPE   H8R17756   6.044   5.978   6.859 -2.3258 -0.1272  1.0232
  159SAPE   C2917757   6.135   6.043   7.044 -0.4777 -0.1624  0.3293
  159SAPE   H9R17758   6.129   6.150   7.020  0.1844 -0.2286 -0.1665
  159SAPE  C21017759   6.196   6.016   7.179 -0.1747  0.5478  0.3010
  159SAPE  H10R17760   6.281   5.948   7.156 -1.3516 -0.3676 -1.6240
  159SAPE  H10S17761   6.132   5.947   7.238  1.7424 -3.3082 -1.6775
  159SAPE  C21117762   6.254   6.124   7.267  0.0217  0.2891  0.5803
  159SAPE  H11R17763   6.201   6.136   7.362 -1.9443 -0.7671 -0.3210
  159SAPE  C21217764   6.352   6.215   7.229 -0.4450  0.6388  0.1292
  159SAPE  H12R17765   6.372   6.299   7.297  0.2211 -0.2909  1.1123
  159SAPE  C21317766   6.429   6.228   7.103  0.2067  0.2440 -0.1635
  159SAPE  H13R17767   6.411   6.321   7.044 -0.1603 -0.4020 -1.1022
  159SAPE  H13S17768   6.397   6.148   7.033  0.2843 -0.2868  0.3991
  159SAPE  C21417769   6.578   6.206   7.141  0.2571  0.4891  0.3698
  159SAPE  H14R17770   6.622   6.262   7.225 -0.1513  2.7159 -0.8044
  159SAPE  C21517771   6.661   6.135   7.061 -0.1505 -0.4234 -0.2620
  159SAPE  H15R17772   6.765   6.123   7.096 -0.2654 -1.0922 -0.1442
  159SAPE  C21617773   6.634   6.073   6.932 -0.2820 -0.0882 -0.3265
  159SAPE  H16R17774   6.714   6.097   6.860  0.0354 -0.3988 -0.0791
  159SAPE  H16S17775   6.543   6.113   6.882 -0.3936 -0.5892 -0.5327
  159SAPE  C21717776   6.625   5.925   6.928 -0.4760  0.8236 -0.3665
  159SAPE  H17R17777   6.722   5.889   6.967 -1.1395 -2.6634 -1.5794
  159SAPE  H17S17778   6.628   5.884   6.825  0.6515 -0.5334  0.1805
  159SAPE  C21817779   6.519   5.858   7.017  0.1990  0.6480  0.5344
  159SAPE  H18R17780   6.420   5.896   6.983  0.4574  1.3278  0.5401
  159SAPE  H18S17781   6.535   5.893   7.121 -1.8876 -0.3238  1.2457
  159SAPE  C21917782   6.506   5.705   7.023 -0.3507 -0.1922  0.0554
  159SAPE  H19R17783   6.443   5.688   6.933 -1.1590 -2.4708  0.9708
  159SAPE  H19S17784   6.463   5.675   7.121  0.1868 -2.0368 -0.2358
  159SAPE  C22017785   6.633   5.620   7.020 -0.4250  0.1833  0.2197
  159SAPE  H20R17786   6.712   5.657   7.088 -1.1968 -0.5152  1.5420
  159SAPE  H20S17787   6.687   5.606   6.923  0.5334  0.9610  0.6270
  159SAPE  H20T17788   6.605   5.518   7.052 -1.4052  1.1868  2.8043
  159SAPE   C3317789   5.298   5.827   6.886 -0.4597  0.2236  0.4413
  159SAPE   H3X17790   5.196   5.818   6.841  0.1287 -1.6329 -0.6565
  159SAPE   H3Y17791   5.299   5.890   6.977  0.8755 -4.1123  3.7657
  159SAPE   C3417792   5.357   5.696   6.947 -0.5210  0.4045  0.2491
  159SAPE   H4X17793   5.468   5.703   6.947 -0.5025  0.2101  0.9435
  159SAPE   H4Y17794   5.339   5.605   6.887  1.1605  0.7688 -0.8654
  159SAPE   C3517795   5.313   5.663   7.092 -0.3635 -0.1774  0.0187
  159SAPE   H5X17796   5.317   5.552   7.102 -3.6204 -0.2729  1.4242
  159SAPE   H5Y17797   5.207   5.696   7.097 -0.4843 -0.3204 -1.1581
  159SAPE   C3617798   5.394   5.749   7.187  0.5620  0.2123 -0.2416
  159SAPE   H6X17799   5.381   5.857   7.162 -0.8590  0.4921  1.5278
  159SAPE   H6Y17800   5.502   5.723   7.180  0.5002 -0.2076  0.2703
  159SAPE   C3717801   5.348   5.732   7.331 -0.6877 -0.0040 -0.6693
  159SAPE   H7X17802   5.325   5.624   7.339 -0.8607  0.1241  0.7800
  159SAPE   H7Y17803   5.256   5.791   7.351  0.3091  1.1008  0.8839
  159SAPE   C3817804   5.458   5.763   7.432  0.9064  0.4194 -0.3805
  159SAPE   H8X17805   5.473   5.872   7.441  1.7917  0.1738  1.6769
  159SAPE   H8Y17806   5.549   5.709   7.398  1.2041  0.5727  0.1639
  159SAPE   C3917807   5.419   5.718   7.576  0.4038  0.8929 -0.5496
  159SAPE   H9X17808   5.428   5.608   7.590 -0.2774  0.7941 -0.7964
  159SAPE   H9Y17809   5.318   5.748   7.612  0.5054  0.6624 -0.0749
  159SAPE  C31017810   5.514   5.787   7.672 -1.6545  0.2983  0.3766
  159SAPE  H10X17811   5.495   5.896   7.659 -2.8989  0.0178 -0.2901
  159SAPE  H10Y17812   5.619   5.760   7.649 -1.1055  0.7085  2.2226
  159SAPE  C31117813   5.487   5.748   7.822 -0.7215  0.4609  0.2877
  159SAPE  H11X17814   5.457   5.642   7.839 -0.6488  0.4707  0.4817
  159SAPE  H11Y17815   5.400   5.807   7.859  0.8363  1.9463  1.7721
  159SAPE  C31217816   5.611   5.780   7.904 -0.3100  0.1138  0.0646
  159SAPE  H12X17817   5.633   5.889   7.903  0.4198 -0.0263  0.3793
  159SAPE  H12Y17818   5.697   5.730   7.856  1.1958  1.6471  1.0635
  159SAPE  C31317819   5.610   5.735   8.046  0.7039  0.2712  0.2276
  159SAPE  H13X17820   5.607   5.624   8.044  1.2277  0.2550 -1.8765
  159SAPE  H13Y17821   5.519   5.782   8.089 -1.1223 -1.2741 -1.7536
  159SAPE  C31417822   5.728   5.788   8.123  0.4863 -0.1963 -0.2837
  159SAPE  H14X17823   5.699   5.887   8.163  1.8916  1.0913 -2.2718
  159SAPE  H14Y17824   5.826   5.799   8.073  0.3031 -0.3190 -0.6737
  159SAPE  C31517825   5.750   5.706   8.252 -0.1284  0.3882  0.2356
  159SAPE  H15X17826   5.653   5.660   8.280 -0.4834 -0.1823 -1.7766
  159SAPE  H15Y17827   5.790   5.771   8.333  2.9113 -0.2650 -0.6150
  159SAPE  C31617828   5.850   5.590   8.232 -1.0038  0.0665  0.1893
  159SAPE  H16X17829   5.879   5.548   8.330  0.6119 -1.8876 -1.0304
  159SAPE  H16Y17830   5.943   5.633   8.189 -0.3673  0.2243  1.6674
  159SAPE  C31717831   5.795   5.467   8.146 -0.9501  0.5036 -0.1212
  159SAPE  H17X17832   5.783   5.501   8.040  0.1308  0.1331 -0.3758
  159SAPE  H17Y17833   5.698   5.429   8.184 -0.6889 -0.3551 -0.2929
  159SAPE  C31817834   5.898   5.349   8.129  0.2088  0.4776  0.4981
  159SAPE  H18X17835   5.851   5.277   8.058  0.3680  0.1314  0.7379
  159SAPE  H18Y17836   5.905   5.299   8.228 -3.9812 -1.7176 -0.1053
  159SAPE  H18Z17837   6.003   5.370   8.099  0.3056 -0.3023  0.2501
  160SAPE     N17838   0.557   3.996   6.475 -0.0967 -0.5937 -0.2417
  160SAPE   HN117839   0.592   3.950   6.561  1.3161  1.4874  0.3738
  160SAPE   HN217840   0.462   4.035   6.493 -0.5488 -1.0093 -1.5928
  160SAPE   HN317841   0.556   3.919   6.405  0.9370 -0.8055 -0.0349
  160SAPE   C1217842   0.659   4.106   6.458  0.4939  0.3635  0.4068
  160SAPE  H12A17843   0.673   4.147   6.560  2.4470 -2.1465  1.2439
  160SAPE  H12B17844   0.618   4.190   6.397  0.2241  1.2726  1.7936
  160SAPE   C1117845   0.787   4.055   6.402 -0.6875  0.4148  0.8712
  160SAPE  H11A17846   0.858   4.131   6.362 -0.1031 -0.9704 -0.8583
  160SAPE  H11B17847   0.761   4.010   6.304 -0.8178 -1.3733  1.7031
  160SAPE     P17848   0.999   3.959   6.514  0.1888  0.3371 -0.5231
  160SAPE   O1317849   1.062   3.923   6.385 -1.0585 -0.7880 -0.6904
  160SAPE   O1417850   1.033   4.085   6.578  0.7724  0.5249 -0.4106
  160SAPE   O1217851   0.845   3.957   6.487  0.5176  0.2624  0.5259
  160SAPE   O1117852   1.024   3.840   6.620  0.3538 -0.2223  0.2774
  160SAPE    C117853   0.922   3.750   6.663  0.4960  0.1371 -0.2057
  160SAPE    HA17854   0.829   3.759   6.603  1.6368 -0.3180 -2.1287
  160SAPE    HB17855   0.952   3.645   6.643 -1.4764 -0.2653 -1.3308
  160SAPE    C217856   0.883   3.781   6.812  0.8951  0.7628 -0.1226
  160SAPE    HS17857   0.791   3.724   6.836  1.2983  0.6920  1.3748
  160SAPE   O2117858   0.857   3.915   6.844 -0.2863  0.6474  0.1682
  160SAPE   C2117859   0.741   3.970   6.798  0.8033  0.3304  0.6390
  160SAPE   O2217860   0.659   3.916   6.722 -0.4984  0.4395  0.3979
  160SAPE   C2217861   0.718   4.105   6.859  0.5727 -0.2320  0.1997
  160SAPE   H2R17862   0.816   4.155   6.872 -0.2406  1.1665  1.2372
  160SAPE   H2S17863   0.669   4.172   6.786  0.1956 -0.8641 -0.1410
  160SAPE    C317864   0.991   3.725   6.914  0.1522  0.0029 -0.1883
  160SAPE    HX17865   1.090   3.772   6.893  0.1889 -0.4608 -1.0877
  160SAPE    HY17866   1.014   3.620   6.886  1.5612 -0.3570  2.0458
  160SAPE   O3117867   0.946   3.721   7.048 -0.2308  0.1918 -0.7331
  160SAPE   C3117868   1.029   3.676   7.143  0.3049  0.7372 -0.0501
  160SAPE   O3217869   1.149   3.658   7.129 -0.2225  0.5242 -0.4921
  160SAPE   C3217870   0.949   3.627   7.260  0.3221 -0.3871 -0.5759
  160SAPE   H2X17871   1.030   3.597   7.329  0.5431 -2.7635 -1.7499
  160SAPE   H2Y17872   0.877   3.543   7.245 -1.1416  0.1512  2.6177
  160SAPE   C2317873   0.648   4.094   6.998  0.5835 -0.3109  0.3427
  160SAPE   H3R17874   0.550   4.054   6.965  1.7284 -1.0722 -2.4191
  160SAPE   H3S17875   0.636   4.197   7.039 -0.1625 -0.8087  1.4178
  160SAPE   C2417876   0.700   4.002   7.107  0.2798 -0.4437  0.9426
  160SAPE   H4R17877   0.684   3.896   7.078 -0.6406  0.1192 -0.7912
  160SAPE   H4S17878   0.627   4.014   7.190 -2.8098 -0.2475 -1.6065
  160SAPE   C2517879   0.843   4.039   7.140  0.1548  0.1361  0.2146
  160SAPE   H5R17880   0.918   4.004   7.067  1.1649 -0.8702  1.6743
  160SAPE   C2617881   0.886   4.109   7.243  0.0473  0.8859  0.4224
  160SAPE   H6R17882   0.993   4.134   7.254  0.4794  0.1750 -1.6639
  160SAPE   C2717883   0.799   4.162   7.358 -0.9818  0.5800 -0.3155
  160SAPE   H7R17884   0.699   4.196   7.322 -1.8132 -0.6594  0.7010
  160SAPE   H7S17885   0.852   4.249   7.401  1.2007 -0.0002 -1.6984
  160SAPE   C2817886   0.777   4.058   7.475  0.0362 -0.1877  0.5573
  160SAPE   H8R17887   0.721   3.973   7.434  1.0508  0.5540 -2.6732
  160SAPE   C2917888   0.800   4.069   7.608  1.2371 -0.2668  0.2358
  160SAPE   H9R17889   0.782   3.985   7.678  0.4690 -0.9069 -0.7023
  160SAPE  C21017890   0.852   4.194   7.670  0.3637  0.1623 -0.4459
  160SAPE  H10R17891   0.829   4.289   7.617  1.4155  1.6562  1.5943
  160SAPE  H10S17892   0.962   4.179   7.664  0.1322 -2.4715  0.5947
  160SAPE  C21117893   0.797   4.212   7.813 -0.2172  0.1332 -0.3851
  160SAPE  H11R17894   0.708   4.152   7.835 -0.1533  0.5976  1.2920
  160SAPE  C21217895   0.855   4.297   7.900  0.1626  0.5126  0.0173
  160SAPE  H12R17896   0.803   4.325   7.993  0.7900  2.9328 -0.2899
  160SAPE  C21317897   0.981   4.378   7.870 -0.2404 -0.4968 -0.0950
  160SAPE  H13R17898   0.959   4.485   7.847  2.0859  0.1408  0.4159
  160SAPE  H13S17899   1.034   4.352   7.776  0.8405  3.3395 -0.7412
  160SAPE  C21417900   1.085   4.377   7.983 -0.0033  0.4624  0.4510
  160SAPE  H14R17901   1.179   4.331   7.949  0.6354  1.9646  0.1068
  160SAPE  C21517902   1.069   4.444   8.096 -0.0426 -0.2707 -0.3660
  160SAPE  H15R17903   1.144   4.427   8.174 -0.2260  0.7673  0.0547
  160SAPE  C21617904   0.949   4.528   8.134  0.1473  0.0634 -0.5118
  160SAPE  H16R17905   0.893   4.469   8.211 -0.0490  0.6933 -0.1601
  160SAPE  H16S17906   0.881   4.557   8.051 -1.3376  0.4841  0.7855
  160SAPE  C21717907   0.990   4.658   8.211  0.0508  0.3497  0.2272
  160SAPE  H17R17908   1.061   4.642   8.295  1.6396  5.1143  0.1121
  160SAPE  H17S17909   0.892   4.698   8.244  0.1367  2.6586 -1.9563
  160SAPE  C21817910   1.058   4.760   8.121  0.8953  0.0544  1.1004
  160SAPE  H18R17911   1.151   4.710   8.084 -1.2714 -2.4842 -1.3416
  160SAPE  H18S17912   1.078   4.851   8.182 -2.3582  1.2647  0.5445
  160SAPE  C21917913   0.974   4.802   7.995  0.1740 -0.8308 -0.0463
  160SAPE  H19R17914   0.867   4.820   8.021 -0.4076 -1.1859 -2.0390
  160SAPE  H19S17915   0.974   4.726   7.914 -1.5828 -2.4081  1.3403
  160SAPE  C22017916   1.020   4.931   7.930  0.0241  0.1616  0.7015
  160SAPE  H20R17917   1.127   4.941   7.902 -0.1883  0.3037 -0.0914
  160SAPE  H20S17918   1.003   5.019   7.995  0.9127  2.0979 -1.5323
  160SAPE  H20T17919   0.956   4.942   7.840 -0.1194 -1.6399  0.5516
  160SAPE   C3317920   0.863   3.746   7.328  0.2023  0.3913  0.5170
  160SAPE   H3X17921   0.791   3.786   7.253 -0.8015  0.4517  1.4980
  160SAPE   H3Y17922   0.942   3.815   7.364  0.6591 -0.4102  1.0900
  160SAPE   C3417923   0.790   3.694   7.448 -0.7117 -0.3009  0.5302
  160SAPE   H4X17924   0.757   3.591   7.425 -1.2385  0.2935 -1.6158
  160SAPE   H4Y17925   0.689   3.738   7.467 -0.7288 -0.1063 -0.0062
  160SAPE   C3517926   0.866   3.691   7.579 -0.6843 -0.2562  0.7761
  160SAPE   H5X17927   0.927   3.783   7.592 -2.1503  0.7649  0.6559
  160SAPE   H5Y17928   0.931   3.601   7.578 -0.8192 -0.3541  0.6929
  160SAPE   C3617929   0.769   3.684   7.699  0.4144  0.8052 -0.0586
  160SAPE   H6X17930   0.706   3.597   7.672  1.0329  0.6379 -1.0198
  160SAPE   H6Y17931   0.695   3.766   7.690 -2.0452 -1.3784 -1.1247
  160SAPE   C3717932   0.846   3.667   7.835  0.0675 -0.3890  0.7793
  160SAPE   H7X17933   0.900   3.762   7.858  0.8594 -0.4556 -0.6685
  160SAPE   H7Y17934   0.932   3.606   7.799 -1.1669 -0.3215 -2.7575
  160SAPE   C3817935   0.747   3.602   7.934  0.8808 -0.8343  0.0180
  160SAPE   H8X17936   0.722   3.496   7.911  0.2212 -0.4038 -1.3242
  160SAPE   H8Y17937   0.651   3.659   7.935  1.0442 -0.5382  1.6395
  160SAPE   C3917938   0.806   3.594   8.075 -0.0583 -0.4129  0.0053
  160SAPE   H9X17939   0.896   3.531   8.091  0.9968  1.1510  0.4876
  160SAPE   H9Y17940   0.725   3.546   8.134 -0.9085  0.4208 -0.4766
  160SAPE  C31017941   0.861   3.726   8.142 -0.1239  0.7614 -0.2013
  160SAPE  H10X17942   0.954   3.754   8.088  1.3549  0.3954  2.0105
  160SAPE  H10Y17943   0.895   3.687   8.240 -0.1599  0.0341 -0.4695
  160SAPE  C31117944   0.778   3.856   8.149 -0.5183 -0.2620 -0.1359
  160SAPE  H11X17945   0.691   3.829   8.212 -0.9608  2.1533  0.3918
  160SAPE  H11Y17946   0.733   3.884   8.052  1.5474 -0.1825 -1.1164
  160SAPE  C31217947   0.847   3.973   8.223  0.0437  0.1314 -0.2668
  160SAPE  H12X17948   0.953   3.972   8.189 -0.6424  1.9345 -2.8052
  160SAPE  H12Y17949   0.842   3.961   8.333 -0.7683 -0.1820 -0.3330
  160SAPE  C31317950   0.774   4.105   8.192  0.3037  0.0229  0.2018
  160SAPE  H13X17951   0.692   4.093   8.119  0.4647  0.7574 -0.1138
  160SAPE  H13Y17952   0.855   4.175   8.163  0.6629 -0.6017 -0.3364
  160SAPE  C31417953   0.701   4.166   8.310  0.0384 -0.4015  0.0785
  160SAPE  H14X17954   0.664   4.264   8.273 -0.1436 -1.0128 -1.4300
  160SAPE  H14Y17955   0.764   4.183   8.400 -1.7959 -0.4648  1.4399
  160SAPE  C31517956   0.577   4.088   8.363  0.3874  0.0874  0.1027
  160SAPE  H15X17957   0.609   3.984   8.380 -1.9516 -0.8800 -0.9346
  160SAPE  H15Y17958   0.496   4.074   8.288  0.6961 -0.4054 -0.1400
  160SAPE  C31617959   0.518   4.137   8.503 -0.5861  0.2650 -0.3629
  160SAPE  H16X17960   0.458   4.227   8.479 -1.0048  0.1661  0.2941
  160SAPE  H16Y17961   0.602   4.161   8.572 -1.0741 -0.0807  0.3546
  160SAPE  C31717962   0.428   4.034   8.578 -0.1897  0.4184  0.1587
  160SAPE  H17X17963   0.479   3.936   8.569  1.0376  1.0794 -0.3790
  160SAPE  H17Y17964   0.328   4.026   8.530 -0.4213 -0.3714  0.7548
  160SAPE  C31817965   0.406   4.057   8.729  0.3582 -0.7148 -0.0035
  160SAPE  H18X17966   0.388   4.167   8.736  0.7198 -0.4731 -2.3330
  160SAPE  H18Y17967   0.499   4.034   8.786  1.9660  0.5917 -1.9799
  160SAPE  H18Z17968   0.323   3.988   8.757  0.5304 -1.5110 -1.3684
  161SOPE     N17969   4.561   4.260  10.735  0.1841 -0.1821 -0.7114
  161SOPE   HN117970   4.622   4.339  10.706  2.6976 -1.2646  1.2248
  161SOPE   HN217971   4.513   4.285  10.823  1.2832 -4.0288  1.2137
  161SOPE   HN317972   4.610   4.171  10.756  3.1701  1.1989 -1.2464
  161SOPE   C1217973   4.458   4.236  10.624 -1.2037 -0.3283  0.4664
  161SOPE  H12A17974   4.393   4.325  10.609 -0.2610  0.1753 -0.7773
  161SOPE  H12B17975   4.401   4.143  10.649 -0.3667 -0.9786 -0.0052
  161SOPE   C1117976   4.531   4.201  10.493 -0.3558  1.0996 -0.0008
  161SOPE  H11A17977   4.594   4.284  10.454  0.3808  0.2803 -0.5715
  161SOPE  H11B17978   4.455   4.183  10.413  0.9494  0.1096 -1.0614
  161SOPE     P17979   4.590   3.947  10.461  0.0741 -0.1146  0.2128
  161SOPE   O1317980   4.493   3.880  10.553  0.5445  0.0771  0.0148
  161SOPE   O1417981   4.719   3.877  10.445  0.3033  0.2781  0.3471
  161SOPE   O1217982   4.618   4.096  10.513  0.1213  0.9187  0.2703
  161SOPE   O1117983   4.532   3.979  10.321 -0.0987  0.4660 -0.7613
  161SOPE    C117984   4.402   3.932  10.280 -0.1386  0.5246  0.0451
  161SOPE    HA17985   4.378   3.988  10.187  4.1137 -1.7403 -2.7457
  161SOPE    HB17986   4.330   3.957  10.361 -0.7798 -2.5215  0.5142
  161SOPE    C217987   4.402   3.780  10.256 -0.2224 -0.9600 -0.0584
  161SOPE    HS17988   4.422   3.730  10.354  0.8132 -0.3224  0.0707
  161SOPE   O2117989   4.501   3.753  10.157  0.1072  0.0500  0.3253
  161SOPE   C2117990   4.539   3.634  10.131 -0.5844  0.5360  0.3244
  161SOPE   O2217991   4.496   3.530  10.179  0.3076 -0.7201 -0.1247
  161SOPE   C2217992   4.648   3.632  10.026  0.7160 -0.1505  0.1936
  161SOPE   H2R17993   4.709   3.723  10.044  2.6405 -1.4373  0.5535
  161SOPE   H2S17994   4.597   3.630   9.928  0.9214 -1.3310  0.0978
  161SOPE    C317995   4.255   3.736  10.219  0.0819 -0.4291 -0.6074
  161SOPE    HX17996   4.179   3.777  10.288 -0.6730 -0.8548 -1.1637
  161SOPE    HY17997   4.255   3.626  10.236 -0.5225 -0.2151  0.8668
  161SOPE   O3117998   4.236   3.770  10.081 -0.2600  0.2932 -0.1462
  161SOPE   C3117999   4.129   3.716  10.023  0.2673  0.2034  0.2993
  161SOPE   O3218000   4.043   3.643  10.081  0.1951 -0.5004 -0.0089
  161SOPE   C3218001   4.118   3.772   9.878  0.2194  0.2783  0.2546
  161SOPE   H2X18002   4.149   3.879   9.881  1.6488 -0.0807 -0.8747
  161SOPE   H2Y18003   4.011   3.773   9.847  0.2814  2.2507 -0.0291
  161SOPE   C2318004   4.729   3.502  10.021 -0.2968  0.0434 -0.9814
  161SOPE   H3R18005   4.667   3.427   9.968 -0.5286 -1.1596  0.8738
  161SOPE   H3S18006   4.734   3.455  10.122 -1.7960  0.6384 -0.6092
  161SOPE   C2418007   4.867   3.515   9.959  0.4087  0.0883 -0.2865
  161SOPE   H4R18008   4.922   3.596  10.011  0.7150 -0.4138  0.1848
  161SOPE   H4S18009   4.934   3.426   9.964 -0.1820 -0.3649 -0.2820
  161SOPE   C2518010   4.861   3.575   9.821  0.4122  0.0344  0.0251
  161SOPE   H5R18011   4.798   3.514   9.753 -0.4902 -0.4670  1.2616
  161SOPE   H5S18012   4.826   3.680   9.814 -3.2606 -1.0650 -0.3783
  161SOPE   C2618013   4.993   3.562   9.754 -0.6334  0.1723  0.7682
  161SOPE   H6R18014   5.068   3.617   9.815  0.5063  1.3514 -1.5455
  161SOPE   H6S18015   5.030   3.457   9.751 -0.4994  0.1925  1.5618
  161SOPE   C2718016   4.997   3.629   9.609 -0.1234 -0.3989  0.3023
  161SOPE   H7R18017   4.990   3.740   9.617 -0.8113 -0.3739 -0.5195
  161SOPE   H7S18018   5.096   3.599   9.568 -1.3414  0.0126 -3.2183
  161SOPE   C2818019   4.890   3.586   9.517 -0.6803  0.6746 -0.2572
  161SOPE   H8R18020   4.795   3.618   9.565 -1.4222 -4.0864  2.0929
  161SOPE   H8S18021   4.891   3.644   9.422 -0.6883 -0.7248 -1.1321
  161SOPE   C2918022   4.879   3.438   9.490 -0.3609 -0.1958  0.2517
  161SOPE   H9118023   4.843   3.371   9.570 -1.8937 -1.7419 -1.6406
  161SOPE  C21018024   4.890   3.374   9.371 -0.7502  0.3162 -0.0059
  161SOPE  H10118025   4.860   3.268   9.371  1.2121 -0.2908 -0.8721
  161SOPE  C21118026   4.912   3.443   9.243 -0.2804  0.1948  0.1564
  161SOPE  H11R18027   4.892   3.552   9.247 -2.1913  0.0052 -1.9863
  161SOPE  H11S18028   4.834   3.402   9.175 -0.6569 -0.4929  0.9900
  161SOPE  C21218029   5.053   3.421   9.178 -0.1644 -0.5805 -0.8466
  161SOPE  H12R18030   5.081   3.315   9.161  2.5344 -0.2760  1.0024
  161SOPE  H12S18031   5.130   3.464   9.247  1.6148 -1.9908 -1.8703
  161SOPE  C21318032   5.070   3.501   9.044  0.1365  0.1453  0.1159
  161SOPE  H13R18033   5.178   3.504   9.019  0.2109  0.3475  0.4520
  161SOPE  H13S18034   5.055   3.609   9.067 -0.2025 -0.0911  1.0424
  161SOPE  C21418035   4.981   3.465   8.924  0.9652  0.2373 -0.5593
  161SOPE  H14R18036   4.876   3.467   8.960  0.4997  3.5125 -1.8097
  161SOPE  H14S18037   4.995   3.360   8.889  0.2129  0.0663 -0.3772
  161SOPE  C21518038   4.983   3.570   8.814  0.3071 -0.1811  0.0748
  161SOPE  H15R18039   5.088   3.584   8.778  0.6020  0.9099  1.2693
  161SOPE  H15S18040   4.954   3.664   8.865  1.6786  0.7100 -0.7082
  161SOPE  C21618041   4.887   3.549   8.693 -0.1577 -0.2031  0.0721
  161SOPE  H16R18042   4.784   3.530   8.731 -0.0589 -0.9202  0.0042
  161SOPE  H16S18043   4.926   3.456   8.647  0.3224  0.3556 -0.6673
  161SOPE  C21718044   4.902   3.661   8.594  0.1675 -0.2429  0.2428
  161SOPE  H17R18045   5.007   3.679   8.564  0.4948  1.9525  2.3666
  161SOPE  H17S18046   4.880   3.755   8.650  0.9298 -0.3984  0.8212
  161SOPE  C21818047   4.811   3.637   8.471  0.7892  0.0574 -0.5826
  161SOPE  H18R18048   4.872   3.564   8.414  2.6433  1.4865 -0.5185
  161SOPE  H18S18049   4.796   3.733   8.418 -0.4892 -0.0503 -0.4434
  161SOPE  H18T18050   4.711   3.591   8.490  1.0457 -1.1712 -1.9889
  161SOPE   C3318051   4.200   3.692   9.769 -0.5091 -0.0991  0.4727
  161SOPE   H3X18052   4.157   3.592   9.746  1.8774 -1.2142  0.5813
  161SOPE   H3Y18053   4.306   3.675   9.797 -0.6130 -0.6263  0.5630
  161SOPE   C3418054   4.200   3.764   9.628 -0.5430 -0.8475 -0.0144
  161SOPE   H4X18055   4.248   3.707   9.546 -0.0932 -0.8619  0.2574
  161SOPE   H4Y18056   4.259   3.858   9.626 -0.7590 -0.7221 -0.8280
  161SOPE   C3518057   4.059   3.797   9.576 -0.1912 -0.5305 -0.5295
  161SOPE   H5X18058   4.010   3.861   9.653 -0.5267 -2.2123  0.7130
  161SOPE   H5Y18059   3.994   3.707   9.570 -1.0489  0.0768 -0.5498
  161SOPE   C3618060   4.044   3.848   9.432 -0.5075 -0.3331 -0.5960
  161SOPE   H6X18061   4.103   3.940   9.413  0.1198 -0.8598 -1.2706
  161SOPE   H6Y18062   3.942   3.888   9.417  0.2764  2.7345  1.4270
  161SOPE   C3718063   4.094   3.750   9.327  0.1924  0.2791 -0.7357
  161SOPE   H7X18064   4.075   3.643   9.351 -1.1370  0.2098 -1.9600
  161SOPE   H7Y18065   4.204   3.752   9.312  0.8126 -2.2662  2.3404
  161SOPE   C3818066   4.026   3.760   9.193  0.2731 -0.1446 -0.7141
  161SOPE   H8X18067   3.915   3.763   9.198  0.1072 -1.4117 -2.7065
  161SOPE   H8Y18068   4.058   3.670   9.137  2.1491  0.8877 -1.3883
  161SOPE   C3918069   4.073   3.887   9.120  0.3237 -0.3451 -0.7995
  161SOPE   H9X18070   4.184   3.896   9.130  0.3539 -1.9249  0.5331
  161SOPE   H9Y18071   4.024   3.972   9.172  0.5865  0.9062 -2.5053
  161SOPE  C31018072   4.036   3.881   8.974 -0.1325  0.1166 -0.1448
  161SOPE  H10X18073   4.060   3.787   8.922 -1.2996 -0.0827 -0.3666
  161SOPE  H10Y18074   4.093   3.961   8.923 -1.4638  1.0289 -0.2767
  161SOPE  C31118075   3.885   3.910   8.945  0.5077  0.6060 -0.0142
  161SOPE  H11X18076   3.853   4.001   9.001 -0.0595 -0.0980  0.8359
  161SOPE  H11Y18077   3.823   3.828   8.988 -0.7201  0.5381 -1.7751
  161SOPE  C31218078   3.841   3.943   8.800 -0.9136  0.4425  0.2068
  161SOPE  H12X18079   3.899   4.032   8.768 -2.1440  1.1317 -0.1694
  161SOPE  H12Y18080   3.738   3.983   8.809 -0.4151  1.6601  0.7658
  161SOPE  C31318081   3.860   3.840   8.689  0.4624 -0.4498  0.2236
  161SOPE  H13X18082   3.963   3.827   8.651 -0.0500  1.0983 -1.9106
  161SOPE  H13Y18083   3.811   3.881   8.598  0.1173 -0.7145  0.2846
  161SOPE  C31418084   3.782   3.708   8.722 -0.1952 -0.0718 -0.0858
  161SOPE  H14X18085   3.701   3.730   8.795  0.2279 -1.3166  0.7848
  161SOPE  H14Y18086   3.834   3.624   8.773 -0.9910 -1.1275 -0.9697
  161SOPE  C31518087   3.709   3.649   8.603 -0.2115 -0.3661 -0.0620
  161SOPE  H15X18088   3.665   3.733   8.546  1.1675  0.5260  0.1315
  161SOPE  H15Y18089   3.624   3.584   8.630  0.8099 -1.3600  0.8843
  161SOPE  C31618090   3.805   3.582   8.507  0.4635  0.0874  0.3680
  161SOPE  H16X18091   3.844   3.488   8.550 -1.6128 -0.4595  1.1633
  161SOPE  H16Y18092   3.892   3.651   8.493  0.5280 -0.0681  0.0085
  161SOPE  C31718093   3.740   3.553   8.366  0.3801  0.0514 -0.3620
  161SOPE  H17X18094   3.692   3.647   8.331  0.1634  0.9563  2.1355
  161SOPE  H17Y18095   3.653   3.483   8.377  0.8339 -1.1922 -3.6142
  161SOPE  C31818096   3.833   3.493   8.267 -0.0068 -0.0581 -0.3258
  161SOPE  H18X18097   3.871   3.399   8.311  0.5752  0.0617 -0.5509
  161SOPE  H18Y18098   3.920   3.562   8.252  0.0836  0.0938  0.8139
  161SOPE  H18Z18099   3.792   3.469   8.166  3.0864 -0.8705 -1.5275
  162SOPE     N18100   2.293   4.401  11.024 -0.1347  0.8306  0.3302
  162SOPE   HN118101   2.361   4.422  11.100 -0.8910  0.8183  1.0382
  162SOPE   HN218102   2.228   4.481  11.010 -3.0630 -1.2269  1.0934
  162SOPE   HN318103   2.225   4.325  11.046  0.9066 -0.0982  0.3709
  162SOPE   C1218104   2.354   4.393  10.891 -0.1500  0.4127  0.8874
  162SOPE  H12A18105   2.408   4.487  10.871  0.4394  0.2228  1.5583
  162SOPE  H12B18106   2.269   4.384  10.819  2.0782  1.3818 -2.0314
  162SOPE   C1118107   2.461   4.281  10.897  0.8392 -0.1207 -0.1036
  162SOPE  H11A18108   2.502   4.259  10.796  2.4510  0.9032  0.2991
  162SOPE  H11B18109   2.418   4.186  10.937 -0.4071  0.7314  0.6713
  162SOPE     P18110   2.723   4.289  10.953 -0.2114  0.2247  0.0651
  162SOPE   O1318111   2.733   4.144  10.923  0.3438  0.4110 -0.0900
  162SOPE   O1418112   2.803   4.339  11.064 -0.1926  0.6599  0.1300
  162SOPE   O1218113   2.573   4.321  10.981  0.5053 -0.1164  0.2989
  162SOPE   O1118114   2.751   4.378  10.827  0.0801 -0.5101 -0.0361
  162SOPE    C118115   2.738   4.525  10.840  0.1809  0.0604 -0.2436
  162SOPE    HA18116   2.736   4.562  10.945 -1.3215  2.3872 -1.0433
  162SOPE    HB18117   2.634   4.555  10.817 -0.6541 -2.9233 -0.7640
  162SOPE    C218118   2.841   4.603  10.759  0.5802  0.0435  1.2552
  162SOPE    HS18119   2.838   4.704  10.806 -0.2966  0.1184  1.0659
  162SOPE   O2118120   2.801   4.600  10.619  0.8262  0.4684 -0.0013
  162SOPE   C2118121   2.817   4.708  10.547 -0.8145 -0.5005  0.6058
  162SOPE   O2218122   2.863   4.818  10.581  0.0610  0.1479  0.2196
  162SOPE   C2218123   2.795   4.666  10.401  0.4150  0.0451 -0.6439
  162SOPE   H2R18124   2.796   4.760  10.341  1.9229  0.7608  0.4368
  162SOPE   H2S18125   2.700   4.609  10.404  0.0911  0.5726  2.0558
  162SOPE    C318126   2.985   4.534  10.769  1.5839  0.1091 -0.0416
  162SOPE    HX18127   2.977   4.450  10.696  2.4226  0.7960 -0.9592
  162SOPE    HY18128   2.996   4.498  10.873 -1.6923  0.1056  0.4303
  162SOPE   O3118129   3.086   4.623  10.732  0.1176 -0.1358  0.1854
  162SOPE   C3118130   3.199   4.564  10.705 -0.5382 -0.3372  0.3247
  162SOPE   O3218131   3.223   4.447  10.695 -0.6087 -0.1811  0.1273
  162SOPE   C3218132   3.296   4.681  10.679 -0.4403 -0.1406  0.5109
  162SOPE   H2X18133   3.397   4.635  10.688  1.2802  2.7413 -2.2859
  162SOPE   H2Y18134   3.293   4.752  10.765 -1.5155  0.3951  0.0446
  162SOPE   C2318135   2.914   4.579  10.348  0.3559  0.5105  0.2354
  162SOPE   H3R18136   2.917   4.492  10.418  0.5373  0.2380 -0.1106
  162SOPE   H3S18137   3.006   4.640  10.349  1.2653 -0.7810 -1.0404
  162SOPE   C2418138   2.882   4.530  10.209 -0.4356  0.9891  0.0978
  162SOPE   H4R18139   2.958   4.455  10.180 -0.0227  1.2857  0.4197
  162SOPE   H4S18140   2.789   4.468  10.205  0.2777 -0.0921 -0.2114
  162SOPE   C2518141   2.870   4.632  10.092 -0.1208  0.6050  0.2982
  162SOPE   H5R18142   2.814   4.723  10.123 -1.7691  0.1924 -1.3202
  162SOPE   H5S18143   2.974   4.662  10.068  0.1042 -1.4143 -1.4849
  162SOPE   C2618144   2.806   4.570   9.970  0.3475  0.5087  0.4223
  162SOPE   H6R18145   2.823   4.638   9.883 -0.1337 -1.0205 -0.9128
  162SOPE   H6S18146   2.855   4.480   9.929  1.6029  2.0183 -1.6144
  162SOPE   C2718147   2.659   4.549   9.989  0.2233  0.3617  0.7446
  162SOPE   H7R18148   2.641   4.451  10.037  0.7351  0.7401  1.7360
  162SOPE   H7S18149   2.630   4.630  10.060  0.5133  1.0537  0.0958
  162SOPE   C2818150   2.579   4.550   9.857  0.6027  0.1051 -0.2403
  162SOPE   H8R18151   2.470   4.546   9.879  0.7424 -0.8374  0.2900
  162SOPE   H8S18152   2.593   4.644   9.799  1.3678 -0.1553 -0.4884
  162SOPE   C2918153   2.605   4.435   9.764 -0.2723  0.2147  0.5329
  162SOPE   H9118154   2.625   4.342   9.818  0.7451  0.5774  0.8043
  162SOPE  C21018155   2.592   4.440   9.630  0.2151  0.3482  0.1027
  162SOPE  H10118156   2.610   4.349   9.572  0.7855  0.0863  0.6692
  162SOPE  C21118157   2.547   4.563   9.553  0.7754 -0.0343 -0.5559
  162SOPE  H11R18158   2.632   4.607   9.496  2.4183 -1.3558  0.7668
  162SOPE  H11S18159   2.506   4.643   9.618  2.8793 -0.8680  1.9933
  162SOPE  C21218160   2.447   4.519   9.448 -0.5194  0.0435 -0.1940
  162SOPE  H12R18161   2.353   4.492   9.501 -0.4623  0.5615  0.1731
  162SOPE  H12S18162   2.495   4.436   9.392 -1.3365 -0.0552 -0.7722
  162SOPE  C21318163   2.405   4.618   9.342 -0.7774  0.6552 -0.1913
  162SOPE  H13R18164   2.486   4.632   9.268 -1.3502 -1.5473 -1.2949
  162SOPE  H13S18165   2.394   4.721   9.384  0.0287  0.9157 -0.5920
  162SOPE  C21418166   2.285   4.573   9.252  0.1702  0.6998  0.1650
  162SOPE  H14R18167   2.194   4.564   9.315  0.1556  2.3875  0.4192
  162SOPE  H14S18168   2.318   4.472   9.218  3.4143  2.2345 -1.6561
  162SOPE  C21518169   2.267   4.673   9.142  0.0670 -0.8991  1.2845
  162SOPE  H15R18170   2.362   4.679   9.085 -1.2240  2.8338 -0.8695
  162SOPE  H15S18171   2.250   4.768   9.198 -0.5251 -0.2603  0.0705
  162SOPE  C21618172   2.150   4.644   9.049 -0.0667 -0.6135  0.0730
  162SOPE  H16R18173   2.050   4.641   9.096 -1.2951  0.9915 -2.2810
  162SOPE  H16S18174   2.162   4.539   9.016 -0.0086 -0.6571  0.2303
  162SOPE  C21718175   2.147   4.733   8.927  0.4386 -0.1638 -0.9833
  162SOPE  H17R18176   2.075   4.681   8.861  0.3898 -0.8009 -0.4405
  162SOPE  H17S18177   2.247   4.724   8.878  0.9609 -0.2593  0.0646
  162SOPE  C21818178   2.107   4.880   8.940 -0.3183 -0.0213 -0.0961
  162SOPE  H18R18179   2.006   4.891   8.983 -0.1546  0.5276  0.1614
  162SOPE  H18S18180   2.104   4.938   8.845  0.1893 -1.4363 -0.9984
  162SOPE  H18T18181   2.184   4.934   8.999  0.9104  1.6703 -2.9959
  162SOPE   C3318182   3.271   4.744  10.542  0.5814  0.2346  0.2755
  162SOPE   H3X18183   3.339   4.832  10.534 -0.7129  1.4196  1.6024
  162SOPE   H3Y18184   3.167   4.784  10.542 -0.6619 -2.6128  2.5384
  162SOPE   C3418185   3.297   4.662  10.412 -0.5281 -0.2504  0.0752
  162SOPE   H4X18186   3.219   4.584  10.402 -1.7539  0.8384  0.8728
  162SOPE   H4Y18187   3.394   4.607  10.415 -0.7616 -0.6394  2.3174
  162SOPE   C3518188   3.319   4.740  10.281  0.2887  0.5526 -0.4908
  162SOPE   H5X18189   3.421   4.785  10.284  0.3805  0.3080  0.4000
  162SOPE   H5Y18190   3.249   4.825  10.273  0.2242  0.5801  0.3041
  162SOPE   C3618191   3.297   4.653  10.154  0.2661 -0.0724 -0.6352
  162SOPE   H6X18192   3.189   4.637  10.138 -0.0062  1.0746 -0.0569
  162SOPE   H6Y18193   3.343   4.553  10.172  0.2705  0.0473  0.0510
  162SOPE   C3718194   3.372   4.705  10.029 -0.5788  0.4524 -0.6517
  162SOPE   H7X18195   3.480   4.692  10.047 -0.3506  1.0108 -1.5390
  162SOPE   H7Y18196   3.349   4.813  10.013 -2.9859  0.2103  0.6478
  162SOPE   C3818197   3.321   4.633   9.893 -0.0594 -0.3349  0.1011
  162SOPE   H8X18198   3.212   4.653   9.884  0.1890  0.7802 -0.6609
  162SOPE   H8Y18199   3.332   4.523   9.898  1.0354 -0.2191  0.4794
  162SOPE   C3918200   3.404   4.697   9.775  0.2420  0.0222  0.0473
  162SOPE   H9X18201   3.509   4.698   9.811 -0.1392  0.9866  1.2198
  162SOPE   H9Y18202   3.361   4.798   9.759 -1.2305 -0.1021  2.5952
  162SOPE  C31018203   3.383   4.610   9.653 -0.5203  0.6265  0.2942
  162SOPE  H10X18204   3.280   4.571   9.650 -0.2929 -0.0184 -3.2088
  162SOPE  H10Y18205   3.460   4.531   9.664  0.0200  1.2278  1.0478
  162SOPE  C31118206   3.410   4.685   9.525 -0.2185  0.2365 -0.0071
  162SOPE  H11X18207   3.520   4.698   9.510 -0.2822 -1.3692 -2.2654
  162SOPE  H11Y18208   3.373   4.789   9.512  0.8328  0.5224 -0.8565
  162SOPE  C31218209   3.360   4.597   9.413 -0.2907 -0.2481 -0.0076
  162SOPE  H12X18210   3.252   4.621   9.401 -0.4793 -0.9175  0.3322
  162SOPE  H12Y18211   3.371   4.491   9.444  0.6388  0.1963  1.2779
  162SOPE  C31318212   3.433   4.613   9.280 -0.4572 -0.7137 -1.2130
  162SOPE  H13X18213   3.529   4.557   9.274 -0.7372 -1.5044  0.7782
  162SOPE  H13Y18214   3.437   4.722   9.261 -0.4456 -0.2565  1.1460
  162SOPE  C31418215   3.349   4.550   9.166  0.4942  0.4237  0.2193
  162SOPE  H14X18216   3.241   4.578   9.168  0.2099 -0.1725 -2.4448
  162SOPE  H14Y18217   3.341   4.440   9.176 -0.8927  0.3684 -1.1292
  162SOPE  C31518218   3.418   4.565   9.031  0.5134 -0.2633  1.3902
  162SOPE  H15X18219   3.378   4.488   8.961 -0.3349  1.4173 -0.0649
  162SOPE  H15Y18220   3.527   4.546   9.027  0.6131  0.1786 -2.3956
  162SOPE  C31618221   3.387   4.701   8.972  0.3460 -0.6828 -0.3640
  162SOPE  H16X18222   3.473   4.769   8.995  0.6380 -0.8408 -0.9588
  162SOPE  H16Y18223   3.302   4.754   9.020  0.2958 -1.0970  0.0085
  162SOPE  C31718224   3.340   4.695   8.820 -0.0132  0.1141  0.0039
  162SOPE  H17X18225   3.288   4.790   8.797 -0.2082  0.1496  0.5735
  162SOPE  H17Y18226   3.262   4.616   8.815 -0.1720  0.1186  1.7532
  162SOPE  C31818227   3.456   4.668   8.727  0.3416 -0.0437  0.7660
  162SOPE  H18X18228   3.516   4.585   8.770  1.6920  1.9233  2.9161
  162SOPE  H18Y18229   3.522   4.757   8.720  0.4527 -0.0700  1.3551
  162SOPE  H18Z18230   3.426   4.640   8.624  0.8336  0.5824  0.4497
  163SOPE     N18231   3.818   2.641  10.402 -0.8412  0.6130 -0.1393
  163SOPE   HN118232   3.766   2.731  10.390 -0.2715  1.0028  0.2658
  163SOPE   HN218233   3.890   2.635  10.328 -0.2171  1.0085  0.4185
  163SOPE   HN318234   3.745   2.568  10.408  1.1590 -1.5707 -1.1007
  163SOPE   C1218235   3.885   2.643  10.541 -0.1198 -0.7067  0.7433
  163SOPE  H12A18236   3.956   2.729  10.546  0.5105 -0.9865 -2.0467
  163SOPE  H12B18237   3.960   2.561  10.540  3.4912  2.2537 -1.7843
  163SOPE   C1118238   3.782   2.649  10.649  0.0218  0.1882  0.3652
  163SOPE  H11A18239   3.700   2.715  10.615 -0.0928 -0.9748 -1.8419
  163SOPE  H11B18240   3.818   2.696  10.743 -0.1745 -1.1959  1.1561
  163SOPE     P18241   3.589   2.477  10.655 -0.1689  0.2196  0.1188
  163SOPE   O1318242   3.492   2.557  10.730 -0.6243 -0.3911 -0.9361
  163SOPE   O1418243   3.578   2.334  10.675 -0.1712  0.0922  0.1052
  163SOPE   O1218244   3.732   2.523  10.689 -0.2927  0.6975 -0.5046
  163SOPE   O1118245   3.575   2.518  10.502  0.0780  0.6771 -0.0911
  163SOPE    C118246   3.521   2.424  10.402 -0.2853  0.3125 -0.2504
  163SOPE    HA18247   3.423   2.382  10.430  0.0807  1.4717  3.1534
  163SOPE    HB18248   3.589   2.338  10.383  1.5881  1.7758 -0.5031
  163SOPE    C218249   3.472   2.504  10.286 -0.7824 -0.3496  0.0961
  163SOPE    HS18250   3.416   2.437  10.218 -1.7137 -1.8243  2.1768
  163SOPE   O2118251   3.582   2.551  10.206 -0.2778 -0.3377  0.4122
  163SOPE   C2118252   3.621   2.459  10.117  0.4207  0.3712 -0.1379
  163SOPE   O2218253   3.583   2.344  10.112  0.1091  0.1149  0.0950
  163SOPE   C2218254   3.729   2.513  10.020  0.5810  0.1526 -0.1372
  163SOPE   H2R18255   3.821   2.522  10.081 -0.3315  1.3427  1.1120
  163SOPE   H2S18256   3.705   2.618   9.993  1.2669  0.2334 -0.4544
  163SOPE    C318257   3.376   2.617  10.325 -0.2744  0.1940  0.3902
  163SOPE    HX18258   3.438   2.696  10.373 -0.5636  2.1841 -2.3001
  163SOPE    HY18259   3.306   2.591  10.408  0.7681  2.9132  2.2961
  163SOPE   O3118260   3.299   2.656  10.209  0.6285 -0.2439 -0.5616
  163SOPE   C3118261   3.330   2.779  10.165 -0.1717  1.0303 -0.4900
  163SOPE   O3218262   3.412   2.852  10.216 -0.3391  0.1983  0.1672
  163SOPE   C3218263   3.252   2.811  10.043  0.5597 -1.1381 -0.7188
  163SOPE   H2X18264   3.164   2.864  10.084  2.4219  0.8825  0.9444
  163SOPE   H2Y18265   3.220   2.712  10.004  1.7056 -1.0419 -1.9673
  163SOPE   C2318266   3.743   2.432   9.897 -0.1852  0.0152 -0.3073
  163SOPE   H3R18267   3.751   2.324   9.922 -1.1314  0.1159  0.4473
  163SOPE   H3S18268   3.838   2.469   9.851 -0.1926 -0.8466 -1.0423
  163SOPE   C2418269   3.623   2.445   9.801 -0.1698  0.2378 -0.3212
  163SOPE   H4R18270   3.634   2.370   9.720  0.8029 -0.3861  0.3716
  163SOPE   H4S18271   3.530   2.422   9.857 -0.0459  0.0970 -0.1699
  163SOPE   C2518272   3.591   2.580   9.743 -0.2394  0.3195 -0.2774
  163SOPE   H5R18273   3.535   2.638   9.820  0.0707 -0.8490  0.8766
  163SOPE   H5S18274   3.689   2.628   9.722  0.9447 -1.8626 -0.0660
  163SOPE   C2618275   3.509   2.571   9.609 -1.0833 -0.1245 -0.4808
  163SOPE   H6R18276   3.576   2.533   9.529 -1.1491 -2.6745  0.5477
  163SOPE   H6S18277   3.436   2.489   9.627 -1.2907 -0.3875 -2.3507
  163SOPE   C2718278   3.453   2.709   9.558  0.0738 -0.1700 -0.1632
  163SOPE   H7R18279   3.401   2.690   9.462 -0.1283  0.3099 -0.1504
  163SOPE   H7S18280   3.390   2.758   9.635  1.8164 -1.0582  1.9422
  163SOPE   C2818281   3.570   2.802   9.520 -0.4241  0.0371  0.2097
  163SOPE   H8R18282   3.632   2.836   9.606  1.1842 -3.0659  0.4232
  163SOPE   H8S18283   3.635   2.745   9.451 -1.2405 -1.6572  0.7726
  163SOPE   C2918284   3.510   2.924   9.455 -0.3454 -0.1294  0.5663
  163SOPE   H9118285   3.494   3.011   9.521 -2.4937  0.3207 -0.4527
  163SOPE  C21018286   3.485   2.933   9.323 -0.1510 -0.0846  0.0949
  163SOPE  H10118287   3.436   3.026   9.289  1.3280  0.0734 -1.7903
  163SOPE  C21118288   3.494   2.843   9.207  0.3762 -0.2455 -0.2792
  163SOPE  H11R18289   3.433   2.888   9.126  1.6938 -0.3522 -1.3758
  163SOPE  H11S18290   3.448   2.742   9.218  1.3970 -0.9434 -1.8868
  163SOPE  C21218291   3.629   2.820   9.138 -0.1684 -0.4837  0.1661
  163SOPE  H12R18292   3.604   2.745   9.060 -2.7975 -0.5988  1.0350
  163SOPE  H12S18293   3.701   2.770   9.206  1.1287 -0.0177 -0.8147
  163SOPE  C21318294   3.681   2.947   9.070  0.4922 -0.6796 -0.6861
  163SOPE  H13R18295   3.660   3.030   9.141 -1.4167  1.3792 -3.4069
  163SOPE  H13S18296   3.612   2.972   8.986 -1.4143 -1.4926  0.5633
  163SOPE  C21418297   3.828   2.946   9.018 -0.3712  0.2856  0.4647
  163SOPE  H14R18298   3.886   2.881   9.087 -0.8299 -0.2239  0.3776
  163SOPE  H14S18299   3.860   3.052   9.027 -1.1463  0.6152 -0.4491
  163SOPE  C21518300   3.836   2.902   8.869  0.0191 -0.4009  1.4055
  163SOPE  H15R18301   3.940   2.875   8.843 -1.3611 -2.9861 -2.1593
  163SOPE  H15S18302   3.804   2.993   8.815  1.9516  0.0013  0.8490
  163SOPE  C21618303   3.758   2.786   8.825  0.4656 -0.3325 -0.6034
  163SOPE  H16R18304   3.650   2.792   8.852 -0.0163 -2.3279 -1.8474
  163SOPE  H16S18305   3.783   2.695   8.885 -1.0059 -2.3342 -2.8373
  163SOPE  C21718306   3.760   2.762   8.675  0.3317 -0.0947  0.3254
  163SOPE  H17R18307   3.713   2.847   8.620  0.4552  0.4130  0.9941
  163SOPE  H17S18308   3.693   2.677   8.648 -2.0106  1.2305  1.6312
  163SOPE  C21818309   3.893   2.737   8.602 -0.4746  0.4431 -0.4496
  163SOPE  H18R18310   3.880   2.696   8.499  1.0887  0.2527 -0.5923
  163SOPE  H18S18311   3.952   2.663   8.660  1.9179  2.0535 -0.6505
  163SOPE  H18T18312   3.959   2.826   8.603  1.4662 -0.8910  2.0763
  163SOPE   C3318313   3.317   2.890   9.926  0.0081 -0.4026  1.3118
  163SOPE   H3X18314   3.393   2.827   9.875 -0.0195  0.2451  0.4668
  163SOPE   H3Y18315   3.369   2.983   9.956  0.0815 -0.3686  1.0761
  163SOPE   C3418316   3.206   2.931   9.835  0.5330 -0.6987  0.1351
  163SOPE   H4X18317   3.129   2.986   9.895 -0.6522 -1.4038 -0.6909
  163SOPE   H4Y18318   3.146   2.845   9.796 -0.7836 -0.0964  0.7790
  163SOPE   C3518319   3.253   3.022   9.719  0.5112  0.0986  0.9839
  163SOPE   H5X18320   3.355   2.995   9.686  0.4815  2.2188 -1.0940
  163SOPE   H5Y18321   3.273   3.124   9.760  3.7722  0.1204 -0.4046
  163SOPE   C3618322   3.154   3.019   9.601 -0.3972  0.2206  0.7387
  163SOPE   H6X18323   3.057   3.061   9.634 -1.0719 -0.0990 -0.7662
  163SOPE   H6Y18324   3.133   2.917   9.563  1.5808  0.1196 -0.2000
  163SOPE   C3718325   3.182   3.133   9.492  0.5229  0.0090 -0.6285
  163SOPE   H7X18326   3.284   3.125   9.448  0.2658 -0.7514 -1.1025
  163SOPE   H7Y18327   3.190   3.233   9.540  1.1170  0.6858 -2.0807
  163SOPE   C3818328   3.073   3.132   9.386  0.3724  0.1508 -0.2120
  163SOPE   H8X18329   2.972   3.153   9.429 -0.2496 -0.5734 -1.2732
  163SOPE   H8Y18330   3.063   3.026   9.355 -0.2215 -0.2473  1.2281
  163SOPE   C3918331   3.090   3.221   9.259 -0.0396 -0.1466  0.0257
  163SOPE   H9X18332   3.131   3.321   9.284  3.0635 -1.0767 -0.8228
  163SOPE   H9Y18333   2.989   3.225   9.213 -1.7987 -0.7387  3.4606
  163SOPE  C31018334   3.190   3.161   9.161  0.3562 -0.3922  0.0475
  163SOPE  H10X18335   3.155   3.055   9.157 -2.5614  0.4314  1.1400
  163SOPE  H10Y18336   3.293   3.163   9.202  0.4582  2.0820 -0.1939
  163SOPE  C31118337   3.175   3.229   9.026  0.1951 -0.4943  0.2922
  163SOPE  H11X18338   3.175   3.339   9.043  2.7115 -0.5897  1.4977
  163SOPE  H11Y18339   3.076   3.204   8.983  0.2532 -0.5521  0.1939
  163SOPE  C31218340   3.277   3.199   8.914  0.3416 -0.2455  0.2021
  163SOPE  H12X18341   3.275   3.091   8.890  1.0989 -0.5741  1.5264
  163SOPE  H12Y18342   3.378   3.223   8.953  0.6796 -0.4269 -0.5512
  163SOPE  C31318343   3.232   3.267   8.776  0.2352 -0.0665 -0.0689
  163SOPE  H13X18344   3.127   3.239   8.754 -0.2557  0.9508  0.8765
  163SOPE  H13Y18345   3.295   3.214   8.702  2.6442  0.4868  1.4858
  163SOPE  C31418346   3.270   3.412   8.760 -0.6316  0.5378  0.4110
  163SOPE  H14X18347   3.377   3.420   8.791 -0.7971 -4.1358  3.0063
  163SOPE  H14Y18348   3.213   3.479   8.828  0.7354  1.5978  0.5638
  163SOPE  C31518349   3.240   3.455   8.616 -0.2571  0.3074  0.5610
  163SOPE  H15X18350   3.157   3.391   8.581  0.9884 -0.7388 -0.5779
  163SOPE  H15Y18351   3.333   3.425   8.564 -1.1517 -0.5474 -0.6011
  163SOPE  C31618352   3.228   3.610   8.605  0.8959 -0.1505  0.0853
  163SOPE  H16X18353   3.310   3.659   8.661 -0.6943  0.7855  1.7040
  163SOPE  H16Y18354   3.136   3.636   8.661  0.2717 -1.5534 -0.2356
  163SOPE  C31718355   3.221   3.666   8.458 -0.0424  0.2730 -0.5168
  163SOPE  H17X18356   3.150   3.607   8.396  1.4570 -1.2036 -0.9283
  163SOPE  H17Y18357   3.321   3.627   8.428 -0.2027 -1.3541  0.9397
  163SOPE  C31818358   3.202   3.815   8.443  0.4869  0.0085  0.0007
  163SOPE  H18X18359   3.093   3.833   8.453  0.0777 -0.7588 -2.4522
  163SOPE  H18Y18360   3.248   3.844   8.346  0.5356  1.4604  0.4357
  163SOPE  H18Z18361   3.263   3.863   8.522 -0.7844 -0.4788  1.3206
  164SOPE     N18362   6.321   6.257  10.868 -0.0172  0.3235  0.8205
  164SOPE   HN118363   6.412   6.307  10.862  0.0247  0.1416 -0.1764
  164SOPE   HN218364   6.329   6.194  10.951  0.9054  0.8043  1.1143
  164SOPE   HN318365   6.319   6.191  10.788 -1.8941  0.2429  0.8957
  164SOPE   C1218366   6.190   6.341  10.880  0.7775  0.2730  0.4354
  164SOPE  H12A18367   6.200   6.422  10.805  0.3854 -0.6677 -0.6610
  164SOPE  H12B18368   6.206   6.392  10.977 -1.6395 -0.7734  1.4724
  164SOPE   C1118369   6.064   6.255  10.873 -0.1811 -0.2629  0.1112
  164SOPE  H11A18370   5.982   6.330  10.874 -0.5414 -0.5342 -2.5334
  164SOPE  H11B18371   6.064   6.182  10.957  1.6139  0.7837  1.0837
  164SOPE     P18372   5.917   6.140  10.691  0.1631  0.2688  0.5075
  164SOPE   O1318373   5.803   6.120  10.784 -0.7752  0.2746  0.6399
  164SOPE   O1418374   5.952   6.029  10.593 -0.0087 -1.0019 -0.0378
  164SOPE   O1218375   6.055   6.172  10.757 -0.4413 -0.0737  0.1431
  164SOPE   O1118376   5.891   6.274  10.612 -0.0399  0.1616  0.2384
  164SOPE    C118377   5.993   6.350  10.547  0.7882  0.4211  0.8460
  164SOPE    HA18378   6.082   6.286  10.527  1.5495  1.3015  1.3285
  164SOPE    HB18379   6.027   6.432  10.613 -1.8900  1.9862  0.3849
  164SOPE    C218380   5.942   6.393  10.405 -0.8026  0.3757 -0.2135
  164SOPE    HS18381   5.836   6.424  10.409 -1.3327 -1.3940  0.5925
  164SOPE   O2118382   5.966   6.288  10.307 -0.0046  0.2511 -0.5354
  164SOPE   C2118383   5.870   6.194  10.294 -0.1113 -0.0058  0.0897
  164SOPE   O2218384   5.764   6.194  10.346  0.0833  0.1890  0.3127
  164SOPE   C2218385   5.916   6.098  10.189  0.0975 -0.0217  0.2944
  164SOPE   H2R18386   5.862   6.005  10.215 -0.2865  0.1456  0.0996
  164SOPE   H2S18387   6.027   6.098  10.202  0.2404  1.1453 -0.6790
  164SOPE    C318388   6.035   6.508  10.364  0.1083  0.3000 -0.2013
  164SOPE    HX18389   6.142   6.480  10.367  0.2381  0.4946 -1.9922
  164SOPE    HY18390   6.036   6.582  10.446 -1.4825  1.5515 -1.2438
  164SOPE   O3118391   6.002   6.566  10.238 -0.1459 -0.4648  0.0284
  164SOPE   C3118392   5.904   6.665  10.242 -0.4888 -1.3267 -0.2796
  164SOPE   O3218393   5.857   6.713  10.344 -0.1038 -0.2017  0.2443
  164SOPE   C3218394   5.879   6.717  10.096 -0.3882 -0.0013 -0.4777
  164SOPE   H2X18395   5.907   6.636  10.026 -1.0792 -1.1788  0.5656
  164SOPE   H2Y18396   5.948   6.802  10.076  2.0788 -1.5485  0.9986
  164SOPE   C2318397   5.876   6.123  10.041 -1.1075  0.0859  0.9076
  164SOPE   H3R18398   5.765   6.129  10.047 -1.1920  1.3059 -0.9640
  164SOPE   H3S18399   5.924   6.040   9.984  0.3635  1.4435  0.1099
  164SOPE   C2418400   5.926   6.259   9.992 -0.0182  0.2373  0.0949
  164SOPE   H4R18401   5.876   6.337  10.053 -1.1363 -1.0433  0.8398
  164SOPE   H4S18402   6.035   6.260  10.013  0.5375  2.7409 -2.2670
  164SOPE   C2518403   5.911   6.290   9.841 -0.1483 -0.4359  0.2031
  164SOPE   H5R18404   5.915   6.203   9.772  0.5924 -0.4540  0.2618
  164SOPE   H5S18405   5.810   6.336   9.833  0.4553  0.7049 -1.2889
  164SOPE   C2618406   5.998   6.413   9.805 -0.2626 -0.2573  1.0256
  164SOPE   H6R18407   5.973   6.502   9.867 -0.2672  1.2773 -1.0618
  164SOPE   H6S18408   6.106   6.397   9.826  0.4314  0.2448 -1.7498
  164SOPE   C2718409   5.999   6.443   9.644  0.6521 -0.4275  0.0370
  164SOPE   H7R18410   6.027   6.345   9.600  2.2105 -0.1857  0.4168
  164SOPE   H7S18411   5.895   6.467   9.612  0.6472 -1.4622 -0.7855
  164SOPE   C2818412   6.087   6.567   9.616  0.8583  0.2716 -0.3447
  164SOPE   H8R18413   6.074   6.587   9.508  2.2083  1.9068 -0.2408
  164SOPE   H8S18414   6.055   6.659   9.669 -2.5504 -0.5171 -0.8148
  164SOPE   C2918415   6.234   6.536   9.642 -0.2966 -0.9341  0.4695
  164SOPE   H9118416   6.242   6.514   9.749  0.8405  1.7374  1.0170
  164SOPE  C21018417   6.335   6.525   9.551  0.0580  0.5869 -0.4177
  164SOPE  H10118418   6.437   6.496   9.581  0.1636  1.8415  0.5306
  164SOPE  C21118419   6.324   6.542   9.408  0.8716 -0.4259 -0.2732
  164SOPE  H11R18420   6.427   6.552   9.367  1.5861 -1.3120  1.2326
  164SOPE  H11S18421   6.281   6.644   9.398 -0.1639 -0.8460 -0.1987
  164SOPE  C21218422   6.242   6.446   9.325  0.3317  0.0755  0.9426
  164SOPE  H12R18423   6.149   6.410   9.375  0.3061  1.6629  2.1305
  164SOPE  H12S18424   6.307   6.359   9.301  0.1442  0.2288 -0.1404
  164SOPE  C21318425   6.191   6.507   9.184 -0.0140 -0.2656 -0.3823
  164SOPE  H13R18426   6.269   6.579   9.153  1.1701 -0.5754  1.7036
  164SOPE  H13S18427   6.107   6.580   9.188  0.8189  0.7577 -1.1092
  164SOPE  C21418428   6.149   6.402   9.084 -0.3995  0.7211 -0.4090
  164SOPE  H14R18429   6.060   6.343   9.115  0.3740 -0.4791 -0.3985
  164SOPE  H14S18430   6.237   6.334   9.086  0.8354  2.2271  2.6338
  164SOPE  C21518431   6.126   6.452   8.943  0.0022 -0.3030 -0.8056
  164SOPE  H15R18432   6.118   6.372   8.866 -0.2661 -3.1282  1.9693
  164SOPE  H15S18433   6.208   6.519   8.909  0.5078 -0.2166  0.5384
  164SOPE  C21618434   5.987   6.531   8.940  0.1198  0.2459  0.1752
  164SOPE  H16R18435   6.005   6.616   9.009  0.2892  0.9501 -0.7199
  164SOPE  H16S18436   5.909   6.460   8.975  1.2774 -1.4672 -0.5942
  164SOPE  C21718437   5.935   6.565   8.792  0.9838 -0.1675  0.5231
  164SOPE  H17R18438   6.016   6.616   8.736 -0.3107  0.4693 -0.8379
  164SOPE  H17S18439   5.852   6.638   8.792 -0.2436 -1.4986 -0.8599
  164SOPE  C21818440   5.895   6.444   8.704  1.1383 -0.0590 -0.1547
  164SOPE  H18R18441   5.795   6.402   8.727  0.7768 -1.5651 -3.7795
  164SOPE  H18S18442   5.974   6.366   8.711 -0.5458 -1.7915  0.4594
  164SOPE  H18T18443   5.879   6.475   8.598 -1.2649 -0.6409 -0.0271
  164SOPE   C3318444   5.728   6.736  10.078  0.1432 -0.7231 -0.1113
  164SOPE   H3X18445   5.675   6.782  10.165 -1.3523 -1.9469 -0.3369
  164SOPE   H3Y18446   5.684   6.635  10.066 -1.5071  0.0404 -0.8222
  164SOPE   C3418447   5.691   6.814   9.952 -0.6219 -0.3176  0.3846
  164SOPE   H4X18448   5.737   6.915   9.946 -2.5485  0.7967  2.7035
  164SOPE   H4Y18449   5.583   6.840   9.951 -0.4921  0.3063 -1.6324
  164SOPE   C3518450   5.744   6.745   9.827  0.4957 -1.2803 -0.5697
  164SOPE   H5X18451   5.697   6.645   9.816  1.4850 -1.8635  0.2661
  164SOPE   H5Y18452   5.851   6.722   9.842  0.6033 -1.3174 -1.3601
  164SOPE   C3618453   5.714   6.826   9.701  0.6085  0.3108  1.0221
  164SOPE   H6X18454   5.772   6.921   9.702 -1.0625  1.3758  0.8968
  164SOPE   H6Y18455   5.604   6.844   9.700  0.1947 -1.7311 -1.1699
  164SOPE   C3718456   5.745   6.758   9.572 -0.7178 -0.5862  0.6195
  164SOPE   H7X18457   5.711   6.653   9.568  3.3974 -2.0457 -0.6955
  164SOPE   H7Y18458   5.855   6.753   9.562 -0.6082  1.9841 -0.4665
  164SOPE   C3818459   5.699   6.840   9.446  0.8014 -0.1353 -0.5170
  164SOPE   H8X18460   5.740   6.942   9.453 -3.0324  1.4974  1.6678
  164SOPE   H8Y18461   5.592   6.872   9.448  0.7052 -0.4531 -0.3807
  164SOPE   C3918462   5.745   6.785   9.312 -0.3807 -0.4030 -0.5649
  164SOPE   H9X18463   5.719   6.679   9.294  0.9322 -0.9177  0.3875
  164SOPE   H9Y18464   5.856   6.796   9.308 -0.2561 -1.5424 -0.6952
  164SOPE  C31018465   5.694   6.871   9.201  0.2371 -0.3636  0.3742
  164SOPE  H10X18466   5.725   6.978   9.205  2.5018 -0.7904 -2.4336
  164SOPE  H10Y18467   5.584   6.882   9.211  0.0712  0.3066 -1.7595
  164SOPE  C31118468   5.748   6.807   9.077  0.0141 -0.3792 -0.0070
  164SOPE  H11X18469   5.744   6.696   9.083  2.1701 -0.5664 -0.9460
  164SOPE  H11Y18470   5.859   6.820   9.072  0.1400 -1.2832  0.3298
  164SOPE  C31218471   5.671   6.856   8.956 -0.2615 -0.5189  0.3682
  164SOPE  H12X18472   5.561   6.866   8.974 -0.7366  1.4868 -2.8425
  164SOPE  H12Y18473   5.679   6.773   8.883  3.8869 -0.2400  0.2923
  164SOPE  C31318474   5.716   6.991   8.898 -0.4486 -0.2530 -0.2826
  164SOPE  H13X18475   5.820   6.993   8.858 -0.4619 -0.4530 -0.3268
  164SOPE  H13Y18476   5.709   7.066   8.980 -2.0671 -0.0255 -0.6017
  164SOPE  C31418477   5.653   7.038   8.763  0.1398  0.8440  0.8413
  164SOPE  H14X18478   5.669   6.965   8.680  0.3028  1.3393  0.4317
  164SOPE  H14Y18479   5.712   7.125   8.726  0.5195 -0.5779 -2.2100
  164SOPE  C31518480   5.498   7.069   8.764 -0.4250 -0.4675  0.2348
  164SOPE  H15X18481   5.481   7.137   8.850  5.7175  1.4380  0.4277
  164SOPE  H15Y18482   5.445   6.973   8.778 -1.6703  0.0173 -0.9901
  164SOPE  C31618483   5.455   7.137   8.633 -0.2236 -0.1973  0.2791
  164SOPE  H16X18484   5.491   7.074   8.549  3.3266  1.1459  0.6345
  164SOPE  H16Y18485   5.503   7.236   8.628 -1.0602  0.4938  3.5488
  164SOPE  C31718486   5.299   7.166   8.629  0.0270  0.2054 -0.3362
  164SOPE  H17X18487   5.270   7.252   8.565 -1.4921  0.5331  0.7283
  164SOPE  H17Y18488   5.278   7.197   8.733 -1.8250 -1.7602 -0.0327
  164SOPE  C31818489   5.228   7.046   8.572  0.1727 -0.7353 -0.1808
  164SOPE  H18X18490   5.268   6.955   8.621 -0.5962 -0.9565  0.0492
  164SOPE  H18Y18491   5.253   7.033   8.464  1.3212 -2.4685  0.2636
  164SOPE  H18Z18492   5.118   7.059   8.582  0.3144  0.1267  0.3748
  165SOPE     N18493   5.258   0.620  11.029  0.9828 -0.4585  0.2875
  165SOPE   HN118494   5.173   0.588  11.079  1.3929 -1.8602  0.1375
  165SOPE   HN218495   5.342   0.565  11.059  0.2160 -1.6659  0.3011
  165SOPE   HN318496   5.270   0.717  11.063 -1.6969  0.6257 -1.5588
  165SOPE   C1218497   5.242   0.627  10.879  0.6019 -0.2847 -0.2641
  165SOPE  H12A18498   5.178   0.714  10.851  1.3816  0.7064  0.9152
  165SOPE  H12B18499   5.187   0.541  10.835 -2.6699 -0.1685  3.1393
  165SOPE   C1118500   5.379   0.622  10.803  0.2624  0.3655 -0.2270
  165SOPE  H11A18501   5.361   0.585  10.700 -0.5678 -0.7445  0.2918
  165SOPE  H11B18502   5.444   0.538  10.834  1.2710  0.7281 -1.3024
  165SOPE     P18503   5.437   0.874  10.724 -0.4137  0.0247  0.0016
  165SOPE   O1318504   5.507   0.986  10.790 -0.6383  0.1169  0.0297
  165SOPE   O1418505   5.296   0.902  10.702 -0.3157  0.2382  0.2727
  165SOPE   O1218506   5.458   0.742  10.813  0.1976 -0.5626 -0.2480
  165SOPE   O1118507   5.507   0.831  10.593 -0.6488 -0.3193 -0.0462
  165SOPE    C118508   5.625   0.886  10.534 -0.7350 -0.0068 -0.2936
  165SOPE    HA18509   5.681   0.796  10.501 -1.0456 -0.0901 -0.5994
  165SOPE    HB18510   5.687   0.935  10.611 -0.5410  0.7627 -0.9195
  165SOPE    C218511   5.598   0.975  10.408 -0.0842  0.1984  0.5229
  165SOPE    HS18512   5.514   0.935  10.349 -0.4245  0.1368  1.0439
  165SOPE   O2118513   5.721   0.987  10.327 -0.0087 -0.0651 -0.8772
  165SOPE   C2118514   5.735   0.894  10.242  0.2132 -0.1026 -0.7760
  165SOPE   O2218515   5.671   0.787  10.229 -0.6745 -0.2655 -0.9520
  165SOPE   C2218516   5.844   0.931  10.138 -1.1316  0.2745 -0.6482
  165SOPE   H2R18517   5.940   0.927  10.193 -0.3692 -0.3949 -1.9536
  165SOPE   H2S18518   5.825   1.036  10.107 -2.0340  0.7830  1.4645
  165SOPE    C318519   5.547   1.118  10.440  0.2116 -0.2839 -0.0135
  165SOPE    HX18520   5.623   1.173  10.499 -0.6209 -0.1997  1.0025
  165SOPE    HY18521   5.452   1.116  10.498  0.5043  0.2142  0.4979
  165SOPE   O3118522   5.530   1.193  10.313 -0.3029 -0.2167  0.0628
  165SOPE   C3118523   5.409   1.188  10.260  0.0043  0.1281  0.1521
  165SOPE   O3218524   5.317   1.124  10.313  0.4467 -0.6119  0.0279
  165SOPE   C3218525   5.411   1.240  10.119 -0.4822  0.0146  0.1979
  165SOPE   H2X18526   5.450   1.344  10.120  2.6990 -1.0676 -0.8456
  165SOPE   H2Y18527   5.311   1.252  10.071  0.2776  1.0338 -1.2184
  165SOPE   C2318528   5.836   0.838  10.024 -0.2956  0.2274  0.2143
  165SOPE   H3R18529   5.733   0.829   9.984  0.9128 -0.4796 -3.0795
  165SOPE   H3S18530   5.865   0.735  10.057  0.6933  0.5015  0.2465
  165SOPE   C2418531   5.923   0.880   9.900 -0.0769 -1.3691 -1.1758
  165SOPE   H4R18532   5.964   0.982   9.917 -2.6244 -0.3634 -0.5210
  165SOPE   H4S18533   6.011   0.814   9.904  2.3495  1.5658  3.5538
  165SOPE   C2518534   5.854   0.879   9.763  0.2350 -0.3249  0.1847
  165SOPE   H5R18535   5.814   0.775   9.757  0.2877 -0.2655 -3.4728
  165SOPE   H5S18536   5.779   0.960   9.757  0.7887  0.1715 -0.1998
  165SOPE   C2618537   5.950   0.897   9.648 -0.1264 -0.1968 -0.1847
  165SOPE   H6R18538   5.967   1.007   9.643  0.0592 -0.0474  2.3560
  165SOPE   H6S18539   6.041   0.843   9.682 -2.2649 -1.8345  3.6328
  165SOPE   C2718540   5.906   0.835   9.516  0.1831  0.2388  0.3774
  165SOPE   H7R18541   5.897   0.724   9.520 -0.5025  0.3134  0.9941
  165SOPE   H7S18542   5.813   0.879   9.474  0.5738 -2.0046 -3.2726
  165SOPE   C2818543   5.995   0.866   9.392  0.3049 -0.1988  0.0299
  165SOPE   H8R18544   5.989   0.975   9.375 -1.2329 -0.2588  0.0980
  165SOPE   H8S18545   6.092   0.828   9.432  0.4050 -1.8917 -1.6674
  165SOPE   C2918546   5.950   0.802   9.258 -0.6652  0.0381  0.0969
  165SOPE   H9118547   5.843   0.776   9.249 -0.8420  1.1390 -1.5440
  165SOPE  C21018548   6.025   0.790   9.145 -0.5198  0.3592 -0.3677
  165SOPE  H10118549   5.982   0.747   9.053  2.9978  2.0275 -3.0737
  165SOPE  C21118550   6.168   0.830   9.135 -0.6465 -0.2483 -0.2497
  165SOPE  H11R18551   6.205   0.858   9.236 -1.1087 -0.5455  0.0049
  165SOPE  H11S18552   6.185   0.923   9.076  0.1812 -0.9552 -1.1616
  165SOPE  C21218553   6.261   0.716   9.077 -0.4375 -0.0992 -0.9551
  165SOPE  H12R18554   6.241   0.628   9.142 -0.7297 -0.4879 -1.5608
  165SOPE  H12S18555   6.366   0.749   9.093 -0.7109  0.3179  0.0009
  165SOPE  C21318556   6.237   0.669   8.939  0.5234  0.6257  0.0490
  165SOPE  H13R18557   6.129   0.645   8.927  0.9404 -2.7734  1.8347
  165SOPE  H13S18558   6.275   0.564   8.944 -1.5938 -0.2391 -0.8263
  165SOPE  C21418559   6.309   0.744   8.825 -0.0155  0.7639  0.5272
  165SOPE  H14R18560   6.417   0.761   8.847  0.1883  0.2918 -0.0842
  165SOPE  H14S18561   6.274   0.848   8.807  0.5956  0.6520 -1.6406
  165SOPE  C21518562   6.303   0.666   8.690 -0.7831  0.2956 -0.1849
  165SOPE  H15R18563   6.311   0.558   8.710  1.0436  0.3172 -0.6842
  165SOPE  H15S18564   6.391   0.697   8.629 -0.9942  2.4047  0.4913
  165SOPE  C21618565   6.181   0.685   8.605  0.2244  0.5567  0.1127
  165SOPE  H16R18566   6.093   0.674   8.671  1.8645  0.9969  2.4918
  165SOPE  H16S18567   6.178   0.606   8.526  2.4210 -0.8930  1.3568
  165SOPE  C21718568   6.177   0.821   8.536 -0.4228 -0.0790  0.0368
  165SOPE  H17R18569   6.223   0.814   8.435 -0.0261 -0.8732  0.2648
  165SOPE  H17S18570   6.227   0.898   8.599 -3.5284  1.0371  1.3037
  165SOPE  C21818571   6.030   0.861   8.516  0.2126 -0.2547 -1.0379
  165SOPE  H18R18572   6.027   0.950   8.449  1.4823  1.0664  0.5444
  165SOPE  H18S18573   5.980   0.897   8.609 -0.7196  0.8283 -1.9372
  165SOPE  H18T18574   5.971   0.776   8.477  0.8030 -0.5692 -1.2574
  165SOPE   C3318575   5.499   1.170  10.024 -0.5041  0.1744  0.0800
  165SOPE   H3X18576   5.472   1.062  10.021  2.5107 -0.7904  2.6671
  165SOPE   H3Y18577   5.607   1.180  10.047 -0.6210  2.1435 -0.0278
  165SOPE   C3418578   5.494   1.232   9.880 -0.0849  0.3314  0.2165
  165SOPE   H4X18579   5.523   1.339   9.875 -0.0724  0.4662  2.2740
  165SOPE   H4Y18580   5.387   1.212   9.861 -0.7503 -1.0524  4.3715
  165SOPE   C3518581   5.588   1.155   9.784  0.3615 -0.3571 -0.8314
  165SOPE   H5X18582   5.576   1.046   9.801  0.9540 -0.1368  1.3420
  165SOPE   H5Y18583   5.689   1.176   9.824 -0.5529  1.1404  0.8466
  165SOPE   C3618584   5.558   1.194   9.638 -0.5755 -0.3346 -0.0707
  165SOPE   H6X18585   5.571   1.303   9.626 -0.5049 -0.0447  2.2543
  165SOPE   H6Y18586   5.449   1.182   9.623 -0.9052  0.7394  1.2947
  165SOPE   C3718587   5.647   1.113   9.536 -0.5593  0.4674  0.2388
  165SOPE   H7X18588   5.649   1.011   9.579  0.2159  2.0139  4.4808
  165SOPE   H7Y18589   5.752   1.147   9.534 -0.8213  1.2814 -0.3501
  165SOPE   C3818590   5.595   1.112   9.394  0.4097 -0.3713 -0.2598
  165SOPE   H8X18591   5.487   1.089   9.382  0.0039  0.0095  2.1344
  165SOPE   H8Y18592   5.644   1.031   9.337 -0.3801 -0.6267 -0.5871
  165SOPE   C3918593   5.632   1.240   9.320  1.3336  0.1697  0.0019
  165SOPE   H9X18594   5.730   1.278   9.356 -0.2505  3.1418  1.5019
  165SOPE   H9Y18595   5.556   1.320   9.332  0.6166 -0.4048 -0.6114
  165SOPE  C31018596   5.650   1.217   9.165  0.3784 -1.0892  0.2171
  165SOPE  H10X18597   5.646   1.319   9.122  2.6911  0.0397  2.4353
  165SOPE  H10Y18598   5.567   1.152   9.129  1.3243 -2.4302  0.3497
  165SOPE  C31118599   5.784   1.153   9.138 -0.0629  0.2774 -0.7860
  165SOPE  H11X18600   5.799   1.057   9.192 -1.4637 -0.3776 -1.5029
  165SOPE  H11Y18601   5.854   1.234   9.168 -1.1219  0.5297  1.1339
  165SOPE  C31218602   5.814   1.125   8.987 -0.2808  0.2531 -0.0404
  165SOPE  H12X18603   5.755   1.040   8.948  2.0220 -1.5154  0.1033
  165SOPE  H12Y18604   5.919   1.094   8.970 -0.7940 -1.6041 -0.0426
  165SOPE  C31318605   5.777   1.242   8.893  0.4604 -0.2947 -1.0281
  165SOPE  H13X18606   5.828   1.332   8.932  0.1473 -1.2950  1.9992
  165SOPE  H13Y18607   5.670   1.268   8.886  0.2117 -0.6277  0.9722
  165SOPE  C31418608   5.820   1.227   8.745  0.2280 -0.0364  0.3948
  165SOPE  H14X18609   5.802   1.320   8.687  1.7919  0.8300  1.2352
  165SOPE  H14Y18610   5.744   1.159   8.701  0.9240  0.4231 -1.5899
  165SOPE  C31518611   5.956   1.172   8.708 -0.9473  1.0715  0.5336
  165SOPE  H15X18612   5.948   1.157   8.598 -1.6961  0.8152  0.6160
  165SOPE  H15Y18613   5.951   1.064   8.734 -0.7721  0.6779 -0.9502
  165SOPE  C31618614   6.083   1.244   8.762  0.7764  0.1566 -0.2133
  165SOPE  H16X18615   6.101   1.230   8.871 -2.5447  0.9424  0.5466
  165SOPE  H16Y18616   6.065   1.352   8.745  1.4872 -0.0012 -2.1792
  165SOPE  C31718617   6.205   1.209   8.675  0.2300 -0.5878  0.9860
  165SOPE  H17X18618   6.227   1.100   8.675  2.5406 -0.3178 -3.2548
  165SOPE  H17Y18619   6.287   1.255   8.734 -0.0434 -0.2382  1.0951
  165SOPE  C31818620   6.205   1.268   8.530  0.5069 -0.0205 -0.2151
  165SOPE  H18X18621   6.207   1.378   8.544  1.3191 -0.1824  1.1535
  165SOPE  H18Y18622   6.108   1.241   8.483 -1.0588  1.9514  1.6701
  165SOPE  H18Z18623   6.293   1.229   8.474 -0.5844 -1.9760 -0.6829
  166SOPE     N18624   2.821   2.615  10.794 -0.2297 -0.7415  0.1753
  166SOPE   HN118625   2.724   2.635  10.826 -0.3673 -1.0328 -0.0618
  166SOPE   HN218626   2.891   2.633  10.869  0.2415 -0.3884 -0.3370
  166SOPE   HN318627   2.846   2.684  10.721 -0.0674  0.9589  1.7588
  166SOPE   C1218628   2.850   2.479  10.732  0.1506 -0.5414 -0.0050
  166SOPE  H12A18629   2.926   2.495  10.652  0.2539 -0.3416  0.1305
  166SOPE  H12B18630   2.758   2.438  10.687  0.1496 -1.5750  0.8942
  166SOPE   C1118631   2.905   2.378  10.834 -1.2056  0.1134  0.0158
  166SOPE  H11A18632   2.990   2.419  10.893 -1.8354  1.1358  0.2279
  166SOPE  H11B18633   2.943   2.294  10.772 -1.0731  0.6593 -0.6543
  166SOPE     P18634   2.734   2.211  10.924 -0.3011  0.0064 -0.1936
  166SOPE   O1318635   2.644   2.208  11.046 -0.1343 -0.0979  0.8539
  166SOPE   O1418636   2.837   2.103  10.915  0.1366 -0.2174 -0.0822
  166SOPE   O1218637   2.811   2.349  10.931  0.4169  0.0180  0.6388
  166SOPE   O1118638   2.654   2.219  10.793  0.1910 -0.4292  0.3245
  166SOPE    C118639   2.515   2.252  10.789  0.0450 -0.1420 -0.0836
  166SOPE    HA18640   2.488   2.333  10.860 -1.3306 -1.7670  1.3218
  166SOPE    HB18641   2.446   2.168  10.814  0.8354 -0.3572  1.4888
  166SOPE    C218642   2.463   2.292  10.648 -0.5975  0.2009 -0.4040
  166SOPE    HS18643   2.384   2.217  10.632 -1.5501  1.2487 -0.7052
  166SOPE   O2118644   2.570   2.278  10.552  0.0098 -0.2756 -0.1055
  166SOPE   C2118645   2.595   2.150  10.507 -0.2724 -0.8351  0.2114
  166SOPE   O2218646   2.539   2.048  10.544 -0.4540  0.4095  0.3573
  166SOPE   C2218647   2.705   2.155  10.394 -0.1264  0.0943 -0.6623
  166SOPE   H2R18648   2.734   2.050  10.371  0.3741  0.7397 -3.3769
  166SOPE   H2S18649   2.790   2.215  10.434  0.5147 -1.0760 -0.2271
  166SOPE    C318650   2.400   2.436  10.646  0.9751 -0.2891  0.8309
  166SOPE    HX18651   2.477   2.515  10.655 -1.4463  2.3193  0.0784
  166SOPE    HY18652   2.332   2.440  10.734  0.1593  0.2373  0.1872
  166SOPE   O3118653   2.330   2.456  10.525 -0.3380  0.4248  0.1556
  166SOPE   C3118654   2.218   2.396  10.508 -0.2786  0.2904 -0.2881
  166SOPE   O3218655   2.167   2.321  10.590  0.3942  0.0532  0.4094
  166SOPE   C3218656   2.150   2.439  10.383 -0.5178  0.0387 -0.0672
  166SOPE   H2X18657   2.234   2.478  10.320 -1.2433  3.6176  0.9621
  166SOPE   H2Y18658   2.088   2.528  10.404  1.5918  1.6877 -0.4855
  166SOPE   C2318659   2.658   2.209  10.257  0.6076 -0.3127  0.7562
  166SOPE   H3R18660   2.739   2.258  10.200 -0.6322  0.1586 -0.6657
  166SOPE   H3S18661   2.575   2.281  10.272 -1.6270 -2.2291 -1.4698
  166SOPE   C2418662   2.606   2.091  10.174  0.2365  0.0690  0.0273
  166SOPE   H4R18663   2.697   2.039  10.136  0.3065 -1.0384  1.6153
  166SOPE   H4S18664   2.550   2.011  10.227  0.0552 -0.7883 -1.3768
  166SOPE   C2518665   2.531   2.140  10.055 -0.6078 -0.6651 -0.0728
  166SOPE   H5R18666   2.437   2.184  10.093 -0.2151 -0.0461  0.1874
  166SOPE   H5S18667   2.586   2.221  10.003 -0.9889 -0.8632 -0.8051
  166SOPE   C2618668   2.497   2.035   9.960 -0.0220  0.2971 -0.0215
  166SOPE   H6R18669   2.585   1.981   9.919 -0.6415 -1.4296  0.7989
  166SOPE   H6S18670   2.431   1.958  10.006  1.5041  0.8759  3.4394
  166SOPE   C2718671   2.415   2.091   9.838  0.2448 -0.2432 -0.0127
  166SOPE   H7R18672   2.321   2.121   9.888  0.3237  0.8586 -0.4941
  166SOPE   H7S18673   2.467   2.184   9.807 -2.8009  1.2500 -1.0316
  166SOPE   C2818674   2.379   2.000   9.716 -0.3735 -0.2069 -0.1840
  166SOPE   H8R18675   2.473   1.960   9.674  1.0010  1.6770  0.9528
  166SOPE   H8S18676   2.321   1.917   9.762 -2.1087 -0.2513 -2.2711
  166SOPE   C2918677   2.301   2.098   9.625  0.5257  0.7946 -0.0934
  166SOPE   H9118678   2.201   2.126   9.660  0.1484 -0.7424  0.1524
  166SOPE  C21018679   2.337   2.147   9.510  0.7587  0.3516  0.3528
  166SOPE  H10118680   2.264   2.203   9.450 -1.1817 -2.2469  0.0872
  166SOPE  C21118681   2.461   2.117   9.435  0.1295  1.0258  0.4170
  166SOPE  H11R18682   2.524   2.049   9.496 -0.5343 -2.3908 -2.3988
  166SOPE  H11S18683   2.523   2.207   9.417 -0.0342  1.1271  0.3613
  166SOPE  C21218684   2.433   2.043   9.304  0.5867  0.3519  0.2796
  166SOPE  H12R18685   2.394   2.105   9.220  0.8797  3.2764  2.1434
  166SOPE  H12S18686   2.365   1.955   9.306 -2.1534  2.3467  1.6552
  166SOPE  C21318687   2.566   1.982   9.243  0.4626  0.7360  0.3987
  166SOPE  H13R18688   2.616   1.941   9.334  0.5821  4.3045  2.1362
  166SOPE  H13S18689   2.621   2.076   9.220 -1.6980  2.2036  0.8500
  166SOPE  C21418690   2.530   1.893   9.123 -0.3455  0.0935  0.2843
  166SOPE  H14R18691   2.473   1.803   9.155 -0.6284 -0.0696 -0.6304
  166SOPE  H14S18692   2.621   1.850   9.075 -1.9163 -1.2413 -1.6755
  166SOPE  C21518693   2.440   1.951   9.009 -0.3391  0.3706 -0.2280
  166SOPE  H15R18694   2.494   2.036   8.962 -1.0191  0.4739 -0.8325
  166SOPE  H15S18695   2.350   1.993   9.059  0.2717  2.1789 -0.5624
  166SOPE  C21618696   2.410   1.848   8.899 -0.4660  0.0665 -0.0652
  166SOPE  H16R18697   2.355   1.758   8.935  2.1635 -0.8001  2.1608
  166SOPE  H16S18698   2.506   1.810   8.856 -2.5893 -1.7838 -3.6889
  166SOPE  C21718699   2.344   1.907   8.783  0.3499 -0.3393  0.1926
  166SOPE  H17R18700   2.391   2.000   8.744 -1.6320  1.0147  0.8422
  166SOPE  H17S18701   2.239   1.935   8.807  0.3533 -0.1934  0.0384
  166SOPE  C21818702   2.334   1.805   8.672 -0.3575  0.1042 -0.1519
  166SOPE  H18R18703   2.440   1.796   8.641  0.3922  1.9342  1.6165
  166SOPE  H18S18704   2.286   1.834   8.576 -0.2062  2.2741  0.3673
  166SOPE  H18T18705   2.292   1.708   8.708 -0.1196 -0.2843 -0.9023
  166SOPE   C3318706   2.065   2.325  10.308 -0.1079  0.0773 -0.1339
  166SOPE   H3X18707   1.962   2.314  10.347 -0.1932 -3.1883 -0.9577
  166SOPE   H3Y18708   2.113   2.228  10.333  0.3575  0.4134  0.2965
  166SOPE   C3418709   2.071   2.354  10.156 -0.4604 -0.4639  0.0702
  166SOPE   H4X18710   2.165   2.391  10.110 -0.5841  1.1111  0.9851
  166SOPE   H4Y18711   2.000   2.439  10.146  1.4787  1.0203 -1.9273
  166SOPE   C3518712   2.028   2.236  10.065  0.7873  0.4110  0.6908
  166SOPE   H5X18713   1.926   2.198  10.089  2.0450 -3.9050  0.1800
  166SOPE   H5Y18714   2.101   2.153  10.078 -1.3442 -1.5300  0.8627
  166SOPE   C3618715   2.029   2.268   9.916 -0.2411  0.1300  1.1770
  166SOPE   H6X18716   2.010   2.175   9.858  3.8843 -1.4377  1.9767
  166SOPE   H6Y18717   2.125   2.300   9.870 -1.9325  0.7163 -2.2567
  166SOPE   C3718718   1.927   2.378   9.885  0.2178  0.2054  0.3877
  166SOPE   H7X18719   1.953   2.465   9.949  1.1960 -0.6887  1.2237
  166SOPE   H7Y18720   1.828   2.334   9.910  0.8653 -0.8933  1.0575
  166SOPE   C3818721   1.938   2.417   9.732  0.4451 -0.1902  0.4323
  166SOPE   H8X18722   2.043   2.436   9.702  1.0543 -2.7508  0.6908
  166SOPE   H8Y18723   1.891   2.516   9.716 -1.1747 -0.7754  1.3538
  166SOPE   C3918724   1.872   2.312   9.643  0.9846 -0.1380  0.0050
  166SOPE   H9X18725   1.772   2.286   9.683  1.0066  1.7342  1.4627
  166SOPE   H9Y18726   1.938   2.223   9.649  0.4469 -0.4819  1.3796
  166SOPE  C31018727   1.879   2.363   9.496 -0.6965 -0.1164 -0.0990
  166SOPE  H10X18728   1.990   2.366   9.498 -0.6824 -0.0960 -0.6903
  166SOPE  H10Y18729   1.832   2.459   9.466 -1.2339 -1.1925 -3.1230
  166SOPE  C31118730   1.840   2.256   9.392 -0.0055 -0.1332 -0.3600
  166SOPE  H11X18731   1.729   2.260   9.385  0.0584  2.5795 -0.8141
  166SOPE  H11Y18732   1.873   2.155   9.426 -0.2711 -0.7999 -1.9571
  166SOPE  C31218733   1.896   2.280   9.250  0.2573 -0.4237 -0.1048
  166SOPE  H12X18734   2.007   2.282   9.264  0.0408 -2.2136  2.3031
  166SOPE  H12Y18735   1.844   2.365   9.201  0.2949 -0.2352  0.1855
  166SOPE  C31318736   1.868   2.164   9.162 -0.4425  0.0673 -0.3164
  166SOPE  H13X18737   1.761   2.180   9.136 -1.2991  0.5977  3.0570
  166SOPE  H13Y18738   1.882   2.063   9.207 -0.3811  0.3048  0.1981
  166SOPE  C31418739   1.942   2.154   9.022 -0.3810  0.0429 -0.5548
  166SOPE  H14X18740   2.050   2.138   9.040 -0.6994 -1.3187  0.3798
  166SOPE  H14Y18741   1.930   2.251   8.969 -3.6896 -0.0300 -0.2035
  166SOPE  C31518742   1.907   2.043   8.929  0.3705  0.0880  0.2110
  166SOPE  H15X18743   1.796   2.038   8.926  0.3791  0.3842 -1.9267
  166SOPE  H15Y18744   1.955   1.953   8.974 -0.8915 -1.0604 -0.6557
  166SOPE  C31618745   1.974   2.064   8.788 -0.1443 -0.4528 -0.3220
  166SOPE  H16X18746   2.085   2.052   8.793 -0.4001 -2.7168  2.0501
  166SOPE  H16Y18747   1.950   2.167   8.756  0.6273 -0.2408 -0.2373
  166SOPE  C31718748   1.943   1.953   8.687  0.5282 -0.4571  0.0024
  166SOPE  H17X18749   1.832   1.954   8.687  0.5082  0.6688  1.2476
  166SOPE  H17Y18750   1.977   1.854   8.723 -1.0221 -1.3633 -0.9069
  166SOPE  C31818751   2.002   1.983   8.550  0.2048 -0.0566 -0.1106
  166SOPE  H18X18752   1.966   2.084   8.524 -0.5429 -0.6863 -1.6267
  166SOPE  H18Y18753   1.982   1.909   8.470 -0.4865 -0.7565  0.6759
  166SOPE  H18Z18754   2.112   1.987   8.564  0.0476 -0.3800  1.4313
  167SOPE     N18755   3.003   6.809   6.221  0.8026 -0.3800  0.0834
  167SOPE   HN118756   3.098   6.818   6.262  1.7588 -2.4568 -1.5080
  167SOPE   HN218757   2.946   6.892   6.246 -2.9904 -1.6110 -3.3769
  167SOPE   HN318758   2.950   6.730   6.261  0.7870  0.1377  1.1039
  167SOPE   C1218759   3.019   6.799   6.074  0.3464  0.5604 -0.0016
  167SOPE  H12A18760   3.073   6.887   6.034  2.3699 -1.3618 -1.8265
  167SOPE  H12B18761   2.923   6.787   6.019  0.6693  3.1031 -1.2851
  167SOPE   C1118762   3.094   6.669   6.032  0.1252 -0.3427 -0.4552
  167SOPE  H11A18763   3.114   6.670   5.923  0.8079 -0.1530 -0.3307
  167SOPE  H11B18764   3.025   6.589   6.067  0.0121  0.7051  1.8991
  167SOPE     P18765   3.304   6.527   6.097 -0.0607 -0.3058 -0.0874
  167SOPE   O1318766   3.446   6.560   6.123 -0.2399 -0.3383 -0.1756
  167SOPE   O1418767   3.272   6.465   5.965  0.2050 -0.6062  0.4212
  167SOPE   O1218768   3.216   6.655   6.109 -0.4491  0.0593  0.0908
  167SOPE   O1118769   3.244   6.437   6.218  0.3927 -0.6380  0.0609
  167SOPE    C118770   3.214   6.484   6.349  0.0673 -0.8154  0.1775
  167SOPE    HA18771   3.126   6.425   6.381  0.6040 -1.1964  0.9808
  167SOPE    HB18772   3.189   6.592   6.346  0.9873 -0.6063 -0.3270
  167SOPE    C218773   3.337   6.460   6.442 -0.7350 -0.2014  0.2254
  167SOPE    HS18774   3.427   6.435   6.382 -0.3136  0.1269  0.7123
  167SOPE   O2118775   3.310   6.348   6.528 -0.0163 -0.0894  0.1391
  167SOPE   C2118776   3.412   6.297   6.588 -0.5014  0.1571 -0.1025
  167SOPE   O2218777   3.531   6.330   6.564 -0.0477  0.0479  0.5415
  167SOPE   C2218778   3.368   6.194   6.690  1.0942 -0.0281 -0.4292
  167SOPE   H2R18779   3.431   6.102   6.690  0.3180 -0.5934  0.7593
  167SOPE   H2S18780   3.264   6.157   6.678 -0.6037  2.5231  3.9452
  167SOPE    C318781   3.384   6.585   6.521  0.5707 -0.2450  0.4221
  167SOPE    HX18782   3.378   6.666   6.446 -1.3455 -1.4054 -0.7667
  167SOPE    HY18783   3.487   6.586   6.561  0.2660  2.1432  1.3463
  167SOPE   O3118784   3.289   6.614   6.629  0.3491 -0.8863  0.3939
  167SOPE   C3118785   3.311   6.725   6.701 -0.0061 -0.9104 -0.8922
  167SOPE   O3218786   3.406   6.802   6.686 -0.0817  0.0781  0.1945
  167SOPE   C3218787   3.197   6.737   6.800 -0.5346 -1.1486 -1.2533
  167SOPE   H2X18788   3.185   6.635   6.843  2.3175 -0.5911  1.2050
  167SOPE   H2Y18789   3.106   6.773   6.747 -0.3936  0.9407 -0.1843
  167SOPE   C2318790   3.394   6.252   6.841 -0.1674 -0.1954  0.0034
  167SOPE   H3R18791   3.484   6.316   6.830  0.0861 -0.8470 -2.2807
  167SOPE   H3S18792   3.413   6.170   6.913 -0.2279 -2.6261 -2.5505
  167SOPE   C2418793   3.264   6.315   6.887 -0.2559  0.7913  0.4796
  167SOPE   H4R18794   3.231   6.400   6.823  1.2162  1.6635  0.8393
  167SOPE   H4S18795   3.186   6.236   6.890  1.1348 -0.6906 -0.6510
  167SOPE   C2518796   3.284   6.380   7.027  0.1818  0.2666 -0.2700
  167SOPE   H5R18797   3.319   6.304   7.099 -0.4268  0.8245  0.6486
  167SOPE   H5S18798   3.371   6.446   7.007  2.3575 -2.5258 -0.6204
  167SOPE   C2618799   3.159   6.446   7.086  0.5052 -0.4001 -0.2555
  167SOPE   H6R18800   3.124   6.523   7.014  1.3683  0.4374  0.1882
  167SOPE   H6S18801   3.078   6.372   7.102  0.3910 -0.8369 -2.5849
  167SOPE   C2718802   3.198   6.517   7.217  1.1827 -0.1142  1.2683
  167SOPE   H7R18803   3.276   6.586   7.176 -0.3410  0.7031 -0.3665
  167SOPE   H7S18804   3.113   6.577   7.256  0.0275 -1.4251  0.8462
  167SOPE   C2818805   3.253   6.427   7.336  0.3957  0.4055 -0.4730
  167SOPE   H8R18806   3.346   6.377   7.304  0.4945  1.4804 -1.9508
  167SOPE   H8S18807   3.287   6.495   7.417  1.4575 -1.3234  0.5862
  167SOPE   C2918808   3.158   6.315   7.372  0.1213  0.5268  0.4889
  167SOPE   H9118809   3.149   6.243   7.289  2.0248  1.2016 -0.3434
  167SOPE  C21018810   3.082   6.298   7.483 -0.0163 -0.9354  1.1360
  167SOPE  H10118811   3.019   6.209   7.500 -1.4449 -0.0952  0.4210
  167SOPE  C21118812   3.081   6.394   7.597 -0.5281  0.4782  0.3253
  167SOPE  H11R18813   3.144   6.485   7.584 -2.1446  1.2880 -3.1035
  167SOPE  H11S18814   3.119   6.340   7.686 -1.3180 -1.7261 -0.6234
  167SOPE  C21218815   2.947   6.445   7.635  0.1212  0.1673  0.7891
  167SOPE  H12R18816   2.961   6.506   7.726  1.8765 -0.2714  0.8430
  167SOPE  H12S18817   2.872   6.368   7.663  0.2024 -0.8287 -1.4812
  167SOPE  C21318818   2.881   6.528   7.522  0.1267 -0.1760  0.3764
  167SOPE  H13R18819   2.858   6.453   7.444  1.1749 -2.2988  1.9849
  167SOPE  H13S18820   2.958   6.597   7.482 -1.2326  0.0963 -1.9011
  167SOPE  C21418821   2.740   6.589   7.561  0.3483  0.2342 -0.1227
  167SOPE  H14R18822   2.680   6.512   7.614  0.7325 -1.4187 -1.9693
  167SOPE  H14S18823   2.681   6.622   7.473 -0.1666 -0.2719  0.0283
  167SOPE  C21518824   2.747   6.724   7.646 -0.4257 -0.2760 -0.4287
  167SOPE  H15R18825   2.785   6.797   7.570 -0.7574 -0.2497 -0.5686
  167SOPE  H15S18826   2.820   6.715   7.729 -1.0771 -1.6737  0.0052
  167SOPE  C21618827   2.612   6.779   7.690 -0.0075  0.4552  0.1445
  167SOPE  H16R18828   2.571   6.704   7.761  0.3406  0.8322  0.7568
  167SOPE  H16S18829   2.544   6.758   7.606 -0.0193 -0.2019  0.3101
  167SOPE  C21718830   2.606   6.918   7.751  0.2473 -0.0220  0.1064
  167SOPE  H17R18831   2.502   6.959   7.745  0.0617 -0.4771  0.1914
  167SOPE  H17S18832   2.664   6.984   7.683 -0.7926  0.4704 -0.3323
  167SOPE  C21818833   2.662   6.929   7.891  0.5918  0.1167 -0.1244
  167SOPE  H18R18834   2.767   6.892   7.891 -0.1175 -2.1736 -2.3908
  167SOPE  H18S18835   2.604   6.853   7.948  0.3080 -0.2188 -0.8419
  167SOPE  H18T18836   2.653   7.030   7.936  2.1188  0.3534 -0.2931
  167SOPE   C3318837   3.232   6.834   6.914 -0.2289 -0.3200  0.2805
  167SOPE   H3X18838   3.273   6.927   6.869  1.4225 -2.4513 -3.0283
  167SOPE   H3Y18839   3.319   6.788   6.966  1.2987  2.1179  0.0667
  167SOPE   C3418840   3.119   6.874   7.013 -0.0216  0.0247 -0.4383
  167SOPE   H4X18841   3.094   6.781   7.069 -0.2641  1.2513  1.5453
  167SOPE   H4Y18842   3.029   6.903   6.955 -0.1860 -0.8888 -0.6614
  167SOPE   C3518843   3.168   6.973   7.125  0.5270  0.5861  0.4341
  167SOPE   H5X18844   3.186   7.071   7.076  1.2149  0.3244  0.1648
  167SOPE   H5Y18845   3.258   6.930   7.174  0.8731  2.9409  2.0470
  167SOPE   C3618846   3.053   6.982   7.236  0.3266 -0.1140 -0.1980
  167SOPE   H6X18847   3.010   6.880   7.249  1.5370 -0.5381  0.6002
  167SOPE   H6Y18848   2.970   7.044   7.194 -0.9456 -0.7982  1.1964
  167SOPE   C3718849   3.112   7.036   7.375 -0.7668  0.5366  0.1914
  167SOPE   H7X18850   3.151   7.139   7.362 -0.9070  0.6288  0.4890
  167SOPE   H7Y18851   3.192   6.965   7.405 -1.9807 -0.2858  1.6300
  167SOPE   C3818852   3.010   7.031   7.488  0.0351 -0.2990  0.7687
  167SOPE   H8X18853   2.974   6.926   7.490  1.3963 -1.0151 -3.0165
  167SOPE   H8Y18854   2.924   7.098   7.466  1.5126  0.8555 -1.9350
  167SOPE   C3918855   3.071   7.083   7.622  0.1489 -0.1044 -1.0444
  167SOPE   H9X18856   3.145   7.164   7.603  1.8888 -1.2640  0.5009
  167SOPE   H9Y18857   3.126   6.997   7.664  2.1393  1.8756  0.6604
  167SOPE  C31018858   2.956   7.149   7.714 -0.4750  0.2178 -0.2590
  167SOPE  H10X18859   2.882   7.071   7.741  1.2929 -0.7798  2.0957
  167SOPE  H10Y18860   2.908   7.224   7.648  2.1961 -1.4261 -4.4560
  167SOPE  C31118861   3.026   7.212   7.834  0.8616  0.7523  0.1597
  167SOPE  H11X18862   3.118   7.266   7.801  1.2016 -0.7858 -1.5956
  167SOPE  H11Y18863   3.053   7.131   7.906  1.0768  0.4510 -0.2539
  167SOPE  C31218864   2.933   7.305   7.915  0.2909 -0.1161 -0.3873
  167SOPE  H12X18865   2.988   7.331   8.007 -0.5230  1.2913 -0.2616
  167SOPE  H12Y18866   2.849   7.242   7.949  0.7057 -0.1203  0.6584
  167SOPE  C31318867   2.904   7.443   7.860  0.1095  0.3734 -0.8707
  167SOPE  H13X18868   2.875   7.505   7.948  2.5865 -1.5908  1.5214
  167SOPE  H13Y18869   2.828   7.437   7.779  0.5784 -2.2763 -1.2098
  167SOPE  C31418870   3.027   7.513   7.804  0.1747 -0.7453 -0.2344
  167SOPE  H14X18871   3.073   7.453   7.723  0.7444 -0.1524 -0.3579
  167SOPE  H14Y18872   3.100   7.526   7.887 -0.1318  2.8923 -0.3750
  167SOPE  C31518873   2.990   7.652   7.748  0.4580 -0.1007 -0.2130
  167SOPE  H15X18874   3.074   7.723   7.763 -0.3000  0.7474  0.0693
  167SOPE  H15Y18875   2.919   7.704   7.814  0.4708  1.8535 -1.6542
  167SOPE  C31618876   2.952   7.643   7.609  0.1551 -0.2109  0.8369
  167SOPE  H16X18877   2.889   7.553   7.590 -0.7752  0.3444  1.2053
  167SOPE  H16Y18878   3.042   7.633   7.544 -1.5454  0.2602 -1.7629
  167SOPE  C31718879   2.872   7.759   7.558  0.0716 -0.0902 -0.0228
  167SOPE  H17X18880   2.945   7.840   7.580  1.3213 -0.7098 -1.6743
  167SOPE  H17Y18881   2.793   7.773   7.636  0.0169 -1.2917  0.1628
  167SOPE  C31818882   2.823   7.768   7.408  0.9725 -0.0031 -0.0014
  167SOPE  H18X18883   2.898   7.747   7.330  1.1237 -1.3626  0.4851
  167SOPE  H18Y18884   2.786   7.871   7.392  0.1509 -0.3342 -0.2901
  167SOPE  H18Z18885   2.740   7.699   7.380 -0.8408  2.6378 -1.6646
  168SOPE     N18886   4.862   4.810   6.443 -0.1621  0.5386 -0.0968
  168SOPE   HN118887   4.919   4.806   6.530  0.6613  2.3421 -0.5072
  168SOPE   HN218888   4.841   4.911   6.426  2.5559  1.1523 -0.2071
  168SOPE   HN318889   4.769   4.763   6.448 -0.2999  0.8515  0.3069
  168SOPE   C1218890   4.953   4.760   6.327  0.3878 -0.0474  0.0488
  168SOPE  H12A18891   4.969   4.652   6.345 -1.0720 -0.1485  0.8638
  168SOPE  H12B18892   5.044   4.824   6.325  0.8655 -0.7232 -0.3836
  168SOPE   C1118893   4.892   4.786   6.186 -0.1933 -0.3594 -0.8772
  168SOPE  H11A18894   4.943   4.736   6.101  0.3687 -0.9756 -0.1946
  168SOPE  H11B18895   4.895   4.895   6.169 -1.2319  0.1102  1.5301
  168SOPE     P18896   4.710   4.592   6.161 -0.4200  0.1750  0.2971
  168SOPE   O1318897   4.779   4.545   6.037  0.3668  0.2172  0.2151
  168SOPE   O1418898   4.564   4.589   6.166  0.0231  0.5587 -0.9007
  168SOPE   O1218899   4.755   4.740   6.192  0.2327 -0.0086 -0.1933
  168SOPE   O1118900   4.771   4.510   6.275 -0.0659  0.3471 -0.4878
  168SOPE    C118901   4.712   4.505   6.404  0.1307 -0.9972  0.3164
  168SOPE    HA18902   4.607   4.541   6.396  0.2457 -0.9964 -1.5939
  168SOPE    HB18903   4.765   4.575   6.472  0.9981 -0.7521 -0.5930
  168SOPE    C218904   4.697   4.368   6.466  0.0702  0.0952  0.0069
  168SOPE    HS18905   4.682   4.386   6.575 -0.5978 -1.2429  0.1522
  168SOPE   O2118906   4.814   4.292   6.438  0.3483  0.0668  0.0026
  168SOPE   C2118907   4.921   4.346   6.490  0.3765 -0.0207 -0.2891
  168SOPE   O2218908   4.925   4.450   6.556 -0.4639  0.4341  0.0918
  168SOPE   C2218909   5.040   4.264   6.466  0.1149  0.3097 -0.6160
  168SOPE   H2R18910   5.098   4.309   6.383 -0.2965  0.9773 -0.5509
  168SOPE   H2S18911   5.015   4.161   6.433  1.6720 -0.5859  0.8987
  168SOPE    C318912   4.575   4.279   6.406  0.0467 -0.4545 -0.0542
  168SOPE    HX18913   4.592   4.177   6.447 -0.6105 -0.1427  1.0237
  168SOPE    HY18914   4.580   4.276   6.295  0.7323 -1.2509 -0.0080
  168SOPE   O3118915   4.454   4.350   6.440 -0.4759 -0.0980 -0.3553
  168SOPE   C3118916   4.387   4.316   6.548 -0.2076 -0.7144  0.3034
  168SOPE   O3218917   4.412   4.228   6.620 -0.2900  0.1523  0.3936
  168SOPE   C3218918   4.266   4.402   6.556  0.0542  0.0944 -0.3643
  168SOPE   H2X18919   4.178   4.335   6.559  0.3568 -0.2866  1.7929
  168SOPE   H2Y18920   4.254   4.463   6.464 -2.4205 -0.9072 -0.7875
  168SOPE   C2318921   5.125   4.261   6.598  0.1151 -0.0573 -0.0670
  168SOPE   H3R18922   5.117   4.360   6.647 -2.7646 -0.5818  0.6514
  168SOPE   H3S18923   5.233   4.256   6.572  0.5676  1.7088  1.2266
  168SOPE   C2418924   5.072   4.150   6.686  0.3846 -0.3510  0.1162
  168SOPE   H4R18925   4.963   4.158   6.702  0.6659  1.6291  1.4148
  168SOPE   H4S18926   5.087   4.050   6.640  1.8894 -0.1325  0.0748
  168SOPE   C2518927   5.143   4.155   6.820 -0.2318  0.1560  0.1226
  168SOPE   H5R18928   5.241   4.109   6.799 -0.3298 -0.1823  0.4003
  168SOPE   H5S18929   5.153   4.261   6.853 -0.0119 -0.9185  4.1189
  168SOPE   C2618930   5.077   4.085   6.930 -0.5080 -0.0226 -0.4576
  168SOPE   H6R18931   4.986   4.138   6.964  0.2041  0.8982  0.0649
  168SOPE   H6S18932   5.055   3.980   6.901  1.6967  0.1557 -3.2186
  168SOPE   C2718933   5.164   4.083   7.055  0.2798 -0.6831  0.0508
  168SOPE   H7R18934   5.258   4.040   7.015  0.2363 -0.9292  0.2121
  168SOPE   H7S18935   5.172   4.192   7.079 -1.8532 -0.1907 -1.2399
  168SOPE   C2818936   5.112   3.991   7.165 -0.3663 -0.1241  0.1494
  168SOPE   H8R18937   5.109   3.883   7.138 -4.2223 -0.1232  0.1017
  168SOPE   H8S18938   5.193   3.977   7.241 -0.8380 -1.5547  0.4149
  168SOPE   C2918939   4.981   4.031   7.238 -0.8564  0.2164  0.3758
  168SOPE   H9118940   4.979   4.140   7.255  0.1026  0.4597 -0.9154
  168SOPE  C21018941   4.886   3.949   7.284  0.3333  0.2921  0.2011
  168SOPE  H10118942   4.804   3.994   7.343  1.8687  1.1618  1.7954
  168SOPE  C21118943   4.881   3.801   7.281 -0.0302  0.0060 -0.7649
  168SOPE  H11R18944   4.973   3.758   7.236  1.1633  0.9340  0.6788
  168SOPE  H11S18945   4.791   3.759   7.232 -0.6574 -0.6587  0.8671
  168SOPE  C21218946   4.880   3.745   7.420  0.7019  0.4701  0.1197
  168SOPE  H12R18947   4.792   3.769   7.482  0.9473 -1.6224  1.3594
  168SOPE  H12S18948   4.966   3.784   7.479 -0.1734  2.0215  0.4090
  168SOPE  C21318949   4.880   3.596   7.417  0.1538 -0.3737 -0.4675
  168SOPE  H13R18950   4.968   3.561   7.360 -0.0761 -1.6218 -0.0916
  168SOPE  H13S18951   4.787   3.553   7.373 -0.1596 -0.5360  0.3368
  168SOPE  C21418952   4.883   3.551   7.564 -0.4410  0.2623 -0.1536
  168SOPE  H14R18953   4.796   3.601   7.611  1.0760  1.1323  1.9105
  168SOPE  H14S18954   4.980   3.578   7.611  0.0964  0.7916 -1.5189
  168SOPE  C21518955   4.871   3.398   7.578 -0.1362 -0.2340  0.2575
  168SOPE  H15R18956   4.963   3.352   7.537 -0.3463 -0.3772 -0.0547
  168SOPE  H15S18957   4.783   3.361   7.521  0.8107 -2.0899 -0.0709
  168SOPE  C21618958   4.867   3.349   7.726  0.1393  0.2773 -0.7029
  168SOPE  H16R18959   4.835   3.244   7.717  0.8459 -0.0059 -0.0744
  168SOPE  H16S18960   4.804   3.406   7.798  0.3817  0.5060 -0.6702
  168SOPE  C21718961   5.010   3.342   7.782  0.4314 -0.7647 -0.3191
  168SOPE  H17R18962   5.036   3.441   7.827 -1.2307 -0.4717  0.0720
  168SOPE  H17S18963   5.080   3.322   7.698  1.2771  1.4402 -0.1985
  168SOPE  C21818964   5.029   3.219   7.880  0.2976  0.5399  0.1818
  168SOPE  H18R18965   5.012   3.124   7.826  1.1822  0.9741 -0.8839
  168SOPE  H18S18966   4.957   3.219   7.965 -0.8880  0.9737 -0.7984
  168SOPE  H18T18967   5.130   3.210   7.926  0.2570 -1.4291 -0.0379
  168SOPE   C3318968   4.284   4.480   6.682 -0.5124  0.6369 -0.2233
  168SOPE   H3X18969   4.270   4.408   6.765  4.7282 -0.2420  0.2289
  168SOPE   H3Y18970   4.197   4.549   6.683 -1.6676 -0.7420 -1.7506
  168SOPE   C3418971   4.416   4.558   6.695 -0.9034  0.0114  0.5108
  168SOPE   H4X18972   4.419   4.614   6.599  0.9579 -1.6280 -0.4601
  168SOPE   H4Y18973   4.506   4.493   6.699 -1.9316 -1.5031  0.0629
  168SOPE   C3518974   4.425   4.648   6.814  0.2740 -1.0317 -0.5406
  168SOPE   H5X18975   4.327   4.698   6.830  0.7293  0.0564 -1.0446
  168SOPE   H5Y18976   4.503   4.728   6.814 -0.2198 -0.4700 -2.8595
  168SOPE   C3618977   4.447   4.564   6.938 -0.9126 -0.0182 -0.1008
  168SOPE   H6X18978   4.555   4.542   6.950 -0.5765  1.7523  0.3665
  168SOPE   H6Y18979   4.384   4.473   6.936 -0.5659 -0.3405  1.9214
  168SOPE   C3718980   4.406   4.642   7.062 -0.1644 -0.5207 -0.4285
  168SOPE   H7X18981   4.300   4.615   7.083 -0.9429  0.0057 -3.2037
  168SOPE   H7Y18982   4.395   4.750   7.038  1.8500 -0.3322 -0.6733
  168SOPE   C3818983   4.514   4.647   7.165  0.0085 -0.2647 -0.8197
  168SOPE   H8X18984   4.594   4.707   7.116 -0.0315 -1.0557 -1.8645
  168SOPE   H8Y18985   4.544   4.543   7.190 -0.2216 -0.2885 -0.6405
  168SOPE   C3918986   4.474   4.724   7.296  0.2226 -0.0632  0.2834
  168SOPE   H9X18987   4.439   4.825   7.265 -0.7977 -0.1088  1.2195
  168SOPE   H9Y18988   4.575   4.728   7.344  0.1103  1.3422  0.4486
  168SOPE  C31018989   4.376   4.659   7.393  0.1858  0.2386  0.3439
  168SOPE  H10X18990   4.400   4.552   7.415  0.9449  0.2360 -0.4185
  168SOPE  H10Y18991   4.278   4.647   7.344  1.0350 -1.3148 -1.0724
  168SOPE  C31118992   4.365   4.731   7.528  0.5504  0.1062  0.6519
  168SOPE  H11X18993   4.275   4.796   7.528 -1.5329 -2.5651 -0.1744
  168SOPE  H11Y18994   4.459   4.787   7.551 -0.9160  2.3678  1.4918
  168SOPE  C31218995   4.353   4.636   7.650 -0.2771 -0.2261  0.8011
  168SOPE  H12X18996   4.449   4.585   7.670 -0.6777 -0.5746  1.8983
  168SOPE  H12Y18997   4.277   4.557   7.634 -1.5232  0.9652  0.5753
  168SOPE  C31318998   4.305   4.715   7.774 -0.1887  0.4009  0.2674
  168SOPE  H13X18999   4.205   4.761   7.758  0.5922  2.4044  0.8942
  168SOPE  H13Y19000   4.382   4.791   7.797  2.5614 -1.8383 -0.8768
  168SOPE  C31419001   4.288   4.615   7.896 -0.8846 -0.3271 -0.3239
  168SOPE  H14X19002   4.231   4.529   7.857 -1.2287  0.3321 -1.3186
  168SOPE  H14Y19003   4.235   4.666   7.980  1.2023 -0.8888  1.4228
  168SOPE  C31519004   4.424   4.564   7.949 -0.5897 -0.6738 -0.6655
  168SOPE  H15X19005   4.485   4.652   7.977  0.3547 -0.9329 -1.8115
  168SOPE  H15Y19006   4.475   4.508   7.867  0.3072  1.2182 -1.4468
  168SOPE  C31619007   4.408   4.475   8.073 -0.7481 -0.5248  0.5091
  168SOPE  H16X19008   4.324   4.514   8.135 -0.5798  2.3824 -0.9000
  168SOPE  H16Y19009   4.502   4.473   8.133 -0.5231  0.5047  0.2148
  168SOPE  C31719010   4.369   4.326   8.041 -0.0751 -0.9674  0.4236
  168SOPE  H17X19011   4.450   4.274   7.986 -0.0034  0.3235 -0.7573
  168SOPE  H17Y19012   4.276   4.319   7.981 -0.2176  1.0831  0.3076
  168SOPE  C31819013   4.346   4.233   8.163  0.7679 -0.3939 -0.3414
  168SOPE  H18X19014   4.314   4.133   8.129  0.4543 -0.3159 -0.2825
  168SOPE  H18Y19015   4.269   4.282   8.227  0.3066  0.6305 -1.6290
  168SOPE  H18Z19016   4.434   4.224   8.231  0.8631 -1.3257 -0.5825
  169SOPE     N19017   5.847   6.401   6.138 -0.2127  0.1060  0.1215
  169SOPE   HN119018   5.765   6.389   6.075 -0.5130 -2.2988  0.8739
  169SOPE   HN219019   5.912   6.468   6.091 -0.1488 -0.5437 -0.7420
  169SOPE   HN319020   5.887   6.305   6.144 -2.6035 -0.9863 -0.5076
  169SOPE   C1219021   5.804   6.426   6.280  0.4035 -0.3204  0.6338
  169SOPE  H12A19022   5.730   6.346   6.301  0.2093 -0.1033  0.7755
  169SOPE  H12B19023   5.757   6.526   6.282 -1.2573 -1.0320 -0.6088
  169SOPE   C1119024   5.922   6.404   6.374 -0.9858 -0.3745 -0.2883
  169SOPE  H11A19025   5.953   6.298   6.364  0.2605  0.1464 -2.9556
  169SOPE  H11B19026   5.902   6.425   6.481 -0.8709  2.2273 -0.6920
  169SOPE     P19027   6.044   6.634   6.380 -0.2593  0.0409  0.0739
  169SOPE   O1319028   5.962   6.717   6.296  0.0232  0.3568 -0.5842
  169SOPE   O1419029   6.188   6.668   6.376  0.8333  0.4673  0.0039
  169SOPE   O1219030   6.035   6.487   6.331  1.0421  0.0937  0.0397
  169SOPE   O1119031   5.990   6.633   6.536  0.0137 -1.1951  0.5121
  169SOPE    C119032   5.859   6.666   6.566  0.2617  0.3012 -0.3519
  169SOPE    HA19033   5.826   6.609   6.656  1.2367 -0.5546 -0.5168
  169SOPE    HB19034   5.793   6.644   6.480 -0.1710  1.5428 -0.3434
  169SOPE    C219035   5.848   6.807   6.625 -0.0466 -0.2827 -0.1122
  169SOPE    HS19036   5.851   6.886   6.547 -0.5891  2.0622  2.1098
  169SOPE   O2119037   5.952   6.828   6.717  0.0678 -0.1326  0.2571
  169SOPE   C2119038   6.062   6.881   6.671 -0.2300 -0.8666 -0.1948
  169SOPE   O2219039   6.084   6.930   6.557  0.5542  0.7194 -0.4035
  169SOPE   C2219040   6.167   6.878   6.783  0.0082  0.0412  0.6525
  169SOPE   H2R19041   6.246   6.802   6.765  0.7686  0.1451  3.1649
  169SOPE   H2S19042   6.114   6.849   6.876  1.4487  0.7538  1.7337
  169SOPE    C319043   5.711   6.825   6.693 -0.4029 -0.2972 -0.2910
  169SOPE    HX19044   5.632   6.824   6.615 -1.0435  0.2054  0.3361
  169SOPE    HY19045   5.708   6.930   6.729  2.0046 -0.4547  0.5658
  169SOPE   O3119046   5.686   6.729   6.805 -0.1864  0.1876 -0.7103
  169SOPE   C3119047   5.639   6.780   6.915 -0.0788 -0.1410  0.1633
  169SOPE   O3219048   5.598   6.893   6.925 -0.2209 -0.3739  0.8498
  169SOPE   C3219049   5.635   6.664   7.018 -0.2859  0.5884 -0.1959
  169SOPE   H2X19050   5.738   6.627   7.036 -0.9312 -0.3169  1.8389
  169SOPE   H2Y19051   5.583   6.575   6.977  1.3365 -0.6158  0.2591
  169SOPE   C2319052   6.229   7.017   6.787  0.4012  0.0893  0.5168
  169SOPE   H3R19053   6.144   7.086   6.798 -1.0578 -1.3089 -1.3714
  169SOPE   H3S19054   6.277   7.036   6.689  0.7559 -1.2437  0.4067
  169SOPE   C2419055   6.321   7.030   6.903  0.5903  0.8714 -0.1735
  169SOPE   H4R19056   6.404   6.960   6.882  0.8438  1.1981 -0.2631
  169SOPE   H4S19057   6.370   7.129   6.907  1.3700  0.4625  0.5599
  169SOPE   C2519058   6.263   7.001   7.043  0.0389 -0.4035 -0.0122
  169SOPE   H5R19059   6.190   7.081   7.067 -0.2713 -0.4312 -0.8172
  169SOPE   H5S19060   6.206   6.907   7.057  1.2057 -1.2934 -0.9483
  169SOPE   C2619061   6.368   6.989   7.151 -0.0318 -0.6061  0.2649
  169SOPE   H6R19062   6.437   6.905   7.131 -1.0393 -0.9997 -1.8665
  169SOPE   H6S19063   6.435   7.077   7.146 -0.0852 -0.5822 -0.0525
  169SOPE   C2719064   6.303   7.005   7.281 -0.5895 -0.6218 -0.0386
  169SOPE   H7R19065   6.239   7.096   7.284 -1.3564 -1.1515  0.1996
  169SOPE   H7S19066   6.230   6.921   7.291 -1.2203  0.1018  2.0163
  169SOPE   C2819067   6.384   7.004   7.412 -0.1635  0.4924  0.6567
  169SOPE   H8R19068   6.429   6.902   7.415  2.2778  1.2375 -3.3874
  169SOPE   H8S19069   6.470   7.073   7.400  0.5111 -0.4859 -0.4313
  169SOPE   C2919070   6.297   7.043   7.527 -0.5579 -0.3142 -0.4044
  169SOPE   H9119071   6.204   6.985   7.529 -0.8699  0.1306 -1.2706
  169SOPE  C21019072   6.324   7.139   7.621  0.2154  0.1505  0.0922
  169SOPE  H10119073   6.253   7.154   7.704 -0.2600  4.1213 -0.8503
  169SOPE  C21119074   6.453   7.208   7.646  0.6862 -1.1294  0.0053
  169SOPE  H11R19075   6.442   7.317   7.625  2.2607 -1.0312 -0.4891
  169SOPE  H11S19076   6.536   7.189   7.574  0.5357  2.9097 -1.4887
  169SOPE  C21219077   6.514   7.186   7.792 -0.1532  0.0122  0.2521
  169SOPE  H12R19078   6.612   7.236   7.803  0.4527 -0.9355 -0.6454
  169SOPE  H12S19079   6.529   7.076   7.800  0.5226  0.0412 -0.4515
  169SOPE  C21319080   6.428   7.228   7.916  0.5975  0.4044  0.0798
  169SOPE  H13R19081   6.467   7.190   8.013 -1.7128 -2.0029  0.2111
  169SOPE  H13S19082   6.327   7.182   7.916 -0.3308  2.0092  3.9299
  169SOPE  C21419083   6.414   7.379   7.942 -0.2148  0.1409 -0.1216
  169SOPE  H14R19084   6.358   7.426   7.858 -3.1665 -1.1913  0.9611
  169SOPE  H14S19085   6.512   7.430   7.950 -0.4462  0.3493  1.7101
  169SOPE  C21519086   6.338   7.420   8.070  0.3159 -0.1630 -0.5139
  169SOPE  H15R19087   6.354   7.529   8.081  2.0685 -0.3221 -1.1336
  169SOPE  H15S19088   6.393   7.378   8.157 -0.8811 -0.4028  0.1458
  169SOPE  C21619089   6.189   7.371   8.089  0.4295 -0.6306  0.5468
  169SOPE  H16R19090   6.184   7.261   8.074 -2.3446 -0.3228 -1.6598
  169SOPE  H16S19091   6.131   7.406   8.001 -1.2504  1.1648  2.2614
  169SOPE  C21719092   6.123   7.418   8.215  0.0634 -1.1245  0.2989
  169SOPE  H17R19093   6.118   7.529   8.220 -3.2483 -1.2406  2.8168
  169SOPE  H17S19094   6.164   7.379   8.310  0.2050 -2.2858 -0.2202
  169SOPE  C21819095   5.971   7.377   8.227  0.1507  0.1307  0.5534
  169SOPE  H18R19096   5.924   7.409   8.131  1.0487 -2.5836 -0.8894
  169SOPE  H18S19097   5.922   7.417   8.319  1.2458  0.0292  1.1942
  169SOPE  H18T19098   5.966   7.266   8.232  0.9745  0.1092  1.0882
  169SOPE   C3319099   5.573   6.692   7.150 -0.6911 -0.0409  0.1472
  169SOPE   H3X19100   5.469   6.730   7.150 -0.6932 -0.0387 -0.5667
  169SOPE   H3Y19101   5.646   6.756   7.205  0.5357  0.2245 -1.7116
  169SOPE   C3419102   5.541   6.557   7.220 -0.0785  0.1703  0.0775
  169SOPE   H4X19103   5.632   6.492   7.221 -0.5234 -0.4619 -0.2116
  169SOPE   H4Y19104   5.470   6.498   7.159 -0.0557  1.0805 -0.8433
  169SOPE   C3519105   5.477   6.567   7.361  0.1116 -0.8162 -0.3154
  169SOPE   H5X19106   5.421   6.472   7.375  0.4114 -1.4935 -3.0171
  169SOPE   H5Y19107   5.407   6.653   7.362  1.1647  0.0746  1.6180
  169SOPE   C3619108   5.574   6.589   7.483 -0.2164 -0.4963 -0.2501
  169SOPE   H6X19109   5.637   6.678   7.465 -1.3083  0.7928  1.9354
  169SOPE   H6Y19110   5.642   6.502   7.494  1.4839  0.8618  0.2898
  169SOPE   C3719111   5.499   6.599   7.618  0.2838 -0.5881 -0.0924
  169SOPE   H7X19112   5.419   6.523   7.630 -0.0920 -0.4294 -1.4282
  169SOPE   H7Y19113   5.448   6.697   7.609  1.1008 -0.0154  1.1331
  169SOPE   C3819114   5.594   6.585   7.744  0.9257  0.0990 -0.1455
  169SOPE   H8X19115   5.691   6.638   7.735  0.9986  0.7620  3.2238
  169SOPE   H8Y19116   5.538   6.630   7.828  0.4006 -2.4269  0.9592
  169SOPE   C3919117   5.614   6.439   7.790  0.0965 -0.3012 -0.4302
  169SOPE   H9X19118   5.715   6.410   7.756  0.7490  1.4817 -0.1258
  169SOPE   H9Y19119   5.540   6.372   7.741  1.1046 -0.5557 -1.6355
  169SOPE  C31019120   5.600   6.414   7.948  0.3544 -0.3236  0.3817
  169SOPE  H10X19121   5.633   6.311   7.975 -0.8705 -1.1102 -0.9873
  169SOPE  H10Y19122   5.493   6.421   7.975 -0.2137 -2.5025 -1.0792
  169SOPE  C31119123   5.674   6.519   8.034 -0.1874 -0.2201 -0.6124
  169SOPE  H11X19124   5.626   6.522   8.134  1.0239 -0.8151  0.0070
  169SOPE  H11Y19125   5.650   6.622   7.999 -3.3231 -0.2322  1.2106
  169SOPE  C31219126   5.820   6.484   8.055 -0.5200 -0.2328 -0.1659
  169SOPE  H12X19127   5.871   6.468   7.957  0.5042  1.1966  0.0979
  169SOPE  H12Y19128   5.824   6.384   8.104 -1.3882  0.3984  1.2287
  169SOPE  C31319129   5.915   6.590   8.114 -1.0899  0.2057 -0.0013
  169SOPE  H13X19130   5.889   6.672   8.044  2.2221  1.7887  0.4522
  169SOPE  H13Y19131   6.019   6.560   8.093 -1.5430 -1.1769 -0.3284
  169SOPE  C31419132   5.895   6.613   8.261  0.1361 -0.4085  0.4146
  169SOPE  H14X19133   5.912   6.513   8.308  0.4099 -1.1507 -1.2125
  169SOPE  H14Y19134   5.787   6.628   8.284  0.2495  0.8497  0.2108
  169SOPE  C31519135   5.983   6.719   8.325 -0.2461  0.6946  0.7195
  169SOPE  H15X19136   5.986   6.802   8.251 -0.0118 -1.2211 -1.5377
  169SOPE  H15Y19137   6.086   6.677   8.332 -0.7913 -0.3911  2.8457
  169SOPE  C31619138   5.931   6.762   8.463 -0.3514  0.5918 -0.1360
  169SOPE  H16X19139   5.902   6.668   8.516 -0.0158  0.4459 -0.2036
  169SOPE  H16Y19140   5.847   6.832   8.449 -0.3254  0.4967 -0.7845
  169SOPE  C31719141   6.031   6.842   8.541 -0.4915 -1.0389 -0.4947
  169SOPE  H17X19142   6.132   6.800   8.525  0.6440  0.1785  2.7349
  169SOPE  H17Y19143   6.017   6.844   8.652  1.8122  0.5851 -0.1716
  169SOPE  C31819144   6.024   6.990   8.485 -0.8866  0.4651  0.3191
  169SOPE  H18X19145   6.105   7.057   8.520 -0.1556 -0.0657 -0.3197
  169SOPE  H18Y19146   5.927   7.041   8.508 -0.2397  1.1451  1.6402
  169SOPE  H18Z19147   6.042   6.992   8.375  0.7048 -1.1261  0.4978
  170SOPE     N19148   1.147   4.660   6.583  0.1541 -0.2277  0.3362
  170SOPE   HN119149   1.148   4.760   6.554  0.8705 -0.2723  0.1861
  170SOPE   HN219150   1.065   4.651   6.646 -0.4127 -1.1452 -0.5071
  170SOPE   HN319151   1.228   4.633   6.643 -1.8069 -3.2211  1.8652
  170SOPE   C1219152   1.121   4.580   6.459  0.0434 -0.4086  0.3802
  170SOPE  H12A19153   1.122   4.475   6.495  2.5633 -2.3109 -4.3709
  170SOPE  H12B19154   1.212   4.604   6.400 -1.9766  1.1139 -2.3295
  170SOPE   C1119155   0.992   4.616   6.392  0.3920 -0.1507 -0.4568
  170SOPE  H11A19156   0.907   4.569   6.446  0.4847  0.6878  0.4336
  170SOPE  H11B19157   0.997   4.575   6.289  1.0257 -0.9740 -0.1074
  170SOPE     P19158   0.842   4.819   6.339 -0.1876 -0.0205 -0.0338
  170SOPE   O1319159   0.818   4.811   6.194 -0.2498 -0.3341  0.1178
  170SOPE   O1419160   0.826   4.955   6.399  0.0820 -0.5227  0.7921
  170SOPE   O1219161   0.977   4.757   6.383  0.4701 -0.3185 -0.6693
  170SOPE   O1119162   0.732   4.728   6.416  0.4248 -0.3344 -0.2290
  170SOPE    C119163   0.610   4.794   6.465 -0.3473 -0.7304  0.4021
  170SOPE    HA19164   0.524   4.741   6.420 -0.2081  0.6254 -1.5975
  170SOPE    HB19165   0.603   4.900   6.431 -0.0507 -0.6191  0.6823
  170SOPE    C219166   0.609   4.784   6.624  0.6652  0.2541  0.3476
  170SOPE    HS19167   0.706   4.821   6.664  1.4341 -1.9987  0.6577
  170SOPE   O2119168   0.588   4.642   6.661 -0.9424 -0.2449  0.1331
  170SOPE   C2119169   0.641   4.607   6.766  0.6649  0.4113 -0.1389
  170SOPE   O2219170   0.698   4.672   6.849 -0.2343  0.0278  0.3451
  170SOPE   C2219171   0.616   4.459   6.787  0.1510  0.7072  0.1609
  170SOPE   H2R19172   0.711   4.417   6.826  0.2897  0.5666 -0.3233
  170SOPE   H2S19173   0.593   4.418   6.687  0.6063  0.4096  0.1780
  170SOPE    C319174   0.484   4.860   6.674  0.6935 -0.1333  0.5228
  170SOPE    HX19175   0.390   4.832   6.622  1.2606  2.2058 -2.0232
  170SOPE    HY19176   0.486   4.967   6.643 -0.4281 -0.3777 -0.4733
  170SOPE   O3119177   0.457   4.834   6.812  0.2612 -0.0469  0.0129
  170SOPE   C3119178   0.523   4.926   6.890 -0.5375 -0.0748 -0.5303
  170SOPE   O3219179   0.598   5.012   6.844 -0.0669  0.0023 -0.0635
  170SOPE   C3219180   0.525   4.891   7.039  0.1264  0.5764 -0.2452
  170SOPE   H2X19181   0.630   4.856   7.052  1.7369  4.4061 -1.5773
  170SOPE   H2Y19182   0.447   4.814   7.059  2.0377 -1.1104  1.1623
  170SOPE   C2319183   0.506   4.424   6.888 -0.0925 -0.8752 -0.5133
  170SOPE   H3R19184   0.465   4.321   6.875 -3.6285  0.0210  1.9125
  170SOPE   H3S19185   0.407   4.469   6.863 -0.3643 -0.4037  1.2665
  170SOPE   C2419186   0.540   4.445   7.034 -0.0223  0.0270 -0.3132
  170SOPE   H4R19187   0.639   4.397   7.054 -0.3364 -0.3178  0.4798
  170SOPE   H4S19188   0.540   4.553   7.060  0.4006 -0.3827  1.5901
  170SOPE   C2519189   0.434   4.375   7.125  0.3594  0.2890  0.0201
  170SOPE   H5R19190   0.330   4.394   7.090 -0.1564 -1.3695  0.5459
  170SOPE   H5S19191   0.446   4.264   7.126  0.7664  0.3382  0.5290
  170SOPE   C2619192   0.449   4.421   7.268  0.3958 -0.3477  0.6751
  170SOPE   H6R19193   0.550   4.408   7.312 -0.1992 -0.7445  1.9811
  170SOPE   H6S19194   0.415   4.527   7.264  1.2383 -0.1123 -1.2023
  170SOPE   C2719195   0.347   4.351   7.363  0.9994  0.4274 -0.4278
  170SOPE   H7R19196   0.298   4.420   7.435 -1.4467 -0.9560 -0.6728
  170SOPE   H7S19197   0.258   4.316   7.306  1.2101  0.0040 -0.5020
  170SOPE   C2819198   0.400   4.241   7.449  0.1158  0.2951 -0.1630
  170SOPE   H8R19199   0.317   4.195   7.505  0.1409  1.0206  0.4822
  170SOPE   H8S19200   0.443   4.161   7.386  1.0388 -0.4956  1.4065
  170SOPE   C2919201   0.503   4.291   7.545  0.8483  0.0128 -0.5937
  170SOPE   H9119202   0.604   4.315   7.507  0.9630  1.1928  0.3952
  170SOPE  C21019203   0.492   4.310   7.673  0.3039 -0.0469 -0.6394
  170SOPE  H10119204   0.580   4.351   7.724 -0.1432  2.1717 -1.4942
  170SOPE  C21119205   0.376   4.304   7.765  0.3129 -0.0814  0.5293
  170SOPE  H11R19206   0.285   4.249   7.732  0.5876 -0.0381 -0.3145
  170SOPE  H11S19207   0.343   4.410   7.771 -0.2086  0.0356 -2.8327
  170SOPE  C21219208   0.394   4.255   7.911  0.1418  0.5759  0.0738
  170SOPE  H12R19209   0.465   4.322   7.962 -1.5291  2.1583  0.4292
  170SOPE  H12S19210   0.428   4.150   7.895  0.1321  0.8854 -2.4016
  170SOPE  C21319211   0.266   4.268   7.985 -0.7955  0.9004  0.2703
  170SOPE  H13R19212   0.176   4.226   7.935 -0.5838  0.4874  0.2314
  170SOPE  H13S19213   0.264   4.377   8.005  0.3145  0.9716  0.0739
  170SOPE  C21419214   0.267   4.205   8.120 -1.1650  0.6791  0.1681
  170SOPE  H14R19215   0.328   4.248   8.202 -1.6788  1.9094 -0.0732
  170SOPE  H14S19216   0.298   4.099   8.111  0.2242  1.0229  0.7237
  170SOPE  C21519217   0.132   4.185   8.180  0.6538  0.4623 -0.2377
  170SOPE  H15R19218   0.066   4.143   8.101 -0.9673 -0.7104  1.6625
  170SOPE  H15S19219   0.090   4.283   8.210 -1.7929 -0.4771 -0.3827
  170SOPE  C21619220   0.131   4.086   8.302 -0.3084 -0.4201 -0.4421
  170SOPE  H16R19221   0.216   4.112   8.369  0.2229 -0.9472 -0.8985
  170SOPE  H16S19222   0.158   3.981   8.279  1.9786 -0.2421  1.1196
  170SOPE  C21719223  -0.005   4.096   8.366 -0.0932  0.0831 -0.3360
  170SOPE  H17R19224  -0.092   4.072   8.301 -0.8918 -0.3299  0.8476
  170SOPE  H17S19225  -0.029   4.200   8.398 -0.3941  0.2936 -1.2275
  170SOPE  C21819226  -0.014   4.012   8.492 -0.1154 -0.0687  0.6863
  170SOPE  H18R19227  -0.117   4.013   8.534  0.1553 -3.1113  1.6769
  170SOPE  H18S19228   0.046   4.063   8.570  1.1256  0.6428 -0.6776
  170SOPE  H18T19229   0.028   3.911   8.472 -0.3070 -0.2891  1.3861
  170SOPE   C3319230   0.505   5.008   7.140  0.5187  0.5577  0.0953
  170SOPE   H3X19231   0.400   5.045   7.130 -0.5189 -2.1547  0.0546
  170SOPE   H3Y19232   0.581   5.085   7.114  0.1349  0.3530 -1.7882
  170SOPE   C3419233   0.532   4.955   7.284  0.5223  0.4084  0.0467
  170SOPE   H4X19234   0.622   4.891   7.289 -0.0177 -0.9409 -4.0736
  170SOPE   H4Y19235   0.446   4.888   7.307  1.3270 -0.6277  0.0494
  170SOPE   C3519236   0.533   5.073   7.382  0.5680 -0.3998  0.5861
  170SOPE   H5X19237   0.428   5.105   7.399  1.3464  1.1511  3.1522
  170SOPE   H5Y19238   0.588   5.153   7.328 -0.6907 -0.3431 -0.6643
  170SOPE   C3619239   0.582   5.053   7.518  0.2883 -0.8520  0.1416
  170SOPE   H6X19240   0.693   5.063   7.516  0.0924  2.2692  0.4622
  170SOPE   H6Y19241   0.549   4.956   7.561  0.3260  0.1554  2.6354
  170SOPE   C3719242   0.536   5.163   7.619  0.3017 -0.0831 -0.4409
  170SOPE   H7X19243   0.425   5.165   7.619  0.2582  0.9708  2.0341
  170SOPE   H7Y19244   0.575   5.258   7.577  1.6747  1.7625  4.3830
  170SOPE   C3819245   0.592   5.126   7.758  0.8611 -0.0830  0.2064
  170SOPE   H8X19246   0.702   5.140   7.749  0.7487  0.3579 -0.6102
  170SOPE   H8Y19247   0.579   5.017   7.776  2.2186 -0.2733  0.1167
  170SOPE   C3919248   0.537   5.201   7.874  0.1414 -0.0824 -0.6145
  170SOPE   H9X19249   0.426   5.212   7.875  0.2605  1.3973 -0.5110
  170SOPE   H9Y19250   0.587   5.300   7.884  0.7584 -0.5787  2.5711
  170SOPE  C31019251   0.569   5.131   8.004  0.0831  0.2661  0.4797
  170SOPE  H10X19252   0.679   5.119   8.016 -0.0142  0.7980  2.2017
  170SOPE  H10Y19253   0.510   5.037   8.000 -1.7378  1.2858  1.6292
  170SOPE  C31119254   0.528   5.210   8.135  0.2469  0.4333 -0.1636
  170SOPE  H11X19255   0.558   5.142   8.217 -0.3393 -0.0764 -0.3590
  170SOPE  H11Y19256   0.418   5.225   8.143  0.6530  2.8496  2.1306
  170SOPE  C31219257   0.604   5.341   8.158  0.0281 -0.0315 -0.3571
  170SOPE  H12X19258   0.582   5.397   8.064  2.1862  0.2002 -0.7865
  170SOPE  H12Y19259   0.715   5.350   8.161  0.4556 -2.9844 -2.6331
  170SOPE  C31319260   0.555   5.430   8.279 -0.2489  0.5633 -0.1617
  170SOPE  H13X19261   0.606   5.383   8.366  0.9132 -0.0957 -1.1530
  170SOPE  H13Y19262   0.449   5.399   8.290  0.3693 -1.0112  2.0282
  170SOPE  C31419263   0.593   5.578   8.283 -0.4506 -0.2836  0.0574
  170SOPE  H14X19264   0.522   5.627   8.353 -0.8719 -1.8716  0.7917
  170SOPE  H14Y19265   0.564   5.621   8.185  2.1216  1.2710 -0.0969
  170SOPE  C31519266   0.736   5.616   8.318  0.4377 -0.5004 -0.1227
  170SOPE  H15X19267   0.809   5.551   8.264  1.4781 -1.9424  2.8125
  170SOPE  H15Y19268   0.751   5.583   8.423 -1.0395  0.3506  0.3828
  170SOPE  C31619269   0.769   5.765   8.292 -0.5285 -0.1498 -0.1750
  170SOPE  H16X19270   0.689   5.819   8.347 -0.7711 -2.0179  1.4099
  170SOPE  H16Y19271   0.769   5.773   8.181  2.4786 -2.6828 -0.4832
  170SOPE  C31719272   0.915   5.806   8.316 -0.2625  0.1336 -0.0369
  170SOPE  H17X19273   0.990   5.750   8.256  0.0748 -0.5970  1.0454
  170SOPE  H17Y19274   0.943   5.777   8.419  0.2983  1.5143  0.2263
  170SOPE  C31819275   0.946   5.954   8.290  0.6630 -0.4463  0.5739
  170SOPE  H18X19276   1.056   5.958   8.303  0.9935 -2.3367 -1.0967
  170SOPE  H18Y19277   0.890   6.025   8.354 -0.6960 -0.9112 -0.0610
  170SOPE  H18Z19278   0.918   5.982   8.186  0.6583  1.2482  0.9946
  171SOPE     N19279   0.553   1.887   6.170  0.0678 -0.3636  0.3969
  171SOPE   HN119280   0.627   1.940   6.222  0.4444  1.6282 -1.9471
  171SOPE   HN219281   0.568   1.903   6.068 -2.2984  0.3271  0.1109
  171SOPE   HN319282   0.468   1.945   6.179  0.1571  0.5251 -3.0433
  171SOPE   C1219283   0.536   1.745   6.209  0.5441  0.4718  0.1236
  171SOPE  H12A19284   0.539   1.737   6.320  2.0156 -2.0058 -0.0126
  171SOPE  H12B19285   0.620   1.699   6.153 -1.1650  0.7457 -2.8715
  171SOPE   C1119286   0.398   1.694   6.158 -0.3422 -0.1228  0.2301
  171SOPE  H11A19287   0.408   1.583   6.166  1.3126  0.0026  0.2837
  171SOPE  H11B19288   0.395   1.703   6.047  1.0669  1.1738  0.2649
  171SOPE     P19289   0.227   1.694   6.354  0.2034 -0.1656 -0.1089
  171SOPE   O1319290   0.204   1.547   6.338 -0.1244 -0.1214 -0.3383
  171SOPE   O1419291   0.116   1.786   6.390  0.1338  0.3838 -0.2952
  171SOPE   O1219292   0.293   1.764   6.230  0.7537  0.2290 -0.0989
  171SOPE   O1119293   0.342   1.714   6.462 -0.2725  0.1457 -0.6775
  171SOPE    C119294   0.391   1.842   6.515 -0.8460  0.3395  0.1174
  171SOPE    HA19295   0.385   1.909   6.427  0.6265 -0.2929 -0.4929
  171SOPE    HB19296   0.498   1.828   6.541 -1.0455 -1.7976 -0.0320
  171SOPE    C219297   0.324   1.885   6.641 -0.5306 -0.4368  0.7489
  171SOPE    HS19298   0.220   1.900   6.606 -0.1451 -0.1274 -0.2939
  171SOPE   O2119299   0.395   2.005   6.681 -0.1795 -0.5367 -0.0400
  171SOPE   C2119300   0.320   2.084   6.754  0.0121 -0.2717  0.0163
  171SOPE   O2219301   0.202   2.068   6.781  0.0505  0.4690 -0.2935
  171SOPE   C2219302   0.403   2.213   6.777 -0.1866  0.0279  0.0251
  171SOPE   H2R19303   0.400   2.272   6.683 -0.0343 -0.7175 -0.4556
  171SOPE   H2S19304   0.509   2.190   6.801 -0.0991 -1.1030 -1.3465
  171SOPE    C319305   0.324   1.773   6.752  0.9196  0.7132  0.4067
  171SOPE    HX19306   0.431   1.746   6.750  0.3280 -1.8663 -1.7371
  171SOPE    HY19307   0.267   1.684   6.720  2.9949 -0.2535 -0.7527
  171SOPE   O3119308   0.300   1.836   6.879 -0.1411  0.7226 -0.4102
  171SOPE   C3119309   0.177   1.813   6.925 -0.8639 -0.4899  0.4677
  171SOPE   O3219310   0.087   1.751   6.873 -0.1522  0.3659  0.1940
  171SOPE   C3219311   0.173   1.880   7.065  0.8270  0.5410 -0.5200
  171SOPE   H2X19312   0.102   1.965   7.060  0.0976 -0.0341 -0.1174
  171SOPE   H2Y19313   0.273   1.923   7.085  1.3536 -0.4513 -0.9564
  171SOPE   C2319314   0.345   2.306   6.885  0.4931 -0.5823  0.4465
  171SOPE   H3R19315   0.241   2.333   6.860  0.6489 -1.0679 -0.7969
  171SOPE   H3S19316   0.407   2.397   6.900 -1.4700  1.1383 -1.2300
  171SOPE   C2419317   0.333   2.252   7.024  0.0732 -0.1826  0.2444
  171SOPE   H4R19318   0.311   2.331   7.100  0.3912 -1.7002  1.9745
  171SOPE   H4S19319   0.238   2.195   7.028 -0.0425  0.0839  2.4391
  171SOPE   C2519320   0.450   2.162   7.057 -0.1425 -0.5401  0.4307
  171SOPE   H5R19321   0.440   2.071   6.994  2.5877 -1.0966  0.6645
  171SOPE   H5S19322   0.545   2.217   7.040 -0.6559  0.1933 -0.0905
  171SOPE   C2619323   0.454   2.118   7.202  0.3575 -0.0498 -0.4418
  171SOPE   H6R19324   0.354   2.076   7.225  0.6908 -1.4397 -1.4015
  171SOPE   H6S19325   0.531   2.038   7.214  0.6155  0.3581  0.8111
  171SOPE   C2719326   0.476   2.233   7.298 -0.2670  0.2944  0.4494
  171SOPE   H7R19327   0.559   2.298   7.262  0.2060  0.3974  1.6538
  171SOPE   H7S19328   0.383   2.293   7.297  0.6385  1.7489 -0.1068
  171SOPE   C2819329   0.488   2.185   7.447 -0.0082 -0.4637  0.3951
  171SOPE   H8R19330   0.575   2.116   7.450  1.2150  0.9650 -0.6042
  171SOPE   H8S19331   0.519   2.279   7.498 -0.1605  0.1633 -0.6299
  171SOPE   C2919332   0.367   2.124   7.503 -0.0468  0.8990 -0.2361
  171SOPE   H9119333   0.293   2.078   7.435 -1.2760  1.4837  0.6629
  171SOPE  C21019334   0.325   2.142   7.626  0.1914  0.1198 -0.0658
  171SOPE  H10119335   0.239   2.086   7.664  0.5305 -1.1408 -1.0865
  171SOPE  C21119336   0.403   2.227   7.722  0.5831 -0.2340 -0.3120
  171SOPE  H11R19337   0.391   2.337   7.705  1.4334  0.3411  2.4120
  171SOPE  H11S19338   0.514   2.221   7.726  0.5864 -0.4228 -0.6219
  171SOPE  C21219339   0.365   2.200   7.871  0.0802 -0.1780  0.5143
  171SOPE  H12R19340   0.256   2.220   7.879  0.2810  0.9360  0.7282
  171SOPE  H12S19341   0.413   2.279   7.934  0.5919  0.1336 -0.2569
  171SOPE  C21319342   0.405   2.058   7.908  0.2010  0.2789  0.5151
  171SOPE  H13R19343   0.511   2.033   7.886  0.2905  0.5912  0.5899
  171SOPE  H13S19344   0.321   1.996   7.869 -1.0729  2.7705 -0.9128
  171SOPE  C21419345   0.405   2.028   8.057 -0.6605 -0.3275  0.2501
  171SOPE  H14R19346   0.442   1.924   8.068 -1.1844 -0.6533 -0.9853
  171SOPE  H14S19347   0.302   2.028   8.099 -1.0889  2.0615 -0.6520
  171SOPE  C21519348   0.503   2.118   8.134  0.6569  0.0003  0.2534
  171SOPE  H15R19349   0.470   2.223   8.148  2.3918  0.7812 -1.0664
  171SOPE  H15S19350   0.594   2.114   8.070 -0.6916  0.5325 -1.7773
  171SOPE  C21619351   0.524   2.052   8.275  0.4117  0.2321 -0.4017
  171SOPE  H16R19352   0.564   1.950   8.255  2.9020 -0.1687  4.9299
  171SOPE  H16S19353   0.434   2.048   8.339  0.4502 -1.2199 -0.4180
  171SOPE  C21719354   0.632   2.114   8.364  0.2410  0.0745  0.6306
  171SOPE  H17R19355   0.606   2.221   8.379 -2.9494 -0.5613  0.2382
  171SOPE  H17S19356   0.725   2.096   8.306 -0.9641 -1.6365 -0.9040
  171SOPE  C21819357   0.648   2.061   8.507  1.0024  0.2431 -0.1622
  171SOPE  H18R19358   0.656   1.950   8.502  1.0667  0.1700  1.1006
  171SOPE  H18S19359   0.563   2.088   8.573  1.2628  1.9660 -0.4854
  171SOPE  H18T19360   0.744   2.090   8.556  0.5960 -0.3529  1.0367
  171SOPE   C3319361   0.120   1.785   7.170 -0.4632 -0.2002 -0.0566
  171SOPE   H3X19362   0.169   1.686   7.158  2.9830  1.1457  1.6556
  171SOPE   H3Y19363   0.010   1.781   7.154 -0.2380 -0.6269 -1.6991
  171SOPE   C3419364   0.165   1.829   7.314 -0.0126 -0.5832  0.2010
  171SOPE   H4X19365   0.111   1.921   7.344  0.7975 -0.3545  1.0187
  171SOPE   H4Y19366   0.270   1.861   7.298 -0.9776  2.1566 -1.2851
  171SOPE   C3519367   0.157   1.727   7.432  0.1922  0.6185  0.5331
  171SOPE   H5X19368   0.208   1.631   7.409  1.1625  0.9525  1.2115
  171SOPE   H5Y19369   0.052   1.702   7.455 -0.4933  1.7453 -1.1401
  171SOPE   C3619370   0.201   1.788   7.569 -0.4880  0.2963 -0.4176
  171SOPE   H6X19371   0.155   1.888   7.575  1.6016  1.2310  2.2600
  171SOPE   H6Y19372   0.310   1.806   7.582 -0.7961 -0.1249  5.3767
  171SOPE   C3719373   0.138   1.717   7.690  0.0328  0.8050  0.5051
  171SOPE   H7X19374   0.200   1.628   7.713  0.8026  1.2859  0.3354
  171SOPE   H7Y19375   0.027   1.706   7.694 -0.1183  2.4556  2.6779
  171SOPE   C3819376   0.165   1.802   7.820  0.1260  0.1842  0.6953
  171SOPE   H8X19377   0.119   1.903   7.824 -1.1241 -0.3200 -0.1933
  171SOPE   H8Y19378   0.276   1.805   7.822  0.1526  1.3659 -0.8138
  171SOPE   C3919379   0.121   1.722   7.940  0.0572  1.1745 -0.3239
  171SOPE   H9X19380   0.159   1.618   7.931 -0.0891  0.9840  0.9554
  171SOPE   H9Y19381   0.011   1.732   7.931 -0.0176 -0.9509 -2.7869
  171SOPE  C31019382   0.170   1.776   8.076  0.3105 -0.2370 -0.6113
  171SOPE  H10X19383   0.186   1.885   8.057  1.9997 -0.3904 -0.1907
  171SOPE  H10Y19384   0.257   1.721   8.115  0.3698  1.2784  1.5771
  171SOPE  C31119385   0.053   1.753   8.182 -0.0503  1.0308 -0.4890
  171SOPE  H11X19386   0.007   1.652   8.179 -0.8145  1.3972 -2.3719
  171SOPE  H11Y19387  -0.028   1.826   8.160 -0.0839  1.0744 -0.2286
  171SOPE  C31219388   0.116   1.761   8.319 -0.3189 -0.4812  0.4540
  171SOPE  H12X19389   0.190   1.844   8.323 -0.2627 -0.4622 -0.6622
  171SOPE  H12Y19390   0.181   1.671   8.324 -2.7395 -2.4404 -0.9262
  171SOPE  C31319391   0.013   1.737   8.434  0.0178  0.4005 -0.2255
  171SOPE  H13X19392  -0.030   1.635   8.439  1.2991 -0.3273 -2.5522
  171SOPE  H13Y19393  -0.064   1.817   8.438  0.7299  1.1435 -0.9054
  171SOPE  C31419394   0.089   1.735   8.570 -0.0475  0.1247 -0.2892
  171SOPE  H14X19395   0.148   1.827   8.588 -0.2919 -0.2899  3.6048
  171SOPE  H14Y19396   0.164   1.653   8.578  0.0865  0.3400  0.7823
  171SOPE  C31519397  -0.005   1.724   8.692 -0.5444  0.0341  0.2930
  171SOPE  H15X19398   0.052   1.694   8.783  2.1211  1.2135 -0.8802
  171SOPE  H15Y19399  -0.084   1.652   8.660  0.2583 -0.3285 -0.9755
  171SOPE  C31619400  -0.086   1.852   8.718 -0.0801 -0.4094 -0.5382
  171SOPE  H16X19401  -0.115   1.896   8.620 -0.0040  0.8414 -0.0170
  171SOPE  H16Y19402  -0.017   1.921   8.771  0.7923 -1.0779 -0.7888
  171SOPE  C31719403  -0.211   1.825   8.808 -0.1121 -0.3804 -0.2121
  171SOPE  H17X19404  -0.172   1.770   8.896 -0.4223  0.0072  0.1707
  171SOPE  H17Y19405  -0.281   1.755   8.757 -1.1409  0.5338 -0.0904
  171SOPE  C31819406  -0.292   1.946   8.845  0.0922  0.3850 -0.4844
  171SOPE  H18X19407  -0.392   1.915   8.881  0.3930 -1.0234 -0.8121
  171SOPE  H18Y19408  -0.301   2.001   8.749 -1.5359  1.6122  0.3142
  171SOPE  H18Z19409  -0.234   1.995   8.926  0.0777 -2.8209  1.6352
  172SOPE     N19410   1.640   2.595   6.559  0.0189 -0.2795  0.1861
  172SOPE   HN119411   1.582   2.519   6.598 -0.9165 -0.4819 -1.5020
  172SOPE   HN219412   1.724   2.597   6.620  0.0591 -2.3181  0.2556
  172SOPE   HN319413   1.589   2.685   6.551  0.5674 -0.0772 -1.5836
  172SOPE   C1219414   1.688   2.554   6.424 -0.0654  0.5097  0.6072
  172SOPE  H12A19415   1.713   2.642   6.360 -2.3401  0.3194 -0.6480
  172SOPE  H12B19416   1.602   2.513   6.367 -0.4763 -0.0199  1.5847
  172SOPE   C1119417   1.795   2.440   6.425  0.4173 -0.1387 -0.3611
  172SOPE  H11A19418   1.877   2.475   6.492 -0.1388  0.6243 -0.0594
  172SOPE  H11B19419   1.831   2.416   6.323 -1.4469 -1.4779 -0.7729
  172SOPE     P19420   1.762   2.179   6.451  0.3003  0.2193 -0.1257
  172SOPE   O1319421   1.889   2.132   6.508  0.1064 -0.0536 -0.7294
  172SOPE   O1419422   1.743   2.167   6.303 -0.4484 -0.1324 -0.0971
  172SOPE   O1219423   1.738   2.328   6.493  0.2278 -0.6415  0.3767
  172SOPE   O1119424   1.638   2.102   6.520  0.2500 -0.0282  0.1785
  172SOPE    C119425   1.514   2.164   6.544  0.5757  0.0610 -0.4769
  172SOPE    HA19426   1.439   2.144   6.464 -0.6786  1.7341  0.2110
  172SOPE    HB19427   1.526   2.275   6.544  0.9625  0.0389 -2.1145
  172SOPE    C219428   1.473   2.134   6.686 -0.6957 -0.2193 -0.9523
  172SOPE    HS19429   1.378   2.189   6.709 -1.0824 -1.8034  1.5818
  172SOPE   O2119430   1.571   2.159   6.785 -0.0955  0.6143  0.1516
  172SOPE   C2119431   1.598   2.283   6.802 -0.5057 -0.5465 -0.2259
  172SOPE   O2219432   1.550   2.378   6.743 -0.5124 -0.2673 -0.1264
  172SOPE   C2219433   1.697   2.296   6.914  0.4669 -0.7575  0.2915
  172SOPE   H2R19434   1.798   2.292   6.868  0.3017  1.1049 -0.3303
  172SOPE   H2S19435   1.680   2.216   6.990  0.1288 -0.5140  0.4763
  172SOPE    C319436   1.442   1.979   6.692  0.9679 -0.8470 -0.3353
  172SOPE    HX19437   1.536   1.926   6.664  2.7847  2.2202 -0.4520
  172SOPE    HY19438   1.368   1.950   6.615  0.7898  2.8004 -1.6856
  172SOPE   O3119439   1.390   1.942   6.820 -0.4125 -0.1500 -0.4051
  172SOPE   C3119440   1.484   1.894   6.906  0.5179  0.4379 -0.8487
  172SOPE   O3219441   1.591   1.834   6.884  0.0770 -0.0023  0.2616
  172SOPE   C3219442   1.427   1.907   7.048  0.2095  0.2677 -0.6589
  172SOPE   H2X19443   1.365   1.819   7.075  0.3534  0.8374  1.7838
  172SOPE   H2Y19444   1.346   1.983   7.046 -1.7862 -1.7346 -0.7602
  172SOPE   C2319445   1.669   2.434   6.989 -0.8888 -0.1576 -0.1766
  172SOPE   H3R19446   1.563   2.461   7.009 -0.9347 -0.9753  0.7770
  172SOPE   H3S19447   1.704   2.508   6.914 -1.8311 -1.0359 -1.5132
  172SOPE   C2419448   1.753   2.453   7.105  0.4927 -0.5006  0.5908
  172SOPE   H4R19449   1.845   2.391   7.091  0.4951  0.1099 -3.0613
  172SOPE   H4S19450   1.775   2.561   7.113 -1.2447  0.1442 -2.1397
  172SOPE   C2519451   1.687   2.403   7.237  0.3166 -0.3172  1.3827
  172SOPE   H5R19452   1.618   2.321   7.209  0.2208  0.6345 -1.4287
  172SOPE   H5S19453   1.772   2.365   7.299  1.2147 -0.4542  0.1014
  172SOPE   C2619454   1.617   2.509   7.320 -0.0605  0.0354  0.0567
  172SOPE   H6R19455   1.566   2.573   7.244 -2.4065 -1.3908  0.3262
  172SOPE   H6S19456   1.552   2.461   7.396  1.0519 -0.2635  0.8519
  172SOPE   C2719457   1.717   2.585   7.406  0.1836  0.3444 -0.1771
  172SOPE   H7R19458   1.765   2.506   7.467 -1.2802  0.4137  1.1460
  172SOPE   H7S19459   1.793   2.636   7.344  0.7918 -1.4644 -0.9845
  172SOPE   C2819460   1.653   2.693   7.498 -0.3379 -0.0591 -0.5384
  172SOPE   H8R19461   1.557   2.650   7.533  0.1578 -1.4601 -0.8232
  172SOPE   H8S19462   1.716   2.716   7.586  0.5821 -1.3196 -0.8304
  172SOPE   C2919463   1.622   2.831   7.433  0.3749  0.2150  0.4442
  172SOPE   H9119464   1.540   2.815   7.362  2.0744 -2.2755 -1.1381
  172SOPE  C21019465   1.676   2.956   7.460  0.6535  0.3487  0.2461
  172SOPE  H10119466   1.650   3.048   7.405  0.5404  0.8967  1.1863
  172SOPE  C21119467   1.791   2.981   7.556  0.0326 -0.5019 -0.5535
  172SOPE  H11R19468   1.857   3.061   7.515  1.5997 -0.8437  1.1451
  172SOPE  H11S19469   1.847   2.887   7.575  1.5198  0.3649 -0.4506
  172SOPE  C21219470   1.740   3.026   7.696  0.0802  0.3730 -0.0570
  172SOPE  H12R19471   1.664   3.107   7.687 -0.6561 -0.5209 -2.8180
  172SOPE  H12S19472   1.818   3.070   7.761 -0.6259  0.4112  0.7887
  172SOPE  C21319473   1.663   2.918   7.778  0.2473 -0.2203 -0.5254
  172SOPE  H13R19474   1.730   2.838   7.817 -0.2575 -0.3530  0.0986
  172SOPE  H13S19475   1.601   2.842   7.725  1.6005 -2.2931  0.6962
  172SOPE  C21419476   1.587   2.975   7.896  0.4914  0.2208 -0.0198
  172SOPE  H14R19477   1.562   2.898   7.972  0.0787 -0.6514 -1.0080
  172SOPE  H14S19478   1.493   3.019   7.856  1.2048  1.2859 -0.5500
  172SOPE  C21519479   1.655   3.083   7.986  0.0300 -0.3046 -0.0384
  172SOPE  H15R19480   1.649   3.183   7.938 -2.3738 -0.5368 -0.3336
  172SOPE  H15S19481   1.761   3.052   7.993 -0.3564 -1.3589  1.7975
  172SOPE  C21619482   1.585   3.106   8.120  0.1738 -0.4636  0.2615
  172SOPE  H16R19483   1.627   3.194   8.173 -1.8803 -0.0494  1.3155
  172SOPE  H16S19484   1.607   3.009   8.170 -0.3118 -0.2794  0.8458
  172SOPE  C21719485   1.429   3.132   8.112  0.4989 -0.2730  0.2621
  172SOPE  H17R19486   1.394   3.053   8.042 -1.2154 -0.2597  1.0688
  172SOPE  H17S19487   1.402   3.231   8.069 -0.8805 -0.1273  1.4032
  172SOPE  C21819488   1.363   3.127   8.248  0.3414 -0.0531  0.3667
  172SOPE  H18R19489   1.390   3.211   8.316 -1.8748  0.8348  0.2552
  172SOPE  H18S19490   1.385   3.037   8.309 -1.7083 -1.0406 -0.2509
  172SOPE  H18T19491   1.253   3.135   8.233  0.5618  4.3482 -0.2015
  172SOPE   C3319492   1.536   1.937   7.158  0.2221  0.8626  0.7274
  172SOPE   H3X19493   1.596   2.029   7.139  1.7936 -0.1334  0.7166
  172SOPE   H3Y19494   1.599   1.847   7.166  1.8321  1.5322 -2.7128
  172SOPE   C3419495   1.471   1.964   7.297  0.2368  0.4187  0.4663
  172SOPE   H4X19496   1.427   1.866   7.327  1.1833 -0.3585 -0.5770
  172SOPE   H4Y19497   1.397   2.046   7.288 -0.0943 -0.0007 -0.9332
  172SOPE   C3519498   1.575   2.003   7.397  0.5234 -0.5814 -0.1253
  172SOPE   H5X19499   1.616   2.105   7.378 -5.3071  2.1251 -0.4750
  172SOPE   H5Y19500   1.660   1.931   7.401 -0.3058 -1.5428  3.4051
  172SOPE   C3619501   1.511   2.013   7.539  0.0503  0.6675 -0.2343
  172SOPE   H6X19502   1.436   1.932   7.551 -0.5935  1.0959 -1.1867
  172SOPE   H6Y19503   1.457   2.109   7.554 -1.0588 -0.0204  0.3271
  172SOPE   C3719504   1.610   1.994   7.646  0.0245 -0.4978  0.3929
  172SOPE   H7X19505   1.664   2.091   7.641  0.0290 -0.5675 -1.6549
  172SOPE   H7Y19506   1.679   1.909   7.626  0.1670 -0.5910  1.2250
  172SOPE   C3819507   1.535   1.976   7.783  0.0300  0.9478  0.0922
  172SOPE   H8X19508   1.463   1.892   7.790  1.5862 -0.2759  3.7109
  172SOPE   H8Y19509   1.475   2.069   7.788 -2.0948 -0.3721  0.5725
  172SOPE   C3919510   1.642   1.960   7.895  0.4530 -0.2371  0.7843
  172SOPE   H9X19511   1.724   2.032   7.876  0.2588  0.0962  1.1871
  172SOPE   H9Y19512   1.691   1.861   7.884  1.0713  0.1533 -0.1672
  172SOPE  C31019513   1.578   1.983   8.032 -0.0373  0.0417  0.7378
  172SOPE  H10X19514   1.482   1.927   8.030  0.8844 -1.6827 -2.1522
  172SOPE  H10Y19515   1.541   2.087   8.037 -1.3935 -0.3737 -0.0146
  172SOPE  C31119516   1.663   1.958   8.154 -0.3038  1.0754 -0.0210
  172SOPE  H11X19517   1.747   2.031   8.152 -0.4978  1.3853  1.5942
  172SOPE  H11Y19518   1.697   1.853   8.141 -3.0837 -0.0190  0.8375
  172SOPE  C31219519   1.586   1.974   8.289  0.5970  0.7619 -0.7693
  172SOPE  H12X19520   1.520   1.890   8.321  0.3137  1.6666  1.1747
  172SOPE  H12Y19521   1.526   2.064   8.265 -0.2876  0.1506 -0.9016
  172SOPE  C31319522   1.673   1.994   8.409 -0.1354  0.9679  0.2548
  172SOPE  H13X19523   1.744   2.079   8.395  1.7852 -0.4004  1.1917
  172SOPE  H13Y19524   1.736   1.904   8.425 -3.6702 -1.9985 -1.0867
  172SOPE  C31419525   1.575   2.014   8.529 -0.2301  0.1165  0.0030
  172SOPE  H14X19526   1.557   1.912   8.568  0.1035 -1.7753 -4.2518
  172SOPE  H14Y19527   1.474   2.047   8.498 -0.6457  0.6499  1.7826
  172SOPE  C31519528   1.615   2.113   8.643 -0.8692  0.8091  0.1973
  172SOPE  H15X19529   1.690   2.191   8.618  0.1751  0.8943  3.2229
  172SOPE  H15Y19530   1.654   2.047   8.723 -0.5784 -1.2303 -1.5597
  172SOPE  C31619531   1.507   2.203   8.699  1.1172  0.2107 -0.5894
  172SOPE  H16X19532   1.467   2.267   8.617 -2.4913 -1.4649 -0.3185
  172SOPE  H16Y19533   1.562   2.267   8.772  0.9234 -0.0456 -0.2159
  172SOPE  C31719534   1.391   2.121   8.767 -1.0301 -0.3545  0.7366
  172SOPE  H17X19535   1.443   2.060   8.844  1.5022  0.5459 -0.1288
  172SOPE  H17Y19536   1.331   2.059   8.698  0.2442 -1.5385  0.6410
  172SOPE  C31819537   1.287   2.203   8.840 -0.7946 -0.0334  0.2923
  172SOPE  H18X19538   1.227   2.155   8.921 -0.4480  1.2223  1.3313
  172SOPE  H18Y19539   1.218   2.236   8.760 -0.2072 -3.7529 -1.9691
  172SOPE  H18Z19540   1.334   2.292   8.889 -1.8747  1.9732 -2.1034
  173SAPI   C1219541   1.994   6.228  11.060  0.7032 -1.1704 -0.2918
  173SAPI    H219542   1.980   6.302  10.978  0.2808  0.8148  1.4736
  173SAPI    O219543   2.108   6.275  11.137 -0.1601 -0.4580  0.3052
  173SAPI   HO219544   2.180   6.219  11.107  1.0438  0.5773  1.1623
  173SAPI   C1319545   1.859   6.248  11.131  0.4610 -0.2995 -0.3701
  173SAPI    H319546   1.777   6.210  11.066  0.5680 -2.1935  0.5315
  173SAPI    O319547   1.826   6.393  11.138 -0.2912 -0.8054 -0.5230
  173SAPI   HO319548   1.873   6.425  11.216  0.7287  0.1868 -1.4930
  173SAPI   C1419549   1.853   6.173  11.263 -0.2963 -0.5131  0.3995
  173SAPI    H419550   1.936   6.216  11.322  1.1597 -1.1433 -1.1126
  173SAPI    O419551   1.723   6.195  11.319  0.4676  0.3041 -0.0590
  173SAPI   HO419552   1.712   6.271  11.376 -0.3794  0.3371 -0.2529
  173SAPI   C1519553   1.887   6.023  11.233  0.3170  0.1701 -0.0262
  173SAPI    H519554   1.806   5.975  11.175  1.6450 -0.2545 -1.5904
  173SAPI    O519555   1.901   5.950  11.357 -0.8801  0.9847 -0.3566
  173SAPI   HO519556   1.989   5.966  11.391 -1.5098 -0.6802  2.3295
  173SAPI   C1619557   2.007   5.995  11.148 -0.2738  0.0221 -0.0973
  173SAPI    H619558   2.094   6.020  11.212  0.8114 -1.2824 -1.0079
  173SAPI    O619559   1.997   5.860  11.101 -0.7193 -0.2804  0.0025
  173SAPI   HO619560   2.053   5.844  11.025  0.4719  3.7665 -0.2273
  173SAPI   C1119561   2.004   6.086  11.026  0.2751  0.8983  0.6875
  173SAPI    H119562   1.922   6.050  10.960  1.4587 -0.6381 -0.0242
  173SAPI     P19563   2.139   5.973  10.828  0.0650  0.1437  0.2551
  173SAPI   O1319564   2.158   5.843  10.889 -0.0388 -0.3629 -0.5014
  173SAPI   O1419565   2.241   6.024  10.744 -0.0405  0.1492 -0.4998
  173SAPI   O1219566   2.122   6.079  10.943 -0.7582 -0.1754 -0.0597
  173SAPI   O1119567   2.000   5.971  10.747 -0.6690 -0.2455 -0.5731
  173SAPI    C119568   1.955   6.089  10.684  0.0981  0.2219 -0.3594
  173SAPI    HA19569   1.848   6.081  10.653  0.3281 -2.2950 -0.7170
  173SAPI    HB19570   1.958   6.175  10.754 -2.1921 -0.1142  0.2409
  173SAPI    C219571   2.033   6.113  10.547  0.5107 -0.6018  0.3059
  173SAPI    HS19572   2.141   6.115  10.576  0.8319 -0.8640 -0.8264
  173SAPI   O2119573   1.975   6.231  10.496 -0.3751 -0.0587 -0.4377
  173SAPI   C2119574   2.022   6.340  10.549 -0.4242 -0.3238 -0.8275
  173SAPI   O2219575   2.121   6.355  10.617  0.4746  0.1314  0.2149
  173SAPI   C2219576   1.942   6.458  10.484 -0.4248 -0.4348 -0.0239
  173SAPI   H2R19577   1.868   6.417  10.411  0.4763 -0.6123 -0.8610
  173SAPI   H2S19578   1.888   6.514  10.563 -2.7885 -1.3310 -0.8919
  173SAPI    C319579   2.023   6.000  10.441  0.0274 -0.3111  0.4486
  173SAPI    HX19580   1.915   5.974  10.434  0.3149 -1.1504 -1.6593
  173SAPI    HY19581   2.085   5.915  10.477  1.9136 -0.3207 -2.5013
  173SAPI   O3119582   2.074   6.057  10.311  0.4754  0.0293  0.4151
  173SAPI   C3119583   1.979   6.106  10.232  0.2007 -0.7368 -0.5529
  173SAPI   O3219584   1.858   6.087  10.245 -0.5643  0.5929 -0.8460
  173SAPI   C3219585   2.049   6.199  10.124 -0.1543  0.6479 -0.6498
  173SAPI   H2X19586   2.139   6.250  10.165 -1.0316  2.3217 -0.7138
  173SAPI   H2Y19587   1.980   6.285  10.109 -1.4869 -0.1375  0.6482
  173SAPI   C2319588   2.033   6.558  10.420  0.1192 -0.2677  0.0716
  173SAPI   H3R19589   2.109   6.601  10.489  0.0354  0.2659 -0.1639
  173SAPI   H3S19590   1.959   6.636  10.393 -2.1195 -1.8106  1.3789
  173SAPI   C2419591   2.092   6.509  10.288  0.3389  0.3469 -0.0999
  173SAPI   H4R19592   2.012   6.461  10.229  1.7253 -1.4162 -0.6550
  173SAPI   H4S19593   2.147   6.415  10.314  0.0354  0.9080  3.0038
  173SAPI   C2519594   2.172   6.601  10.200  0.1170 -0.1177 -0.2764
  173SAPI   H5R19595   2.272   6.625  10.238  1.5327 -2.4191 -2.2414
  173SAPI   C2619596   2.113   6.672  10.095  0.4979  0.6055 -0.1883
  173SAPI   H6R19597   2.173   6.747  10.042 -3.3692  1.7249 -3.5527
  173SAPI   C2719598   1.969   6.669  10.051  0.7828 -0.3979  1.1303
  173SAPI   H7R19599   1.950   6.762   9.993  3.0071 -0.5636  0.0515
  173SAPI   H7S19600   1.903   6.681  10.140 -0.4414  0.0759  0.1820
  173SAPI   C2819601   1.925   6.556   9.969 -0.4145 -0.2671  0.0692
  173SAPI   H8R19602   1.861   6.486  10.025  0.5228 -1.3774 -0.2095
  173SAPI   C2919603   1.946   6.547   9.838 -0.1700  0.2434  0.7215
  173SAPI   H9R19604   1.918   6.448   9.799  0.5319  0.6602 -0.9284
  173SAPI  C21019605   2.016   6.634   9.745  0.1135 -0.8990 -0.7917
  173SAPI  H10R19606   2.030   6.732   9.794 -1.0120 -0.5648 -1.0923
  173SAPI  H10S19607   1.949   6.650   9.657  0.1694  0.0558 -0.6660
  173SAPI  C21119608   2.145   6.573   9.706  0.4248 -0.2344 -0.0875
  173SAPI  H11R19609   2.220   6.584   9.786  0.1875 -1.0319  0.2505
  173SAPI  C21219610   2.184   6.512   9.593  0.2515 -0.0484  0.6559
  173SAPI  H12R19611   2.291   6.487   9.580  0.1574 -0.2846  0.3109
  173SAPI  C21319612   2.103   6.489   9.470  0.2583 -0.0316 -0.4967
  173SAPI  H13R19613   1.996   6.517   9.484  0.8640  1.0176  3.2512
  173SAPI  H13S19614   2.107   6.381   9.446  0.4601 -0.1936  0.2424
  173SAPI  C21419615   2.155   6.552   9.347 -0.5130  0.6087 -0.1041
  173SAPI  H14R19616   2.262   6.580   9.344  0.5551 -2.7115  1.7511
  173SAPI  C21519617   2.077   6.584   9.245  0.5936 -0.4984 -0.7149
  173SAPI  H15R19618   2.114   6.635   9.155 -2.2336 -1.2460 -2.4409
  173SAPI  C21619619   1.926   6.577   9.240  0.5228  0.3037  0.0868
  173SAPI  H16R19620   1.886   6.496   9.306 -0.3293  0.9207  0.3472
  173SAPI  H16S19621   1.888   6.563   9.137 -0.8531 -2.3472  0.8634
  173SAPI  C21719622   1.862   6.699   9.299 -0.3255  0.0814 -0.7750
  173SAPI  H17R19623   1.900   6.715   9.402 -2.4299  2.9778 -0.3065
  173SAPI  H17S19624   1.751   6.693   9.302 -0.2943 -0.0066  0.9269
  173SAPI  C21819625   1.899   6.828   9.225 -0.1946  0.2119 -0.2766
  173SAPI  H18R19626   2.006   6.855   9.237 -0.4205  0.9979  0.0522
  173SAPI  H18S19627   1.851   6.910   9.283 -0.4011  0.1117 -0.3067
  173SAPI  C21919628   1.854   6.838   9.079  1.1921 -0.2967 -0.5202
  173SAPI  H19R19629   1.743   6.836   9.084  1.2373 -1.6896  0.6412
  173SAPI  H19S19630   1.886   6.754   9.013  0.1625 -1.1554  0.0254
  173SAPI  C22019631   1.907   6.974   9.035  0.5760 -0.1332 -0.2547
  173SAPI  H20R19632   1.862   7.021   8.945  0.4992  3.8521  1.6851
  173SAPI  H20S19633   2.018   6.967   9.036  0.5154 -1.2337  0.0656
  173SAPI  H20T19634   1.876   7.041   9.118 -1.1387 -3.2262  1.7831
  173SAPI   C3319635   2.071   6.111   9.998 -0.4825  0.3920  0.0379
  173SAPI   H3X19636   1.970   6.092   9.957 -0.8572  0.3705  0.9469
  173SAPI   H3Y19637   2.120   6.015  10.027 -0.2854 -0.2229 -2.1431
  173SAPI   C3419638   2.155   6.180   9.895  0.0652  0.6412 -0.7533
  173SAPI   H4X19639   2.263   6.193   9.918  0.0398  3.6761 -1.8359
  173SAPI   H4Y19640   2.115   6.284   9.892  1.5789  1.3074  0.7205
  173SAPI   C3519641   2.147   6.106   9.759  0.1957  0.7491  0.3216
  173SAPI   H5X19642   2.198   6.166   9.681 -0.7007  1.5944  0.3741
  173SAPI   H5Y19643   2.041   6.094   9.731  0.3573 -1.2858  0.4010
  173SAPI   C3619644   2.204   5.966   9.769 -0.7174 -0.0519  0.3380
  173SAPI   H6X19645   2.123   5.904   9.813  0.1305  0.0238  2.0849
  173SAPI   H6Y19646   2.285   5.968   9.845 -0.2815 -1.6904 -0.0455
  173SAPI   C3719647   2.253   5.915   9.634 -0.6685 -0.1843 -0.6527
  173SAPI   H7X19648   2.319   5.826   9.644  1.5347  1.3329 -1.0573
  173SAPI   H7Y19649   2.311   5.998   9.588 -2.2922  0.6423 -1.2795
  173SAPI   C3819650   2.138   5.880   9.535  0.6615 -0.4281 -0.1932
  173SAPI   H8X19651   2.075   5.971   9.527  2.9848  1.4776  1.3993
  173SAPI   H8Y19652   2.071   5.798   9.567  0.5569 -0.3905 -0.3172
  173SAPI   C3919653   2.187   5.853   9.389  0.7139  0.0394 -0.4531
  173SAPI   H9X19654   2.286   5.803   9.391  1.3464  1.2401  1.9720
  173SAPI   H9Y19655   2.194   5.951   9.338 -0.4594  0.4341  0.1083
  173SAPI  C31019656   2.077   5.771   9.317 -1.0888 -0.6443  0.7352
  173SAPI  H10X19657   1.973   5.809   9.326 -1.2568 -1.0779  0.6391
  173SAPI  H10Y19658   2.083   5.679   9.380 -0.2760 -1.5925 -0.6523
  173SAPI  C31119659   2.118   5.748   9.175 -0.0077  0.3339 -0.0011
  173SAPI  H11X19660   2.216   5.699   9.153  0.6120  1.1796  0.7939
  173SAPI  H11Y19661   2.136   5.849   9.134  1.8674  0.0372 -0.0255
  173SAPI  C31219662   2.008   5.699   9.082  0.5398  0.4647  0.5209
  173SAPI  H12X19663   1.911   5.734   9.122  0.5019  1.0611 -0.0773
  173SAPI  H12Y19664   2.017   5.589   9.090 -1.1907 -0.0925 -2.9930
  173SAPI  C31319665   2.016   5.740   8.936 -0.6005  0.8559  0.1402
  173SAPI  H13X19666   2.113   5.706   8.894 -0.1031  0.2968  1.6907
  173SAPI  H13Y19667   2.008   5.851   8.929 -0.3322  0.9268  0.8794
  173SAPI  C31419668   1.887   5.696   8.859  0.0699  0.0410 -0.3462
  173SAPI  H14X19669   1.800   5.743   8.909  0.0494  0.0351 -0.3762
  173SAPI  H14Y19670   1.871   5.586   8.864  0.1504  0.0840  1.7287
  173SAPI  C31519671   1.890   5.732   8.710 -0.7833 -0.1379  0.1174
  173SAPI  H15X19672   1.916   5.645   8.646  0.7813  0.4843 -0.1399
  173SAPI  H15Y19673   1.961   5.817   8.707 -1.7352  0.6911  0.6168
  173SAPI  C31619674   1.748   5.767   8.651 -0.4092 -0.2548 -0.5753
  173SAPI  H16X19675   1.679   5.800   8.731  1.9261  1.1842  0.9893
  173SAPI  H16Y19676   1.720   5.673   8.599 -2.0161 -0.8253  1.2122
  173SAPI  C31719677   1.748   5.877   8.539 -0.0333  0.1389  0.4383
  173SAPI  H17X19678   1.665   5.873   8.465  1.4295 -2.4084 -1.2321
  173SAPI  H17Y19679   1.838   5.866   8.475  1.7659 -0.3503  2.8779
  173SAPI  C31819680   1.750   6.013   8.609 -0.0620 -0.0541  0.0217
  173SAPI  H18X19681   1.840   6.025   8.672  0.0462  2.6809 -0.5308
  173SAPI  H18Y19682   1.660   6.035   8.671 -0.7378  2.6168 -1.7422
  173SAPI  H18Z19683   1.738   6.095   8.535 -1.0968 -1.3205 -1.2843
  174SAPI   C1219684   5.527   6.716  10.911  0.6382  0.7351 -0.0272
  174SAPI    H219685   5.563   6.616  10.944 -2.2693 -0.4020  0.0934
  174SAPI    O219686   5.481   6.769  11.030  0.1569 -0.3923 -0.5987
  174SAPI   HO219687   5.399   6.728  11.057  0.4294  0.4245  1.6856
  174SAPI   C1319688   5.641   6.796  10.854 -0.5022  0.7446 -0.2652
  174SAPI    H319689   5.683   6.738  10.769 -2.7316 -1.5045  0.0607
  174SAPI    O319690   5.750   6.806  10.943 -0.7840 -0.7832  0.4607
  174SAPI   HO319691   5.733   6.779  11.034  2.2740  1.0169  1.7375
  174SAPI   C1419692   5.594   6.929  10.804  0.3300 -0.9052  0.4415
  174SAPI    H419693   5.564   6.981  10.897  0.1005 -0.6382  0.2201
  174SAPI    O419694   5.694   7.012  10.741  0.4243 -0.1214 -0.1884
  174SAPI   HO419695   5.736   6.957  10.675 -0.6117  1.2671 -2.0919
  174SAPI   C1519696   5.472   6.921  10.706 -0.3105  0.4422 -1.0181
  174SAPI    H519697   5.524   6.885  10.615  0.4923 -0.2177 -0.3212
  174SAPI    O519698   5.438   7.053  10.674 -0.4016  0.2741 -0.1838
  174SAPI   HO519699   5.501   7.090  10.612  0.0766 -1.5105 -0.8413
  174SAPI   C1619700   5.358   6.832  10.769  0.1040 -0.1993  0.3496
  174SAPI    H619701   5.322   6.890  10.856 -2.3938  0.0999 -0.7746
  174SAPI    O619702   5.251   6.815  10.675  0.1164 -0.1744  0.0771
  174SAPI   HO619703   5.250   6.726  10.639  1.0917  0.7526 -2.4364
  174SAPI   C1119704   5.419   6.698  10.798  0.4065 -0.4501  0.5701
  174SAPI    H119705   5.476   6.661  10.710  1.0861  1.2645  0.2531
  174SAPI     P19706   5.271   6.474  10.754 -0.1117  0.2109  0.4439
  174SAPI   O1319707   5.148   6.415  10.816  0.4303  0.4052  0.3074
  174SAPI   O1419708   5.387   6.385  10.744  0.3472  0.2345  0.0436
  174SAPI   O1219709   5.316   6.607  10.841  0.5586 -0.0222  0.2812
  174SAPI   O1119710   5.237   6.547  10.618  0.2350  0.2850 -0.1187
  174SAPI    C119711   5.248   6.470  10.494 -0.1758  0.2364  0.2185
  174SAPI    HA19712   5.355   6.468  10.464 -0.6044 -3.2658 -1.6686
  174SAPI    HB19713   5.229   6.361  10.509  0.9226  0.1482  1.1209
  174SAPI    C219714   5.164   6.541  10.380 -0.2637 -0.4680  0.4814
  174SAPI    HS19715   5.196   6.494  10.284  0.5453 -1.0470  1.0212
  174SAPI   O2119716   5.199   6.681  10.386  0.1266 -0.0724 -0.0241
  174SAPI   C2119717   5.313   6.709  10.330 -0.4935  0.3696 -0.7231
  174SAPI   O2219718   5.389   6.633  10.272 -0.4132  0.6992  0.2909
  174SAPI   C2219719   5.329   6.863  10.340 -0.3840  0.3571  0.3265
  174SAPI   H2R19720   5.228   6.909  10.334 -0.1151  0.9501  0.2237
  174SAPI   H2S19721   5.380   6.889  10.435 -0.2778 -1.9130  0.9401
  174SAPI    C319722   5.007   6.533  10.392  1.0726  0.1066  0.0820
  174SAPI    HX19723   4.966   6.579  10.484  1.6827  0.3811  0.2229
  174SAPI    HY19724   4.986   6.425  10.407  0.7949  0.4487  2.4789
  174SAPI   O3119725   4.935   6.591  10.272  0.0161 -0.2706  0.6832
  174SAPI   C3119726   4.919   6.725  10.257 -0.9024  0.4847  0.0819
  174SAPI   O3219727   4.913   6.805  10.348 -0.8413  0.4101 -0.1683
  174SAPI   C3219728   4.922   6.751  10.107 -0.1395  0.2576 -0.0164
  174SAPI   H2X19729   4.884   6.662  10.053 -1.6704  2.6459 -3.2654
  174SAPI   H2Y19730   5.026   6.783  10.085 -0.2227 -0.0275 -0.8580
  174SAPI   C2319731   5.410   6.917  10.214  0.2730  0.9553  0.2125
  174SAPI   H3R19732   5.411   6.845  10.129 -1.7660  2.6542 -1.3405
  174SAPI   H3S19733   5.517   6.933  10.240  0.0337  0.5301  1.5476
  174SAPI   C2419734   5.352   7.047  10.158 -0.3272  0.2623 -0.0899
  174SAPI   H4R19735   5.362   7.130  10.231 -1.3264  0.1230  0.2143
  174SAPI   H4S19736   5.244   7.025  10.154 -0.0953 -1.5868  1.8705
  174SAPI   C2519737   5.408   7.106  10.027 -0.6308  0.6852  0.6030
  174SAPI   H5R19738   5.489   7.179  10.043  0.6332  0.0881 -2.5300
  174SAPI   C2619739   5.364   7.091   9.900 -0.3664 -0.0249 -0.1829
  174SAPI   H6R19740   5.424   7.137   9.820  1.8830  0.0647  1.4480
  174SAPI   C2719741   5.260   6.993   9.863  0.5933 -0.1669 -0.5154
  174SAPI   H7R19742   5.266   6.901   9.926 -0.4056  0.3174  0.3134
  174SAPI   H7S19743   5.276   6.971   9.755  0.4861  0.1775 -0.6004
  174SAPI   C2819744   5.119   7.056   9.885 -0.1896 -0.4154 -0.1603
  174SAPI   H8R19745   5.065   7.037   9.979  1.6920  3.5073  1.9461
  174SAPI   C2919746   5.061   7.148   9.803 -0.5609  0.1782  0.8903
  174SAPI   H9R19747   4.959   7.188   9.814 -0.6724 -0.1441  1.0636
  174SAPI  C21019748   5.121   7.199   9.671 -0.0497 -0.0635 -0.0038
  174SAPI  H10R19749   5.106   7.118   9.597  0.7150  1.1850 -1.5817
  174SAPI  H10S19750   5.231   7.199   9.683  0.0034  0.3413 -0.4762
  174SAPI  C21119751   5.064   7.334   9.632 -0.3157  0.6071 -0.0873
  174SAPI  H11R19752   5.036   7.401   9.715 -0.1559  0.0343  0.4459
  174SAPI  C21219753   5.045   7.390   9.507 -0.2884 -0.3130 -0.3804
  174SAPI  H12R19754   5.014   7.495   9.496 -1.6457 -0.7455 -0.7803
  174SAPI  C21319755   5.077   7.327   9.381  0.2598  0.1738 -0.4991
  174SAPI  H13R19756   5.142   7.239   9.403 -2.5246 -1.5428  1.6285
  174SAPI  H13S19757   5.124   7.394   9.306 -0.7440 -0.3537 -1.6192
  174SAPI  C21419758   4.947   7.275   9.316 -0.6343 -0.0060  1.0564
  174SAPI  H14R19759   4.860   7.245   9.376 -2.9535  1.6038 -1.2899
  174SAPI  C21519760   4.921   7.278   9.184 -0.4407 -0.4008  0.5813
  174SAPI  H15R19761   4.825   7.238   9.148  0.3255 -0.2953 -1.7545
  174SAPI  C21619762   5.026   7.318   9.075  0.4666  0.0261 -0.0060
  174SAPI  H16R19763   5.125   7.334   9.123  1.1475  0.8079 -1.5948
  174SAPI  H16S19764   4.985   7.412   9.031 -1.9142 -0.5949  0.7399
  174SAPI  C21719765   5.026   7.217   8.958  0.2116 -0.7631 -0.2146
  174SAPI  H17R19766   5.042   7.114   8.996  0.6098 -1.5994 -2.4692
  174SAPI  H17S19767   5.113   7.228   8.890 -0.3898 -1.5164 -1.1344
  174SAPI  C21819768   4.900   7.204   8.862 -0.7225  0.1571 -0.6301
  174SAPI  H18R19769   4.825   7.193   8.943 -0.7133  1.2544 -0.4593
  174SAPI  H18S19770   4.901   7.114   8.797 -0.2496  1.0438 -1.8811
  174SAPI  C21919771   4.878   7.321   8.772  0.3653  0.3746  0.4323
  174SAPI  H19R19772   4.940   7.319   8.680 -0.3823  0.1209 -0.0761
  174SAPI  H19S19773   4.895   7.417   8.826  1.4728 -0.3279  1.3667
  174SAPI  C22019774   4.731   7.330   8.707  0.0998  0.3428 -0.1531
  174SAPI  H20R19775   4.724   7.420   8.642  0.6714  1.0628  0.7588
  174SAPI  H20S19776   4.656   7.337   8.788  1.5689 -1.7790  1.5037
  174SAPI  H20T19777   4.717   7.242   8.641 -0.5093 -0.7217  1.3507
  174SAPI   C3319778   4.821   6.863  10.069 -0.0114 -0.5788  0.0772
  174SAPI   H3X19779   4.869   6.906   9.978 -2.4481 -0.2189 -1.1261
  174SAPI   H3Y19780   4.800   6.941  10.145  0.3758 -0.3759 -0.0198
  174SAPI   C3419781   4.689   6.804  10.003  0.3618  0.0614 -0.1117
  174SAPI   H4X19782   4.607   6.878  10.014  0.3111 -0.2021  1.4297
  174SAPI   H4Y19783   4.661   6.718  10.067  1.6358  1.5880  2.6577
  174SAPI   C3519784   4.692   6.767   9.853  0.0533  0.0396  0.6581
  174SAPI   H5X19785   4.619   6.685   9.839 -1.3594  1.2744  0.6392
  174SAPI   H5Y19786   4.798   6.737   9.836 -0.0784 -0.4008  0.6218
  174SAPI   C3619787   4.662   6.882   9.755  0.2594  0.3725  0.5731
  174SAPI   H6X19788   4.702   6.971   9.808  0.4986  0.0529  0.9312
  174SAPI   H6Y19789   4.554   6.905   9.761 -0.3156 -1.7693 -0.5863
  174SAPI   C3719790   4.697   6.848   9.611  0.3586  1.0503 -0.0922
  174SAPI   H7X19791   4.646   6.757   9.574 -1.6151  2.7110 -1.6841
  174SAPI   H7Y19792   4.804   6.816   9.612 -0.2551 -1.1857  0.8203
  174SAPI   C3819793   4.649   6.943   9.506 -0.2692  0.0217  0.5569
  174SAPI   H8X19794   4.686   7.048   9.507  1.3517 -0.5204  0.3817
  174SAPI   H8Y19795   4.538   6.949   9.512 -0.6044 -0.6675 -2.6896
  174SAPI   C3919796   4.674   6.883   9.368 -0.0374  0.3508  0.3457
  174SAPI   H9X19797   4.634   6.779   9.361 -1.5049  0.9452 -0.5004
  174SAPI   H9Y19798   4.781   6.871   9.341  0.7897  1.9864  2.6325
  174SAPI  C31019799   4.614   6.972   9.262  0.3927 -0.0993  0.0917
  174SAPI  H10X19800   4.680   7.061   9.272 -1.0668  0.8906  1.3728
  174SAPI  H10Y19801   4.512   6.999   9.297  0.6298 -0.3697  1.0207
  174SAPI  C31119802   4.604   6.914   9.124 -0.1708 -0.1114  0.0568
  174SAPI  H11X19803   4.588   6.804   9.126 -0.2254 -0.1001  0.2057
  174SAPI  H11Y19804   4.705   6.918   9.079  0.6936 -2.1047  1.7039
  174SAPI  C31219805   4.498   6.990   9.037  0.1414 -0.4257  0.9888
  174SAPI  H12X19806   4.511   7.100   9.027 -1.7001 -0.2562 -0.0998
  174SAPI  H12Y19807   4.398   6.969   9.080 -0.6381  0.1506 -0.4565
  174SAPI  C31319808   4.487   6.934   8.892  0.3984 -0.3856  0.0731
  174SAPI  H13X19809   4.482   6.824   8.910 -3.4123 -0.5114 -0.8219
  174SAPI  H13Y19810   4.576   6.963   8.833  1.5676 -0.5922  1.6576
  174SAPI  C31419811   4.359   6.982   8.821  0.3783 -0.1286 -0.0027
  174SAPI  H14X19812   4.355   7.093   8.818  0.6759 -0.0840  0.8359
  174SAPI  H14Y19813   4.267   6.944   8.869  0.7463  0.0059  0.8326
  174SAPI  C31519814   4.368   6.935   8.677 -0.0766  0.0038 -0.2002
  174SAPI  H15X19815   4.390   6.827   8.662  1.4431  0.4655 -1.4889
  174SAPI  H15Y19816   4.453   6.985   8.627 -0.6439  1.2589  0.0364
  174SAPI  C31619817   4.250   6.971   8.588 -0.3933 -0.1266 -0.0073
  174SAPI  H16X19818   4.269   7.077   8.563 -1.4073 -0.4102 -2.2791
  174SAPI  H16Y19819   4.152   6.951   8.636  0.0455 -1.5198  0.3575
  174SAPI  C31719820   4.254   6.875   8.466 -0.3216  0.1785  0.0583
  174SAPI  H17X19821   4.250   6.771   8.505 -0.8820  0.1929  0.0490
  174SAPI  H17Y19822   4.358   6.884   8.426 -0.2816 -0.3603  0.0389
  174SAPI  C31819823   4.153   6.907   8.363 -0.1099  0.3186 -0.1432
  174SAPI  H18X19824   4.045   6.905   8.390 -0.0157  0.2092  0.2309
  174SAPI  H18Y19825   4.165   6.837   8.277 -0.3968 -0.7575  0.6730
  174SAPI  H18Z19826   4.168   7.011   8.325  0.5892 -0.4522 -2.1022
  175SAPI   C1219827   2.032   6.295   5.988  0.7423 -0.4911  0.7459
  175SAPI    H219828   2.130   6.348   5.990  0.4085  0.3697 -2.0842
  175SAPI    O219829   1.935   6.398   5.963  0.4380  0.1378 -0.2274
  175SAPI   HO219830   1.965   6.469   5.907 -1.0694 -0.0383 -1.3198
  175SAPI   C1319831   2.047   6.200   5.869  0.5793  0.0867  0.1945
  175SAPI    H319832   2.123   6.123   5.896  0.9732  0.2930 -0.3143
  175SAPI    O319833   2.111   6.235   5.745  0.0256 -0.0600 -0.0052
  175SAPI   HO319834   2.050   6.293   5.698  1.3206  0.1653 -1.4852
  175SAPI   C1419835   1.912   6.134   5.849  0.0805 -0.8186 -0.3508
  175SAPI    H419836   1.848   6.218   5.815  0.9114 -0.3906 -0.8925
  175SAPI    O419837   1.909   6.048   5.735 -0.1516  0.4415 -0.4463
  175SAPI   HO419838   1.824   6.006   5.742  0.9340 -1.6874  0.9381
  175SAPI   C1519839   1.867   6.065   5.969  0.2156  0.0646 -0.0043
  175SAPI    H519840   1.941   5.984   5.985  0.9887  0.8138  0.2662
  175SAPI    O519841   1.734   6.007   5.953 -0.3117  0.3866 -0.0223
  175SAPI   HO519842   1.730   5.928   6.008  0.4846 -0.1477 -0.7135
  175SAPI   C1619843   1.873   6.145   6.100 -0.1905 -0.0311  0.5958
  175SAPI    H619844   1.789   6.218   6.103  0.3248  0.5756  0.4844
  175SAPI    O619845   1.847   6.039   6.194  0.0151 -0.7221 -0.0997
  175SAPI   HO619846   1.847   6.088   6.277  2.2460  0.0968 -0.5199
  175SAPI   C1119847   2.005   6.216   6.117 -0.4012 -0.8375  0.4624
  175SAPI    H119848   2.083   6.136   6.116 -0.0652 -0.5632 -2.2358
  175SAPI     P19849   2.048   6.222   6.385  0.0714  0.5508  0.2688
  175SAPI   O1319850   2.099   6.327   6.472 -0.2395 -0.5690  0.8626
  175SAPI   O1419851   2.132   6.103   6.370  0.3614  0.1933  0.2763
  175SAPI   O1219852   2.023   6.296   6.230 -0.3591 -0.2489  0.1756
  175SAPI   O1119853   1.899   6.188   6.436  0.0813  0.2291 -0.2155
  175SAPI    C119854   1.860   6.086   6.522  0.0113  0.7453  0.8749
  175SAPI    HA19855   1.761   6.042   6.498  1.4700 -2.7971  0.6524
  175SAPI    HB19856   1.922   6.000   6.488 -2.5744  0.3624 -3.6805
  175SAPI    C219857   1.866   6.110   6.675  0.0344  0.2251 -0.1874
  175SAPI    HS19858   1.791   6.191   6.690 -1.0522 -0.7673 -0.0775
  175SAPI   O2119859   2.006   6.128   6.714  0.3345 -0.2325 -0.3386
  175SAPI   C2119860   2.021   6.244   6.784  1.2834  0.4667  0.5950
  175SAPI   O2219861   1.929   6.327   6.798 -0.6478  0.2451 -0.4156
  175SAPI   C2219862   2.158   6.251   6.852 -0.0500 -0.1306 -0.5031
  175SAPI   H2R19863   2.185   6.148   6.883 -1.0878 -0.0918  0.6161
  175SAPI   H2S19864   2.235   6.290   6.782  0.0890 -1.3548 -1.0518
  175SAPI    C319865   1.803   5.988   6.755 -0.6797  0.2266 -0.7438
  175SAPI    HX19866   1.868   5.908   6.714 -2.2084 -0.0153 -2.8801
  175SAPI    HY19867   1.698   5.979   6.720 -0.7922 -0.3510 -0.2620
  175SAPI   O3119868   1.833   5.992   6.902  0.2861  0.2133  0.0420
  175SAPI   C3119869   1.757   6.083   6.959 -0.2855  0.5437  0.0862
  175SAPI   O3219870   1.662   6.138   6.908 -0.0406  0.6015 -0.2169
  175SAPI   C3219871   1.803   6.104   7.106  0.4140 -0.2036  0.3082
  175SAPI   H2X19872   1.817   6.215   7.107 -1.1803  0.0358 -0.4028
  175SAPI   H2Y19873   1.902   6.060   7.131  2.1370  0.2643 -4.5754
  175SAPI   C2319874   2.156   6.348   6.975 -0.0730  0.2048  0.4865
  175SAPI   H3R19875   2.078   6.311   7.045  0.4102  1.0318  1.4888
  175SAPI   H3S19876   2.122   6.448   6.940 -0.9429  0.0665  0.9171
  175SAPI   C2419877   2.292   6.370   7.052 -0.1410  0.1070 -0.5037
  175SAPI   H4R19878   2.276   6.453   7.124 -0.6538  0.5167 -1.0714
  175SAPI   H4S19879   2.365   6.419   6.984 -0.6952 -0.1060 -1.2624
  175SAPI   C2519880   2.354   6.243   7.101  0.1063 -0.1894 -0.1440
  175SAPI   H5R19881   2.417   6.197   7.024 -0.5061 -0.6136 -0.4026
  175SAPI   C2619882   2.347   6.182   7.220  0.6987  0.7777 -0.1296
  175SAPI   H6R19883   2.398   6.085   7.226  0.3915  0.7151  2.1741
  175SAPI   C2719884   2.260   6.214   7.334 -0.3749  0.5263  0.7817
  175SAPI   H7R19885   2.161   6.169   7.310 -0.7887  2.5537 -1.7865
  175SAPI   H7S19886   2.249   6.324   7.334 -0.0303  0.5628  1.2777
  175SAPI   C2819887   2.305   6.161   7.469  0.4884  0.8512 -0.4837
  175SAPI   H8R19888   2.410   6.126   7.476  0.0588 -0.2800  0.9411
  175SAPI   C2919889   2.224   6.165   7.575 -0.4052 -0.0431 -0.1695
  175SAPI   H9R19890   2.261   6.128   7.672 -0.9366 -0.1889 -0.0228
  175SAPI  C21019891   2.087   6.228   7.582  0.0577  0.2472 -0.2053
  175SAPI  H10R19892   2.019   6.165   7.643  0.0026 -1.2582 -1.7387
  175SAPI  H10S19893   2.038   6.232   7.482  1.2437 -0.0693 -0.8202
  175SAPI  C21119894   2.108   6.363   7.657 -0.3951 -0.0426  0.2745
  175SAPI  H11R19895   2.160   6.443   7.603  1.1042 -1.1742 -0.0162
  175SAPI  C21219896   2.065   6.394   7.783 -0.4124  0.3320 -0.3969
  175SAPI  H12R19897   2.063   6.501   7.811 -4.7270  0.1317  0.7978
  175SAPI  C21319898   1.989   6.307   7.883  0.1514  0.1709  0.5297
  175SAPI  H13R19899   2.060   6.273   7.961  2.0203 -1.2164 -1.6590
  175SAPI  H13S19900   1.944   6.218   7.834 -0.3228  0.6039  0.1518
  175SAPI  C21419901   1.877   6.386   7.939  0.3736 -0.5865  0.2608
  175SAPI  H14R19902   1.795   6.374   7.866  0.4574 -0.6151  0.1703
  175SAPI  C21519903   1.856   6.445   8.057 -0.1337  0.0971 -0.5503
  175SAPI  H15R19904   1.764   6.505   8.063  1.7151  3.2098 -0.7817
  175SAPI  C21619905   1.952   6.451   8.177  0.3893  0.2123 -0.5152
  175SAPI  H16R19906   1.981   6.556   8.195 -1.0305  0.5801 -0.2138
  175SAPI  H16S19907   2.042   6.389   8.157 -0.4935 -1.1770 -0.3660
  175SAPI  C21719908   1.892   6.401   8.318  0.4638 -0.1189 -0.1201
  175SAPI  H17R19909   1.849   6.304   8.286  1.3132 -0.3881 -0.4797
  175SAPI  H17S19910   1.810   6.466   8.355 -0.3528 -1.3890  0.3812
  175SAPI  C21819911   2.003   6.382   8.421  0.2679  0.4573  0.1209
  175SAPI  H18R19912   2.086   6.449   8.389  0.4538  0.5328  0.7399
  175SAPI  H18S19913   2.039   6.277   8.416 -3.2624 -0.8876  0.3668
  175SAPI  C21919914   1.967   6.410   8.567 -0.4207 -0.3005 -0.2031
  175SAPI  H19R19915   1.890   6.334   8.591  3.1593 -4.0734  0.4991
  175SAPI  H19S19916   1.931   6.513   8.587 -1.0759 -0.7603  1.1289
  175SAPI  C22019917   2.088   6.392   8.658 -1.1088  0.4158 -0.0595
  175SAPI  H20R19918   2.061   6.388   8.766  2.5551 -1.5658  0.9722
  175SAPI  H20S19919   2.155   6.480   8.653  0.9755 -1.0991 -0.2519
  175SAPI  H20T19920   2.139   6.297   8.632 -1.1486  0.1974  0.6248
  175SAPI   C3319921   1.691   6.055   7.204 -0.2533 -0.2838  0.0763
  175SAPI   H3X19922   1.595   6.100   7.172 -0.1756 -0.5039 -0.4619
  175SAPI   H3Y19923   1.711   6.085   7.310  0.4114 -0.9764  0.1565
  175SAPI   C3419924   1.676   5.904   7.194  0.5875  0.6889 -0.1473
  175SAPI   H4X19925   1.635   5.869   7.096 -0.7198 -1.4388  1.0648
  175SAPI   H4Y19926   1.611   5.863   7.274 -0.9245  0.8797 -1.2362
  175SAPI   C3519927   1.811   5.819   7.212 -0.5256 -0.2284  0.3010
  175SAPI   H5X19928   1.876   5.860   7.131  0.0308 -0.3060  0.7002
  175SAPI   H5Y19929   1.792   5.711   7.195 -1.5604  0.0125 -0.1188
  175SAPI   C3619930   1.892   5.847   7.339  0.1913  0.0624  0.1580
  175SAPI   H6X19931   1.824   5.829   7.425  0.6443 -0.4440  0.4120
  175SAPI   H6Y19932   1.906   5.955   7.362  0.7241 -0.4972  2.6993
  175SAPI   C3719933   2.025   5.775   7.348  0.5908 -0.3555 -0.2002
  175SAPI   H7X19934   2.074   5.790   7.249 -1.5503  2.3575 -0.9825
  175SAPI   H7Y19935   2.003   5.666   7.351  0.5987 -0.3467  0.1580
  175SAPI   C3819936   2.111   5.807   7.466 -0.0681  0.1975 -0.0197
  175SAPI   H8X19937   2.057   5.780   7.560  2.0189 -1.2650  0.8522
  175SAPI   H8Y19938   2.140   5.914   7.467 -0.3434  0.2743 -0.3816
  175SAPI   C3919939   2.239   5.714   7.455  0.5876 -0.5067  0.6228
  175SAPI   H9X19940   2.320   5.758   7.393 -0.7075 -1.8816 -2.1956
  175SAPI   H9Y19941   2.218   5.616   7.409  0.5284 -1.5898  2.8224
  175SAPI  C31019942   2.297   5.690   7.594  0.3724  0.9323  1.0461
  175SAPI  H10X19943   2.384   5.623   7.581  1.1097  1.8148  1.3920
  175SAPI  H10Y19944   2.227   5.615   7.638  0.9419  0.1816  0.6985
  175SAPI  C31119945   2.332   5.808   7.687  0.1589  0.0388  0.5835
  175SAPI  H11X19946   2.240   5.867   7.706 -0.1626  0.5351 -2.0600
  175SAPI  H11Y19947   2.397   5.872   7.623  0.6477 -0.4264  0.6039
  175SAPI  C31219948   2.390   5.754   7.821  0.0183 -0.4252 -0.1525
  175SAPI  H12X19949   2.473   5.684   7.800  2.5205  1.9448  1.2087
  175SAPI  H12Y19950   2.306   5.698   7.868  0.4477 -0.9165  0.0372
  175SAPI  C31319951   2.464   5.858   7.906 -0.5004 -0.1699 -0.4737
  175SAPI  H13X19952   2.394   5.944   7.914 -0.1742  0.2990 -2.2685
  175SAPI  H13Y19953   2.552   5.901   7.855 -0.7643 -2.2320 -2.8679
  175SAPI  C31419954   2.488   5.803   8.057  0.5241  0.2004  0.8916
  175SAPI  H14X19955   2.532   5.701   8.047 -3.8709 -2.1989  3.1874
  175SAPI  H14Y19956   2.387   5.786   8.099 -1.7387  2.4763 -3.0274
  175SAPI  C31519957   2.566   5.892   8.138  0.2490  0.1028  0.2386
  175SAPI  H15X19958   2.658   5.934   8.091 -1.0499  1.5606 -1.1345
  175SAPI  H15Y19959   2.606   5.836   8.225 -1.1578  0.2145  0.9785
  175SAPI  C31619960   2.492   6.023   8.194 -0.3268  0.0419  0.4924
  175SAPI  H16X19961   2.404   6.054   8.134 -0.3204  1.0028  0.9639
  175SAPI  H16Y19962   2.562   6.107   8.177 -1.0757  0.7523  0.8459
  175SAPI  C31719963   2.428   6.007   8.337 -0.1125  0.5695 -0.7176
  175SAPI  H17X19964   2.364   6.096   8.353  0.0663  0.9053 -1.7563
  175SAPI  H17Y19965   2.504   6.005   8.418 -1.4625 -0.9286  0.5886
  175SAPI  C31819966   2.351   5.877   8.367 -0.3400 -0.7234  0.4952
  175SAPI  H18X19967   2.296   5.892   8.462 -0.8736  0.5257  0.0200
  175SAPI  H18Y19968   2.414   5.786   8.376 -0.1100 -0.8216 -1.5022
  175SAPI  H18Z19969   2.272   5.850   8.293  0.8098 -0.4201 -0.8843
  176SAPI   C1219970   0.979   5.420   6.183 -0.5351  0.5512  0.6239
  176SAPI    H219971   0.966   5.531   6.180 -2.2121  0.3642 -0.8453
  176SAPI    O219972   0.860   5.370   6.113 -0.5254  0.1897  0.1215
  176SAPI   HO219973   0.805   5.321   6.174 -1.2474 -0.5343 -1.0809
  176SAPI   C1319974   1.104   5.384   6.106 -0.0533 -0.0011 -0.1413
  176SAPI    H319975   1.178   5.429   6.175 -2.0069 -0.0370  2.0866
  176SAPI    O319976   1.110   5.443   5.977  0.2252 -0.0489 -0.6161
  176SAPI   HO319977   1.050   5.397   5.918 -1.0565 -0.7707  1.1423
  176SAPI   C1419978   1.124   5.235   6.102  0.2921  0.3850  0.2851
  176SAPI    H419979   1.043   5.188   6.041  0.3783  2.3743 -1.4998
  176SAPI    O419980   1.240   5.200   6.025 -0.3271 -0.3530  0.2177
  176SAPI   HO419981   1.222   5.177   5.933  0.1257  1.6882 -0.4198
  176SAPI   C1519982   1.122   5.169   6.239 -0.0991  0.5175 -0.7564
  176SAPI    H519983   1.213   5.213   6.286 -1.6753  2.6715  0.4951
  176SAPI    O519984   1.142   5.029   6.233  0.3190  0.3403 -0.1943
  176SAPI   HO519985   1.171   5.007   6.322 -1.2825  1.0083  0.5249
  176SAPI   C1619986   0.996   5.202   6.311  0.1708 -0.1586 -0.0326
  176SAPI    H619987   0.908   5.160   6.258  0.3702  0.8407 -1.1855
  176SAPI    O619988   1.002   5.157   6.448 -0.0867 -0.0709  0.3707
  176SAPI   HO619989   0.954   5.074   6.445  0.1418 -0.1848 -1.7146
  176SAPI   C1119990   0.980   5.355   6.326  0.4492 -0.1332  0.8867
  176SAPI    H119991   1.071   5.389   6.380  0.4579  1.0521  0.1535
  176SAPI     P19992   0.856   5.537   6.481  0.6517  0.2935 -0.0961
  176SAPI   O1319993   0.753   5.622   6.421 -0.1337  0.0979 -0.3939
  176SAPI   O1419994   0.986   5.603   6.471  0.2870 -0.2380 -0.1468
  176SAPI   O1219995   0.857   5.394   6.393  0.6108 -0.3960  0.1882
  176SAPI   O1119996   0.813   5.480   6.627 -0.4465  0.3082 -0.1023
  176SAPI    C119997   0.676   5.500   6.662  0.1107 -0.2075  0.6369
  176SAPI    HA19998   0.641   5.602   6.637 -3.9303 -1.1144  1.8484
  176SAPI    HB19999   0.613   5.433   6.600 -0.9445  1.9580 -0.7448
  176SAPI    C220000   0.645   5.507   6.815  0.7741 -0.2278  0.0091
  176SAPI    HS20001   0.546   5.558   6.817  0.2500 -1.1447 -1.0431
  176SAPI   O2120002   0.743   5.570   6.889  0.8967  0.7092 -0.0858
  176SAPI   C2120003   0.721   5.692   6.923 -0.3048  0.1805 -0.1029
  176SAPI   O2220004   0.613   5.746   6.915  0.1014  0.2481 -0.0452
  176SAPI   C2220005   0.846   5.759   6.983  0.2433 -0.2166 -0.7967
  176SAPI   H2R20006   0.885   5.690   7.060  2.9684  0.2728 -1.6114
  176SAPI   H2S20007   0.920   5.775   6.901  0.1417 -1.4688 -1.1517
  176SAPI    C320008   0.627   5.369   6.881  0.2050  0.4613  0.3627
  176SAPI    HX20009   0.721   5.311   6.885 -0.6677 -0.9592  1.2707
  176SAPI    HY20010   0.555   5.304   6.826  2.0414 -1.0475 -0.3861
  176SAPI   O3120011   0.584   5.390   7.020 -0.1207  0.5464  0.2914
  176SAPI   C3120012   0.467   5.360   7.060  0.1452  0.1093 -0.2487
  176SAPI   O3220013   0.375   5.326   6.989  0.0953  0.3934  0.1218
  176SAPI   C3220014   0.453   5.392   7.205 -0.2274  0.2440  0.1407
  176SAPI   H2X20015   0.464   5.501   7.220  1.6612  0.3455 -1.5612
  176SAPI   H2Y20016   0.529   5.333   7.261  0.0566  0.4527 -0.0226
  176SAPI   C2320017   0.813   5.897   7.041  0.1319  0.3005 -0.0743
  176SAPI   H3R20018   0.729   5.943   6.987  0.1678  0.1865 -0.2283
  176SAPI   H3S20019   0.892   5.968   7.009 -2.1381  3.2717  0.5328
  176SAPI   C2420020   0.813   5.892   7.199  0.4000 -1.0091  0.1210
  176SAPI   H4R20021   0.838   5.994   7.233  0.2605 -1.5224  1.8261
  176SAPI   H4S20022   0.905   5.837   7.227  0.6982  0.7837  3.1199
  176SAPI   C2520023   0.690   5.828   7.258 -0.1971  0.1645 -0.1818
  176SAPI   H5R20024   0.625   5.779   7.184  0.6767  0.2021 -0.9908
  176SAPI   C2620025   0.650   5.847   7.384  0.1106  0.1152  0.0369
  176SAPI   H6R20026   0.561   5.795   7.423 -0.0312 -0.3580 -0.8756
  176SAPI   C2720027   0.735   5.937   7.475 -0.2334 -0.0523 -0.2890
  176SAPI   H7R20028   0.742   6.041   7.438 -0.7469 -0.0580 -0.4144
  176SAPI   H7S20029   0.840   5.902   7.475 -0.0693  0.4336 -0.0745
  176SAPI   C2820030   0.679   5.945   7.616 -0.2735  0.2511  0.0274
  176SAPI   H8R20031   0.575   5.979   7.606 -0.4757  0.3770  2.1360
  176SAPI   C2920032   0.737   5.930   7.736  0.3166  0.6291 -0.0566
  176SAPI   H9R20033   0.667   5.944   7.820 -1.3770 -1.2506 -1.0621
  176SAPI  C21020034   0.873   5.888   7.758 -0.6444  0.1283  0.0368
  176SAPI  H10R20035   0.907   5.816   7.681 -0.2033 -0.5977  0.8935
  176SAPI  H10S20036   0.873   5.834   7.855 -1.6268  0.4011  0.1998
  176SAPI  C21120037   0.966   6.006   7.770  0.6078 -0.0704  0.1861
  176SAPI  H11R20038   0.951   6.090   7.701 -0.9269 -0.8299 -0.4527
  176SAPI  C21220039   1.065   6.010   7.857 -0.3745 -0.5028  0.2918
  176SAPI  H12R20040   1.127   6.100   7.866  0.4139 -0.9229 -0.6930
  176SAPI  C21320041   1.125   5.902   7.945 -0.0877 -0.4632 -0.4151
  176SAPI  H13R20042   1.185   5.832   7.884  0.7156 -0.3747  0.2532
  176SAPI  H13S20043   1.039   5.838   7.977 -0.6417 -0.4487 -1.8114
  176SAPI  C21420044   1.206   5.956   8.059 -0.3218  0.0837 -0.1097
  176SAPI  H14R20045   1.151   6.013   8.135  0.4485 -0.8767  1.2298
  176SAPI  C21520046   1.337   5.942   8.089 -0.4489  0.2508  0.7378
  176SAPI  H15R20047   1.368   6.002   8.176 -1.7103  1.5818  0.3139
  176SAPI  C21620048   1.459   5.877   8.014 -0.5324  0.4688 -0.1082
  176SAPI  H16R20049   1.544   5.948   8.014  0.1980 -0.3467 -2.0501
  176SAPI  H16S20050   1.434   5.852   7.909 -0.6516 -2.9167  0.6325
  176SAPI  C21720051   1.487   5.743   8.078  0.2809 -0.2131 -0.6747
  176SAPI  H17R20052   1.553   5.680   8.014  2.3658 -0.1780  1.3083
  176SAPI  H17S20053   1.392   5.686   8.087  0.9687 -1.2331  0.2668
  176SAPI  C21820054   1.551   5.765   8.220 -0.4557 -0.3908  0.7732
  176SAPI  H18R20055   1.468   5.776   8.293 -1.8402 -0.0258 -0.7686
  176SAPI  H18S20056   1.598   5.865   8.221 -0.5810 -0.3067 -0.3236
  176SAPI  C21920057   1.625   5.646   8.269  0.1540  0.6079  0.0879
  176SAPI  H19R20058   1.564   5.553   8.271  0.5565  0.3462  1.0049
  176SAPI  H19S20059   1.653   5.672   8.374  3.0088  0.9007 -0.6686
  176SAPI  C22020060   1.748   5.616   8.190  0.8167 -0.3798 -0.2155
  176SAPI  H20R20061   1.798   5.716   8.191 -0.9458  0.5513 -0.4497
  176SAPI  H20S20062   1.737   5.580   8.086 -0.1583 -1.4364  0.2342
  176SAPI  H20T20063   1.808   5.538   8.241  2.0050 -0.1888 -1.2818
  176SAPI   C3320064   0.316   5.364   7.263 -0.5071  0.2301 -0.3396
  176SAPI   H3X20065   0.279   5.261   7.243 -0.2236 -0.7337  3.3784
  176SAPI   H3Y20066   0.240   5.441   7.237  1.3533  1.6920 -1.7613
  176SAPI   C3420067   0.329   5.367   7.417  0.1228  0.3713  0.1224
  176SAPI   H4X20068   0.423   5.314   7.443 -0.7205 -1.1208  0.2348
  176SAPI   H4Y20069   0.250   5.310   7.470  0.7889 -0.2108  0.5115
  176SAPI   C3520070   0.336   5.505   7.479 -0.2846 -0.8442 -0.0653
  176SAPI   H5X20071   0.230   5.540   7.482  0.7046  2.4583  1.4291
  176SAPI   H5Y20072   0.383   5.586   7.418 -0.6381 -0.1599  0.5506
  176SAPI   C3620073   0.395   5.508   7.616 -0.0359  0.3692 -0.0533
  176SAPI   H6X20074   0.412   5.615   7.637 -0.3912  0.3475  0.3789
  176SAPI   H6Y20075   0.494   5.457   7.607 -1.0233 -1.2019 -4.9528
  176SAPI   C3720076   0.296   5.445   7.723 -0.4924 -0.7430  0.8082
  176SAPI   H7X20077   0.304   5.334   7.719  1.8378 -0.5781 -1.4798
  176SAPI   H7Y20078   0.189   5.469   7.703 -0.4720  0.0715  1.6216
  176SAPI   C3820079   0.316   5.498   7.864 -0.0379  0.9919  0.0122
  176SAPI   H8X20080   0.292   5.606   7.859  1.1260  1.2088 -2.2418
  176SAPI   H8Y20081   0.423   5.483   7.891 -0.0977  0.0064 -0.2510
  176SAPI   C3920082   0.225   5.434   7.969  0.1625 -0.2847 -0.6559
  176SAPI   H9X20083   0.242   5.324   7.965  1.2707 -0.1282 -0.7875
  176SAPI   H9Y20084   0.121   5.444   7.933 -0.1365  2.1222  0.6804
  176SAPI  C31020085   0.235   5.506   8.104  0.0353 -0.2364  0.7709
  176SAPI  H10X20086   0.204   5.613   8.097 -0.7096 -0.5001 -0.0631
  176SAPI  H10Y20087   0.341   5.496   8.134  1.2470  1.1826 -2.6016
  176SAPI  C31120088   0.130   5.456   8.207  0.0010 -0.3743 -0.0790
  176SAPI  H11X20089   0.169   5.376   8.273 -3.3755 -1.3453  0.9363
  176SAPI  H11Y20090   0.045   5.410   8.152  0.8883 -0.7309 -1.1950
  176SAPI  C31220091   0.071   5.564   8.292  0.6656  0.6185  0.2443
  176SAPI  H12X20092   0.007   5.520   8.372  0.7501  1.0509  0.5523
  176SAPI  H12Y20093   0.009   5.634   8.232  0.1234 -1.5538 -1.8749
  176SAPI  C31320094   0.177   5.649   8.363 -0.0978 -0.4827 -0.5979
  176SAPI  H13X20095   0.128   5.738   8.406  0.5858 -0.2598 -0.2611
  176SAPI  H13Y20096   0.245   5.699   8.290  0.0234  0.3553  0.0827
  176SAPI  C31420097   0.259   5.564   8.461  0.4421  0.0527  0.6362
  176SAPI  H14X20098   0.336   5.512   8.400  1.6360 -0.0125  2.1394
  176SAPI  H14Y20099   0.187   5.499   8.516  1.5470  0.7836  3.0744
  176SAPI  C31520100   0.340   5.634   8.567 -1.0632  0.2883  0.6948
  176SAPI  H15X20101   0.405   5.705   8.511 -0.7774 -0.5102 -0.0226
  176SAPI  H15Y20102   0.409   5.561   8.614 -0.4824  0.3744 -0.0020
  176SAPI  C31620103   0.263   5.697   8.681 -0.4182  0.5569  0.3252
  176SAPI  H16X20104   0.177   5.634   8.712 -1.5192  1.7230 -0.2400
  176SAPI  H16Y20105   0.222   5.790   8.635 -0.6689 -0.7253 -2.1989
  176SAPI  C31720106   0.347   5.745   8.808  0.9602  0.5633 -0.1024
  176SAPI  H17X20107   0.289   5.824   8.860 -0.6103 -1.3665  1.2955
  176SAPI  H17Y20108   0.444   5.771   8.761  0.2164  0.6267 -1.6714
  176SAPI  C31820109   0.352   5.635   8.916  0.2209 -0.3279  0.1588
  176SAPI  H18X20110   0.424   5.666   8.994  0.8901  2.2081 -1.3665
  176SAPI  H18Y20111   0.380   5.539   8.868  1.7950  0.9820 -1.7267
  176SAPI  H18Z20112   0.253   5.613   8.963  0.2816  2.9162  2.1170
  177SLPC     N20113   0.167   0.489  11.011  0.7526 -0.0769  0.3256
  177SLPC   C1320114   0.207   0.392  11.122 -0.6869 -0.0406  0.1598
  177SLPC  H13A20115   0.130   0.371  11.195  0.7302 -1.7999  1.2497
  177SLPC  H13B20116   0.239   0.297  11.081  1.6391  0.7146  0.0452
  177SLPC  H13C20117   0.286   0.442  11.176 -1.5574  0.4504  1.0089
  177SLPC   C1420118   0.050   0.430  10.936 -0.1032  0.3855 -0.6903
  177SLPC  H14A20119   0.025   0.492  10.851 -0.9438  0.0614 -0.6950
  177SLPC  H14B20120   0.086   0.335  10.899 -3.5692 -1.0239 -0.8856
  177SLPC  H14C20121  -0.038   0.424  10.999  0.2841 -0.3960 -0.2094
  177SLPC   C1520122   0.273   0.505  10.911  0.1379  0.0435 -0.5951
  177SLPC  H15A20123   0.229   0.556  10.826 -1.3634 -1.2373 -0.6263
  177SLPC  H15B20124   0.356   0.568  10.939 -0.1411  0.0957  0.1216
  177SLPC  H15C20125   0.309   0.410  10.873  0.3702  0.5505 -1.6738
  177SLPC   C1220126   0.127   0.618  11.087 -0.3580  0.2390 -0.1624
  177SLPC  H12A20127   0.216   0.667  11.125  1.2309 -3.0759  0.7445
  177SLPC  H12B20128   0.070   0.581  11.171 -1.7327 -0.5720 -1.4127
  177SLPC   C1120129   0.035   0.712  11.006  0.5848 -0.0911 -0.4456
  177SLPC  H11A20130  -0.057   0.662  10.970  0.1973 -0.2489  0.7125
  177SLPC  H11B20131   0.086   0.750  10.915 -0.9807 -1.1162 -1.7800
  177SLPC     P20132   0.033   0.968  11.074  0.0936 -0.2535 -0.3167
  177SLPC   O1320133  -0.076   1.044  11.135  0.0995  0.2195  0.6041
  177SLPC   O1420134   0.171   0.986  11.125  0.4486 -0.0784  0.3730
  177SLPC   O1220135  -0.008   0.814  11.090  0.3522 -0.3521  0.0461
  177SLPC   O1120136   0.021   0.993  10.924  0.4396 -0.2813  0.6635
  177SLPC    C120137  -0.105   0.990  10.859 -0.6591  0.3651  0.4565
  177SLPC    HA20138  -0.169   0.900  10.873  0.2607 -0.5152 -0.7070
  177SLPC    HB20139  -0.157   1.086  10.880  0.9878  0.8946  2.4109
  177SLPC    C220140  -0.081   0.996  10.705 -0.2798  0.2800  0.2991
  177SLPC    HS20141  -0.174   0.989  10.645  1.6127 -2.1394 -2.6259
  177SLPC   O2120142   0.016   0.887  10.668  0.2259  0.5376 -0.2639
  177SLPC   C2120143  -0.039   0.775  10.617 -0.2811 -0.1819  0.5476
  177SLPC   O2220144  -0.159   0.761  10.590 -0.0516 -0.0776  0.1081
  177SLPC   C2220145   0.077   0.677  10.608  0.6078  1.1921  0.2839
  177SLPC   H2R20146   0.175   0.709  10.649  1.6194 -1.4174  0.1210
  177SLPC   H2S20147   0.049   0.583  10.660  0.8269  0.3001 -1.1540
  177SLPC    C320148  -0.011   1.130  10.666 -0.3028 -0.6976 -0.4542
  177SLPC    HX20149   0.079   1.129  10.731  0.2302 -2.5875 -1.1457
  177SLPC    HY20150  -0.068   1.214  10.710  1.4177 -0.3727  1.2445
  177SLPC   O3120151   0.011   1.152  10.524  0.0197 -0.4814  0.0654
  177SLPC   C3120152   0.131   1.105  10.475 -0.2744  0.1162 -0.0311
  177SLPC   O3220153   0.219   1.064  10.551 -0.4423  0.0399 -0.6478
  177SLPC   C3220154   0.143   1.124  10.322  0.5411  0.0632 -0.4821
  177SLPC   H2X20155   0.100   1.224  10.300  0.0239  0.2692  1.3308
  177SLPC   H2Y20156   0.072   1.049  10.279  0.0503  0.6944 -0.7859
  177SLPC   C2320157   0.105   0.638  10.460  0.5833 -1.1338  0.0543
  177SLPC   H3R20158   0.009   0.595  10.424  1.1071 -0.2754 -2.5839
  177SLPC   H3S20159   0.182   0.558  10.457  0.9008 -0.8216 -0.1907
  177SLPC   C2420160   0.139   0.746  10.360  0.2802 -0.3921  0.8382
  177SLPC   H4R20161   0.209   0.815  10.411 -1.1702  1.5499  0.3462
  177SLPC   H4S20162   0.044   0.803  10.351 -0.5830 -1.4990  2.4553
  177SLPC   C2520163   0.187   0.682  10.223 -0.2140  0.1319 -0.4808
  177SLPC   H5R20164   0.091   0.660  10.171 -1.2730  1.4945  0.7863
  177SLPC   H5S20165   0.233   0.585  10.250 -1.5504 -1.1025 -2.3813
  177SLPC   C2620166   0.284   0.769  10.142 -0.2932 -0.3183  0.7928
  177SLPC   H6R20167   0.371   0.796  10.206 -0.9592 -1.4189  2.2168
  177SLPC   H6S20168   0.224   0.850  10.095 -0.4889 -0.8756  0.0542
  177SLPC   C2720169   0.349   0.683  10.024  0.6656 -0.0928 -0.4037
  177SLPC   H7R20170   0.286   0.592  10.011  0.3114 -0.0463  0.8158
  177SLPC   H7S20171   0.444   0.645  10.067  0.5031  1.1136  1.1058
  177SLPC   C2820172   0.369   0.759   9.894  0.4511  0.3943  0.1854
  177SLPC   H8R20173   0.404   0.856   9.934  0.2035  0.2533  0.7633
  177SLPC   H8S20174   0.269   0.782   9.851  1.3582  1.6040 -1.3661
  177SLPC   C2920175   0.466   0.703   9.795 -0.5411 -0.1424 -0.1037
  177SLPC   H9R20176   0.553   0.667   9.852  0.7394  0.9833 -1.2895
  177SLPC  C21020177   0.455   0.693   9.664 -0.2069  0.6261  0.1863
  177SLPC  H10R20178   0.538   0.667   9.598 -0.2127  0.1651  0.3499
  177SLPC  C21120179   0.340   0.752   9.581 -0.6844 -0.3831 -0.1928
  177SLPC  H11R20180   0.299   0.686   9.502  2.5247 -0.2244 -2.1183
  177SLPC  H11S20181   0.250   0.769   9.644  1.1411 -0.8124  2.7442
  177SLPC  C21220182   0.377   0.886   9.525 -0.4126  0.2646  0.9953
  177SLPC  H12R20183   0.349   0.973   9.586  1.7440  3.8267 -2.6473
  177SLPC  C21320184   0.426   0.906   9.400  0.0585 -0.0624  0.3550
  177SLPC  H13R20185   0.448   1.010   9.372  4.8825 -0.7278  0.8263
  177SLPC  C21420186   0.457   0.807   9.291  0.4717 -0.4073  0.3071
  177SLPC  H14R20187   0.416   0.704   9.304 -0.8293 -0.2171 -1.7578
  177SLPC  H14S20188   0.567   0.798   9.298  0.4294 -0.1439  1.5537
  177SLPC  C21520189   0.431   0.844   9.142 -0.1364  0.0772  0.3175
  177SLPC  H15R20190   0.452   0.753   9.081  1.5957  0.2940  0.5284
  177SLPC  H15S20191   0.513   0.916   9.117 -0.7836  0.4624 -0.7903
  177SLPC  C21620192   0.295   0.909   9.117  0.4618  0.2131 -0.0940
  177SLPC  H16R20193   0.283   0.997   9.184  1.2215 -0.5549  1.0749
  177SLPC  H16S20194   0.215   0.836   9.142  0.3009  0.7385  1.0074
  177SLPC  C21720195   0.265   0.966   8.975 -0.1981  0.9290 -0.2085
  177SLPC  H17R20196   0.165   1.013   8.979 -0.6343  0.2602 -2.1583
  177SLPC  H17S20197   0.267   0.880   8.904 -3.0704  1.1071 -0.6043
  177SLPC  C21820198   0.368   1.066   8.918 -0.5759  0.2675  0.8891
  177SLPC  H18R20199   0.446   1.010   8.862 -1.1971 -2.0126  2.1919
  177SLPC  H18S20200   0.408   1.137   8.994  1.5868 -0.0108  0.0815
  177SLPC  H18T20201   0.316   1.125   8.839  1.8536  2.4303  0.7496
  177SLPC   C3320202   0.279   1.110  10.253  0.1823  0.3773  0.2408
  177SLPC   H3X20203   0.325   1.010  10.266  0.3222  0.5358  1.0415
  177SLPC   H3Y20204   0.348   1.186  10.296  0.2289 -1.0525  2.9200
  177SLPC   C3420205   0.264   1.136  10.105 -0.2489 -0.4537  1.1170
  177SLPC   H4X20206   0.215   1.234  10.088 -0.5645 -1.0805 -2.3430
  177SLPC   H4Y20207   0.197   1.059  10.060 -1.7507  1.3302  0.1827
  177SLPC   C3520208   0.407   1.123  10.043 -0.4375 -0.1653  0.2907
  177SLPC   H5X20209   0.450   1.022  10.058  1.3394  0.0050 -2.9070
  177SLPC   H5Y20210   0.471   1.204  10.085 -1.4965  1.2875 -0.7900
  177SLPC   C3620211   0.396   1.149   9.892 -0.4588  0.4001 -0.1714
  177SLPC   H6X20212   0.334   1.069   9.847  1.0558 -0.4848 -0.7484
  177SLPC   H6Y20213   0.498   1.144   9.849 -0.4502  2.0952 -0.4147
  177SLPC   C3720214   0.349   1.290   9.852 -0.0632  1.1105 -0.6943
  177SLPC   H7X20215   0.419   1.362   9.898  1.6155  0.5756 -2.2865
  177SLPC   H7Y20216   0.242   1.294   9.881  0.3811 -2.9114  2.4288
  177SLPC   C3820217   0.359   1.315   9.694 -0.0809 -0.2429 -0.0349
  177SLPC   H8X20218   0.343   1.425   9.687  0.0121 -0.1761  0.6988
  177SLPC   H8Y20219   0.272   1.262   9.650  0.3352 -0.1203 -1.0299
  177SLPC   C3920220   0.497   1.273   9.639  0.0463 -1.0779  0.5725
  177SLPC   H9X20221   0.511   1.163   9.628 -0.9255 -0.9876 -2.7085
  177SLPC   H9Y20222   0.574   1.324   9.701 -1.1661  0.9911  0.4561
  177SLPC  C31020223   0.504   1.348   9.503 -0.0103  0.1693 -0.3278
  177SLPC  H10X20224   0.522   1.454   9.531  0.2202  0.3014 -0.9734
  177SLPC  H10Y20225   0.402   1.344   9.460  0.1337  1.4441 -0.8228
  177SLPC  C31120226   0.603   1.314   9.392  0.2341  0.4454 -0.3025
  177SLPC  H11X20227   0.557   1.233   9.331 -0.9051  0.8302  0.0213
  177SLPC  H11Y20228   0.694   1.272   9.440 -0.6761  0.4229  1.4724
  177SLPC  C31220229   0.626   1.433   9.303  0.0961  0.0720  0.5697
  177SLPC  H12X20230   0.620   1.521   9.370  1.0841 -0.8826  1.9658
  177SLPC  H12Y20231   0.543   1.446   9.230 -1.1081  0.8919  2.0332
  177SLPC  C31320232   0.770   1.438   9.233 -0.2605  0.2488 -0.2482
  177SLPC  H13X20233   0.781   1.356   9.160 -1.7886 -0.9267  0.7782
  177SLPC  H13Y20234   0.841   1.435   9.319 -1.3527 -2.4774  0.6463
  177SLPC  C31420235   0.807   1.570   9.159 -0.3313 -0.3724 -0.3383
  177SLPC  H14X20236   0.916   1.567   9.137 -0.0221  1.1387  0.8407
  177SLPC  H14Y20237   0.806   1.656   9.229  0.2318 -0.5465 -0.1172
  177SLPC  C31520238   0.733   1.606   9.037  0.3909 -0.2289  0.0466
  177SLPC  H15X20239   0.642   1.665   9.060  0.1639 -0.2205 -0.8149
  177SLPC  H15Y20240   0.705   1.518   8.975  0.3211 -0.1286 -0.0653
  177SLPC  C31620241   0.815   1.703   8.950  0.5196 -0.6462  0.1447
  177SLPC  H16X20242   0.767   1.707   8.850  0.2658  1.7850  0.3109
  177SLPC  H16Y20243   0.919   1.664   8.945  0.6551 -0.2898  0.1729
  177SLPC  C31720244   0.816   1.852   9.006  1.1278  0.3010  0.4409
  177SLPC  H17X20245   0.841   1.851   9.114  1.8859  0.1536  0.2647
  177SLPC  H17Y20246   0.714   1.895   8.994  0.5850 -0.6741  1.4289
  177SLPC  C31820247   0.922   1.940   8.943 -0.7305  0.1877  0.3798
  177SLPC  H18X20248   0.935   2.033   9.003  0.4387  0.8520 -0.8566
  177SLPC  H18Y20249   0.907   1.981   8.841  2.6066  2.5182  0.6515
  177SLPC  H18Z20250   1.021   1.889   8.934 -0.3905  0.6833  1.1207
  178SLPC     N20251   1.675   3.358  11.188  0.5779 -0.0501 -0.0290
  178SLPC   C1320252   1.655   3.233  11.265 -0.3217 -0.0165  0.3659
  178SLPC  H13A20253   1.556   3.193  11.281 -0.2162 -0.7674 -0.7325
  178SLPC  H13B20254   1.710   3.152  11.219  0.8155  0.5561  0.6973
  178SLPC  H13C20255   1.709   3.247  11.358 -0.7861 -1.2479  0.8514
  178SLPC   C1420256   1.817   3.392  11.182 -0.3948 -0.6812 -0.7857
  178SLPC  H14A20257   1.840   3.468  11.109 -1.1354 -0.1919 -0.5218
  178SLPC  H14B20258   1.854   3.430  11.275  0.7554 -1.2780 -0.9852
  178SLPC  H14C20259   1.870   3.304  11.150 -0.3847 -0.9667  0.0134
  178SLPC   C1520260   1.606   3.474  11.255 -1.0486 -0.1268 -0.1041
  178SLPC  H15A20261   1.628   3.474  11.361 -1.7425 -0.5311  0.0471
  178SLPC  H15B20262   1.620   3.568  11.204  1.4750 -0.3553  0.0417
  178SLPC  H15C20263   1.501   3.453  11.247 -0.5469 -2.5452 -1.7173
  178SLPC   C1220264   1.616   3.338  11.051  0.1776  0.5314  0.3087
  178SLPC  H12A20265   1.592   3.433  11.005  1.9216  1.3277  0.9360
  178SLPC  H12B20266   1.525   3.281  11.063 -0.3142  1.0311 -0.9436
  178SLPC   C1120267   1.701   3.255  10.942  0.3823 -0.1392 -0.9698
  178SLPC  H11A20268   1.780   3.320  10.897  2.6115 -1.9055  0.1576
  178SLPC  H11B20269   1.627   3.221  10.866 -0.5249 -3.4550  1.1553
  178SLPC     P20270   1.876   3.062  10.936 -0.0259  0.2584 -0.3628
  178SLPC   O1320271   2.003   3.126  10.970 -0.3120  0.0497 -0.0275
  178SLPC   O1420272   1.864   2.918  10.968  0.3681  0.4406 -0.7389
  178SLPC   O1220273   1.753   3.137  11.001 -0.1396  0.1133  0.2559
  178SLPC   O1120274   1.842   3.071  10.786 -0.2727 -0.5227  0.2333
  178SLPC    C120275   1.942   3.120  10.688  0.1627  0.4498 -0.6385
  178SLPC    HA20276   1.982   3.214  10.732  1.0702 -0.8151  1.4193
  178SLPC    HB20277   2.018   3.039  10.678 -0.9271 -0.5663 -0.9581
  178SLPC    C220278   1.881   3.164  10.558 -0.3409 -0.0620  0.3551
  178SLPC    HS20279   1.790   3.223  10.579 -0.3579 -0.2807  0.9116
  178SLPC   O2120280   1.861   3.053  10.473  0.6692 -0.1147  0.1519
  178SLPC   C2120281   1.757   3.064  10.392  0.8124  0.0124  0.6870
  178SLPC   O2220282   1.672   3.153  10.393 -0.1296  0.4642  0.3302
  178SLPC   C2220283   1.742   2.949  10.299  0.0343 -0.2930 -0.0933
  178SLPC   H2R20284   1.838   2.895  10.304  0.1250  0.0049  2.6940
  178SLPC   H2S20285   1.663   2.891  10.351  1.9553 -1.3470  1.7974
  178SLPC    C320286   1.990   3.260  10.483  0.0690  0.4938 -0.4769
  178SLPC    HX20287   2.087   3.208  10.466 -0.3801 -0.1607 -1.1579
  178SLPC    HY20288   2.001   3.342  10.556 -0.6542  0.1113  0.0712
  178SLPC   O3120289   1.951   3.306  10.355 -0.7558 -0.0475 -0.1091
  178SLPC   C3120290   1.851   3.395  10.348  0.5680 -0.2849 -0.0796
  178SLPC   O3220291   1.795   3.444  10.446 -0.1988  0.5221  0.8079
  178SLPC   C3220292   1.815   3.423  10.200  0.1906 -0.0470 -0.3388
  178SLPC   H2X20293   1.809   3.324  10.150 -0.8571 -1.0221  1.5799
  178SLPC   H2Y20294   1.897   3.488  10.163 -0.6345  0.1322 -1.9565
  178SLPC   C2320295   1.674   2.995  10.168  0.2006 -0.0107  0.9954
  178SLPC   H3R20296   1.597   3.074  10.185  0.0632  0.1326 -0.2534
  178SLPC   H3S20297   1.614   2.915  10.121  0.6741  0.8695 -1.2139
  178SLPC   C2420298   1.786   3.041  10.065  0.2177  0.8906 -0.3007
  178SLPC   H4R20299   1.848   2.956  10.031 -0.9998 -0.1489 -0.0023
  178SLPC   H4S20300   1.839   3.131  10.103  1.5232 -0.4828  1.2556
  178SLPC   C2520301   1.716   3.067   9.921  0.0817  0.1225 -0.2474
  178SLPC   H5R20302   1.787   3.137   9.871 -0.5830 -0.7535 -2.5422
  178SLPC   H5S20303   1.624   3.127   9.934  0.0268 -0.3535  1.9938
  178SLPC   C2620304   1.709   2.934   9.837  0.3540  0.4062 -0.2897
  178SLPC   H6R20305   1.621   2.874   9.868  0.1453 -0.5212 -2.5235
  178SLPC   H6S20306   1.797   2.868   9.850 -1.0876 -1.2311  2.1560
  178SLPC   C2720307   1.710   2.965   9.685  0.9117  0.1069  0.1339
  178SLPC   H7R20308   1.804   3.018   9.661  0.3256  0.7499 -0.8129
  178SLPC   H7S20309   1.628   3.037   9.667 -0.2426 -0.9755  0.8718
  178SLPC   C2820310   1.688   2.839   9.608 -0.9324  0.7311  0.2607
  178SLPC   H8R20311   1.596   2.788   9.644  0.1704 -0.4416  1.5563
  178SLPC   H8S20312   1.767   2.767   9.640 -2.1602 -1.3986 -1.2627
  178SLPC   C2920313   1.693   2.844   9.455  0.0360 -0.5924 -0.4582
  178SLPC   H9R20314   1.795   2.844   9.413  0.7666 -0.9680  1.2456
  178SLPC  C21020315   1.582   2.859   9.371 -0.4668 -0.6469  0.6451
  178SLPC  H10R20316   1.595   2.871   9.263 -0.4889 -0.2919  0.6825
  178SLPC  C21120317   1.439   2.862   9.427 -0.4210 -0.0957 -0.1476
  178SLPC  H11R20318   1.438   2.872   9.538 -2.1288 -0.6816 -0.0858
  178SLPC  H11S20319   1.386   2.766   9.413 -2.2490  0.5726  1.7439
  178SLPC  C21220320   1.356   2.972   9.364 -0.0370  0.2051  0.2099
  178SLPC  H12R20321   1.319   3.044   9.439 -0.5013  0.3725 -0.1719
  178SLPC  C21320322   1.312   2.976   9.235 -0.1597 -0.4595  0.0250
  178SLPC  H13R20323   1.261   3.065   9.197  2.0439 -0.0865 -2.3538
  178SLPC  C21420324   1.341   2.872   9.132  0.0875 -0.4055 -0.1615
  178SLPC  H14R20325   1.343   2.777   9.188 -1.3743 -0.2861  0.1240
  178SLPC  H14S20326   1.446   2.867   9.094  0.6283 -3.0722  1.4375
  178SLPC  C21520327   1.235   2.862   9.031 -0.3113  0.2405  0.6282
  178SLPC  H15R20328   1.229   2.957   8.973  1.3746 -0.4377 -0.7581
  178SLPC  H15S20329   1.134   2.845   9.075 -0.2957  0.1921  0.6448
  178SLPC  C21620330   1.254   2.759   8.915 -0.3718  0.0732 -0.3393
  178SLPC  H16R20331   1.278   2.663   8.965 -0.5921  1.5616  2.8468
  178SLPC  H16S20332   1.340   2.796   8.855 -0.1178  1.5795  0.8831
  178SLPC  C21720333   1.126   2.738   8.840  0.4553 -0.0773  0.0721
  178SLPC  H17R20334   1.073   2.829   8.806 -1.1465 -1.3939 -1.1254
  178SLPC  H17S20335   1.061   2.683   8.912 -0.6996  0.7967 -0.2665
  178SLPC  C21820336   1.150   2.642   8.718  0.6470 -0.4292 -0.6833
  178SLPC  H18R20337   1.056   2.613   8.666 -0.9989  1.4631  1.0857
  178SLPC  H18S20338   1.211   2.552   8.740  1.7001  0.1625 -1.0801
  178SLPC  H18T20339   1.200   2.697   8.636  2.1382 -0.6203  0.0699
  178SLPC   C3320340   1.677   3.489  10.182 -0.6012  0.5926  0.4197
  178SLPC   H3X20341   1.669   3.573  10.255  2.2637  1.7923 -0.5041
  178SLPC   H3Y20342   1.602   3.409  10.198 -0.9121  0.2624 -2.2961
  178SLPC   C3420343   1.661   3.535  10.038  0.0902  0.2206  0.1077
  178SLPC   H4X20344   1.730   3.621  10.022  0.5361 -0.2393 -0.4932
  178SLPC   H4Y20345   1.558   3.574  10.026 -0.8691 -2.3514 -0.7943
  178SLPC   C3520346   1.687   3.432   9.925  0.6334  0.9401 -0.4671
  178SLPC   H5X20347   1.636   3.337   9.953  0.2930  0.9308 -1.1188
  178SLPC   H5Y20348   1.796   3.409   9.922  0.1173 -1.9934  0.2303
  178SLPC   C3620349   1.615   3.470   9.794 -0.1321  0.5272  0.8677
  178SLPC   H6X20350   1.624   3.578   9.769  0.5773  0.0724 -1.0446
  178SLPC   H6Y20351   1.508   3.448   9.815  0.1968 -0.5489  1.4676
  178SLPC   C3720352   1.664   3.396   9.669  0.3767 -0.1589 -0.7648
  178SLPC   H7X20353   1.676   3.289   9.699  0.1863 -0.0381 -0.2519
  178SLPC   H7Y20354   1.765   3.436   9.646 -0.9175  2.9441 -1.4585
  178SLPC   C3820355   1.591   3.418   9.542  0.5384  0.0474 -0.1385
  178SLPC   H8X20356   1.598   3.525   9.512 -2.4631  0.3416 -0.1190
  178SLPC   H8Y20357   1.484   3.398   9.565  0.8919 -0.3992  1.1875
  178SLPC   C3920358   1.635   3.323   9.430 -0.5611 -0.5278  0.2696
  178SLPC   H9X20359   1.630   3.213   9.445 -1.7316 -0.8796 -2.2036
  178SLPC   H9Y20360   1.743   3.340   9.409  0.0263 -1.0655  2.5930
  178SLPC  C31020361   1.554   3.363   9.303 -0.3083  0.1216  0.0886
  178SLPC  H10X20362   1.579   3.467   9.272  0.2894  0.3102  1.1383
  178SLPC  H10Y20363   1.445   3.361   9.322 -0.6071  1.4765 -1.3476
  178SLPC  C31120364   1.574   3.264   9.193  1.3195 -0.3909  0.0993
  178SLPC  H11X20365   1.521   3.169   9.213 -0.7970  0.3473 -1.5442
  178SLPC  H11Y20366   1.678   3.228   9.185  1.3516 -0.7141  1.6257
  178SLPC  C31220367   1.523   3.309   9.049  0.3041 -0.5810  0.2300
  178SLPC  H12X20368   1.598   3.388   9.027  0.3344 -0.0466  2.0961
  178SLPC  H12Y20369   1.418   3.342   9.042  0.2820 -0.7128 -0.0675
  178SLPC  C31320370   1.524   3.187   8.953  0.4393  0.5952  0.4564
  178SLPC  H13X20371   1.489   3.220   8.854 -2.0196  1.8556  1.6698
  178SLPC  H13Y20372   1.452   3.109   8.986  1.3465  0.3054  1.8788
  178SLPC  C31420373   1.659   3.115   8.915 -0.1563  0.1552 -0.1702
  178SLPC  H14X20374   1.645   3.026   8.849  1.1045  0.4699 -0.8811
  178SLPC  H14Y20375   1.699   3.080   9.013  4.6340 -0.8109 -2.2025
  178SLPC  C31520376   1.753   3.207   8.842  0.8081  0.1153  0.8654
  178SLPC  H15X20377   1.746   3.307   8.889 -0.0598  1.6113 -2.2226
  178SLPC  H15Y20378   1.857   3.179   8.867  0.5755  0.8875  2.8885
  178SLPC  C31620379   1.731   3.221   8.693 -0.0478 -0.2659 -0.0345
  178SLPC  H16X20380   1.771   3.318   8.656 -1.1145  1.4060  2.8263
  178SLPC  H16Y20381   1.623   3.216   8.669  0.0961 -1.6651 -0.4479
  178SLPC  C31720382   1.774   3.096   8.609 -0.2809 -0.3757  0.3448
  178SLPC  H17X20383   1.731   3.004   8.654 -0.0207 -0.1986  0.9617
  178SLPC  H17Y20384   1.883   3.080   8.622 -0.0659  1.3320  0.9886
  178SLPC  C31820385   1.719   3.107   8.468  0.0356  0.0887  0.1252
  178SLPC  H18X20386   1.609   3.102   8.458  0.0731 -0.0032 -0.2667
  178SLPC  H18Y20387   1.767   3.027   8.407 -0.5706 -1.6905  1.9054
  178SLPC  H18Z20388   1.742   3.203   8.416 -0.5487  0.0589 -0.1949
  179SLPC     N20389   3.078   6.759  10.307  0.0475  0.1987 -0.1248
  179SLPC   C1320390   3.045   6.787  10.452  0.3346  0.5123  0.7138
  179SLPC  H13A20391   3.134   6.815  10.506  0.3584 -0.1384  1.0245
  179SLPC  H13B20392   2.982   6.872  10.472 -1.0796 -0.2087 -0.5107
  179SLPC  H13C20393   2.997   6.703  10.502  0.3392  1.1477  1.8233
  179SLPC   C1420394   3.194   6.672  10.309 -0.1161 -0.3543 -0.2637
  179SLPC  H14A20395   3.274   6.713  10.368  0.0691 -1.8486  0.5715
  179SLPC  H14B20396   3.175   6.575  10.353  0.5771 -0.1039  0.6097
  179SLPC  H14C20397   3.222   6.648  10.207 -2.4938 -2.5166 -0.5329
  179SLPC   C1520398   3.117   6.888  10.238  1.0821 -0.0667 -1.2877
  179SLPC  H15A20399   3.030   6.951  10.237  1.2082  0.1218 -0.8647
  179SLPC  H15B20400   3.205   6.938  10.276  1.7755 -0.4361 -2.3721
  179SLPC  H15C20401   3.134   6.873  10.133  2.0576 -1.7489 -0.9403
  179SLPC   C1220402   2.962   6.700  10.230  0.2524 -0.3821 -0.4878
  179SLPC  H12A20403   2.940   6.603  10.272  1.7005 -1.0868 -1.2705
  179SLPC  H12B20404   2.981   6.687  10.125 -2.6847  1.4101 -1.3618
  179SLPC   C1120405   2.831   6.784  10.230 -0.0833 -0.3736  0.1627
  179SLPC  H11A20406   2.860   6.874  10.173  0.3795 -1.1029 -0.7926
  179SLPC  H11B20407   2.807   6.811  10.335 -0.4597 -1.7436  0.4532
  179SLPC     P20408   2.641   6.595  10.199  0.0632 -0.2318  0.6359
  179SLPC   O1320409   2.708   6.478  10.132  0.0887  0.0438 -0.6935
  179SLPC   O1420410   2.622   6.576  10.347  0.3138 -0.0277  0.3508
  179SLPC   O1220411   2.723   6.724  10.166  0.0368 -0.5558 -0.3618
  179SLPC   O1120412   2.503   6.614  10.121 -0.0166 -0.0397 -0.3635
  179SLPC    C120413   2.513   6.677   9.988 -0.3935  0.6471 -0.6441
  179SLPC    HA20414   2.415   6.726   9.968 -0.2486  1.2301  0.0320
  179SLPC    HB20415   2.591   6.755   9.976  0.5758  0.0553  1.4519
  179SLPC    C220416   2.533   6.568   9.877 -0.1595 -0.2946  0.0717
  179SLPC    HS20417   2.636   6.528   9.888 -0.9996 -3.0265 -1.0759
  179SLPC   O2120418   2.508   6.624   9.744  0.1530  0.6568 -0.1675
  179SLPC   C2120419   2.622   6.668   9.692 -0.3426 -1.0338  0.3339
  179SLPC   O2220420   2.733   6.661   9.745 -0.5457  0.5482 -0.3671
  179SLPC   C2220421   2.589   6.729   9.547  0.5017  0.3767  1.0123
  179SLPC   H2R20422   2.514   6.660   9.504 -0.8611  0.6536  2.8268
  179SLPC   H2S20423   2.556   6.835   9.538 -1.7661 -0.4477 -2.6483
  179SLPC    C320424   2.439   6.450   9.900 -0.3434  0.3678  0.2565
  179SLPC    HX20425   2.334   6.477   9.921 -0.1024  0.4606  1.3715
  179SLPC    HY20426   2.476   6.403   9.993 -0.6027  0.3167  0.3337
  179SLPC   O3120427   2.441   6.362   9.789  0.6792  0.0897 -0.2955
  179SLPC   C3120428   2.548   6.280   9.773 -1.1520 -0.2432  0.0443
  179SLPC   O3220429   2.651   6.287   9.838 -0.5547  0.5629 -0.0003
  179SLPC   C3220430   2.529   6.191   9.653 -0.1415  0.9878 -0.0653
  179SLPC   H2X20431   2.468   6.103   9.683 -0.1772  1.9124  2.9191
  179SLPC   H2Y20432   2.629   6.148   9.633 -0.7503 -0.1928 -0.7141
  179SLPC   C2320433   2.712   6.723   9.446  0.8837 -0.6763 -0.2669
  179SLPC   H3R20434   2.764   6.625   9.449 -0.1704 -1.2257  0.6118
  179SLPC   H3S20435   2.787   6.797   9.479 -0.4224  0.0201  1.3065
  179SLPC   C2420436   2.678   6.747   9.297  0.3224  0.2584 -0.2942
  179SLPC   H4R20437   2.664   6.856   9.278  0.9689 -0.0328 -2.7233
  179SLPC   H4S20438   2.586   6.687   9.280  0.5158 -0.1373  0.0395
  179SLPC   C2520439   2.791   6.702   9.200 -0.0870  0.4388 -0.2567
  179SLPC   H5R20440   2.803   6.594   9.219  0.2933  0.6664  0.9110
  179SLPC   H5S20441   2.882   6.747   9.245  0.0154 -0.4392  0.4370
  179SLPC   C2620442   2.768   6.751   9.066  0.4376 -0.1296  1.0190
  179SLPC   H6R20443   2.752   6.860   9.051 -0.8904 -0.4556 -0.2740
  179SLPC   H6S20444   2.660   6.725   9.053  0.4720 -0.7595  1.9508
  179SLPC   C2720445   2.850   6.691   8.950 -0.1463 -0.1237  0.3068
  179SLPC   H7R20446   2.812   6.723   8.850  2.9206 -1.6720 -1.5131
  179SLPC   H7S20447   2.845   6.580   8.942  0.6080 -0.1608  0.2324
  179SLPC   C2820448   2.999   6.735   8.940  0.2584 -0.7129 -0.1106
  179SLPC   H8R20449   3.030   6.720   8.835  1.0111  0.5858 -0.1021
  179SLPC   H8S20450   3.059   6.660   8.995  1.9821  0.0775 -0.8626
  179SLPC   C2920451   3.034   6.881   8.983  0.1024  0.2037  0.7134
  179SLPC   H9R20452   3.069   6.883   9.087  0.4466  1.8561  0.5860
  179SLPC  C21020453   3.017   6.998   8.909 -0.2411  0.4002 -0.1719
  179SLPC  H10R20454   3.047   7.095   8.951  0.9898  0.8474 -1.9391
  179SLPC  C21120455   2.954   7.016   8.776 -0.6162  1.0142  0.3685
  179SLPC  H11R20456   2.857   7.067   8.795 -0.2988  1.4549  0.8431
  179SLPC  H11S20457   2.928   6.917   8.732 -3.7914  1.4840  0.9673
  179SLPC  C21220458   3.042   7.103   8.679 -0.0875 -0.2456 -0.0894
  179SLPC  H12R20459   3.149   7.116   8.703 -0.3288  0.0573  0.8766
  179SLPC  C21320460   2.997   7.152   8.562  0.4952  0.3113  0.2496
  179SLPC  H13R20461   3.067   7.208   8.497 -0.5493 -0.8540 -1.9686
  179SLPC  C21420462   2.856   7.144   8.508 -0.6048  0.0874  0.3137
  179SLPC  H14R20463   2.790   7.224   8.548 -2.1724 -0.9674 -0.0675
  179SLPC  H14S20464   2.808   7.046   8.528  2.5030 -1.6454 -0.0932
  179SLPC  C21520465   2.845   7.150   8.351  0.3643 -0.6931  0.5744
  179SLPC  H15R20466   2.867   7.057   8.294 -0.9936  0.0665 -1.2697
  179SLPC  H15S20467   2.916   7.228   8.317 -1.6170  0.1975 -1.7452
  179SLPC  C21620468   2.719   7.209   8.299  0.5105 -0.1771 -0.8648
  179SLPC  H16R20469   2.704   7.224   8.190 -1.6218 -1.8269 -0.8680
  179SLPC  H16S20470   2.710   7.309   8.348  1.5025 -0.9143  0.8947
  179SLPC  C21720471   2.607   7.117   8.353  0.2109  0.1138 -0.0042
  179SLPC  H17R20472   2.519   7.155   8.297  0.4786 -1.1110 -1.3031
  179SLPC  H17S20473   2.592   7.143   8.460  1.5078 -0.4880  0.3379
  179SLPC  C21820474   2.626   6.970   8.323  0.2199 -0.7221 -0.0115
  179SLPC  H18R20475   2.664   6.955   8.219  1.7105 -1.9429  0.6592
  179SLPC  H18S20476   2.528   6.919   8.338 -1.3946  2.0408 -0.5335
  179SLPC  H18T20477   2.704   6.933   8.393 -0.0313 -0.3943  0.4391
  179SLPC   C3320478   2.467   6.262   9.533 -0.2730 -0.2591 -0.0338
  179SLPC   H3X20479   2.499   6.369   9.533 -0.3279 -0.2422 -0.5137
  179SLPC   H3Y20480   2.357   6.273   9.525 -0.0265  2.1487 -1.2842
  179SLPC   C3420481   2.527   6.194   9.409  0.4487 -0.7826 -0.1652
  179SLPC   H4X20482   2.506   6.085   9.416 -0.9318 -0.4489  1.8354
  179SLPC   H4Y20483   2.638   6.199   9.413  0.4367 -1.0196  0.6132
  179SLPC   C3520484   2.466   6.246   9.278  0.4454  0.5461 -0.2132
  179SLPC   H5X20485   2.357   6.241   9.256  0.3983  0.9968 -0.0943
  179SLPC   H5Y20486   2.517   6.182   9.203  0.3478 -0.4117  0.5204
  179SLPC   C3620487   2.498   6.390   9.249 -0.4451 -0.2967 -0.2990
  179SLPC   H6X20488   2.609   6.396   9.254 -0.3710 -1.6238  0.1081
  179SLPC   H6Y20489   2.462   6.457   9.331  1.8804  1.9320 -0.9729
  179SLPC   C3720490   2.457   6.440   9.104 -0.1593 -0.6240  0.4588
  179SLPC   H7X20491   2.476   6.548   9.091  0.9919 -0.8772 -0.0939
  179SLPC   H7Y20492   2.347   6.438   9.095 -0.1801  0.4958  0.3288
  179SLPC   C3820493   2.532   6.370   8.992 -0.0136  0.6262 -0.6885
  179SLPC   H8X20494   2.519   6.260   8.983 -2.1520  0.5260  2.1955
  179SLPC   H8Y20495   2.640   6.380   9.015  0.1887 -2.4897  0.1718
  179SLPC   C3920496   2.503   6.430   8.848  0.2230  0.3407 -1.0946
  179SLPC   H9X20497   2.513   6.540   8.838  0.5154  0.7962  2.8226
  179SLPC   H9Y20498   2.397   6.401   8.832 -0.2918 -0.6535  2.9828
  179SLPC  C31020499   2.593   6.371   8.737 -0.2625  0.5714 -0.3952
  179SLPC  H10X20500   2.572   6.262   8.733  2.5163 -0.0319 -0.5336
  179SLPC  H10Y20501   2.701   6.383   8.760 -0.8546  1.0627  2.6095
  179SLPC  C31120502   2.560   6.433   8.602 -0.5758 -0.5073  0.3467
  179SLPC  H11X20503   2.578   6.540   8.626 -0.4873 -0.5469  0.4560
  179SLPC  H11Y20504   2.455   6.429   8.565 -0.1486  0.2345 -1.0316
  179SLPC  C31220505   2.648   6.377   8.495  0.3985 -0.1115 -0.0945
  179SLPC  H12X20506   2.616   6.271   8.487 -1.2987  0.1240  2.4744
  179SLPC  H12Y20507   2.753   6.381   8.531  1.0725  2.5011 -2.0190
  179SLPC  C31320508   2.658   6.441   8.355  0.1086  0.3279 -0.3269
  179SLPC  H13X20509   2.741   6.396   8.296 -0.2735  0.7437 -1.1944
  179SLPC  H13Y20510   2.690   6.547   8.360  2.0030 -0.2700  2.5372
  179SLPC  C31420511   2.534   6.429   8.274 -0.0710 -0.4780  0.5414
  179SLPC  H14X20512   2.455   6.494   8.319 -1.3538 -0.9535 -0.9450
  179SLPC  H14Y20513   2.499   6.324   8.279 -1.0496 -0.2486 -0.9056
  179SLPC  C31520514   2.543   6.475   8.125  0.3728 -0.0666  0.0882
  179SLPC  H15X20515   2.619   6.415   8.071 -1.7978 -2.5431 -0.4217
  179SLPC  H15Y20516   2.573   6.582   8.130 -2.0543  0.8883 -2.7592
  179SLPC  C31620517   2.410   6.455   8.052 -0.2428 -0.1542 -0.1653
  179SLPC  H16X20518   2.334   6.511   8.111  0.5263  1.8201 -0.9534
  179SLPC  H16Y20519   2.383   6.349   8.037 -1.7231  0.3248 -1.0929
  179SLPC  C31720520   2.401   6.504   7.908  0.8489  0.4896 -0.0669
  179SLPC  H17X20521   2.431   6.611   7.913 -0.0650  0.7722 -0.5216
  179SLPC  H17Y20522   2.298   6.497   7.868  0.2750  1.5842  1.1335
  179SLPC  C31820523   2.492   6.428   7.813 -0.3923 -0.5506 -0.2901
  179SLPC  H18X20524   2.471   6.460   7.709  3.3745  2.0210 -0.4588
  179SLPC  H18Y20525   2.501   6.319   7.834  2.9388 -0.6872 -1.8146
  179SLPC  H18Z20526   2.596   6.464   7.833 -0.9978  1.2311 -0.1894
  180SLPC     N20527   3.776   3.328  10.870  0.0531 -0.2561 -0.1384
  180SLPC   C1320528   3.684   3.293  10.755  0.0287  0.5607  0.2925
  180SLPC  H13A20529   3.739   3.215  10.705 -0.0354  0.2015  0.7786
  180SLPC  H13B20530   3.590   3.253  10.790 -0.1982 -0.7701 -1.6553
  180SLPC  H13C20531   3.666   3.370  10.681  0.5064 -0.8765 -1.3834
  180SLPC   C1420532   3.797   3.211  10.966 -0.5980 -0.9555  0.0002
  180SLPC  H14A20533   3.884   3.222  11.028 -0.8351 -0.7125  0.2936
  180SLPC  H14B20534   3.721   3.201  11.042  0.4103  1.5361  1.4330
  180SLPC  H14C20535   3.795   3.117  10.912 -1.4495 -1.5297  0.9782
  180SLPC   C1520536   3.709   3.433  10.952 -0.8074  0.0238  0.2871
  180SLPC  H15A20537   3.710   3.523  10.893 -0.6473 -0.8692 -1.1149
  180SLPC  H15B20538   3.604   3.415  10.968 -1.3510  2.7177  0.2137
  180SLPC  H15C20539   3.762   3.439  11.046 -2.5699 -3.2576  1.6648
  180SLPC   C1220540   3.911   3.376  10.823  0.2233 -0.1914 -0.3580
  180SLPC  H12A20541   3.976   3.385  10.908  0.6710  2.4711 -0.8835
  180SLPC  H12B20542   3.901   3.477  10.786  0.6638 -0.0252 -0.0368
  180SLPC   C1120543   3.995   3.286  10.732 -0.3354 -0.3393  0.1502
  180SLPC  H11A20544   4.093   3.331  10.706 -0.5242 -1.0406 -2.0202
  180SLPC  H11B20545   3.952   3.286  10.629 -0.1589  2.2552  0.0220
  180SLPC     P20546   3.981   3.028  10.695  0.4521  0.3046 -0.0815
  180SLPC   O1320547   4.055   2.910  10.740  0.0483 -0.5493 -0.1967
  180SLPC   O1420548   3.835   3.011  10.692  0.3630  0.5374  0.6232
  180SLPC   O1220549   4.019   3.153  10.787 -0.0685 -0.6555 -0.2171
  180SLPC   O1120550   4.035   3.063  10.554  0.3511  0.3433  0.2790
  180SLPC    C120551   4.174   3.098  10.527  0.1645  1.3063 -0.5708
  180SLPC    HA20552   4.167   3.205  10.499 -2.8208  1.1527 -0.7229
  180SLPC    HB20553   4.241   3.080  10.614 -2.3344 -0.5942  1.1078
  180SLPC    C220554   4.226   3.023  10.406 -0.4422  0.2512 -0.2336
  180SLPC    HS20555   4.332   2.991  10.415 -1.5259 -3.5971  0.8519
  180SLPC   O2120556   4.191   3.097  10.289 -0.1086  0.0345  0.4407
  180SLPC   C2120557   4.286   3.175  10.252  0.0416 -0.0078  0.0761
  180SLPC   O2220558   4.389   3.194  10.309 -0.6189  0.0478  0.0414
  180SLPC   C2220559   4.243   3.220  10.111 -0.3644  0.0549  0.2676
  180SLPC   H2R20560   4.163   3.154  10.071 -0.8377  1.9665 -2.1808
  180SLPC   H2S20561   4.200   3.322  10.123 -0.7696  0.1982 -1.9172
  180SLPC    C320562   4.166   2.879  10.396  0.5694 -0.2745  0.6388
  180SLPC    HX20563   4.056   2.882  10.386  0.5473 -0.0087  0.9415
  180SLPC    HY20564   4.186   2.838  10.497 -1.2611 -2.2562  0.2765
  180SLPC   O3120565   4.242   2.804  10.291 -0.2958 -0.0299 -0.7012
  180SLPC   C3120566   4.175   2.705  10.240 -0.0323 -0.4021 -0.1007
  180SLPC   O3220567   4.068   2.658  10.277 -0.6002 -0.3217 -0.1441
  180SLPC   C3220568   4.257   2.646  10.128 -0.1414 -0.4181 -0.5046
  180SLPC   H2X20569   4.281   2.544  10.163 -1.4633 -0.8110 -0.7037
  180SLPC   H2Y20570   4.354   2.699  10.113 -2.0690  2.6069 -4.3167
  180SLPC   C2320571   4.364   3.227  10.021  0.0505 -0.0601  0.8081
  180SLPC   H3R20572   4.423   3.133  10.020  0.1981 -0.0010 -1.2285
  180SLPC   H3S20573   4.431   3.310  10.052  1.8296 -1.6354  1.3488
  180SLPC   C2420574   4.305   3.254   9.882  0.3159  0.2286  0.4910
  180SLPC   H4R20575   4.227   3.332   9.886 -0.3031 -0.2432 -1.2573
  180SLPC   H4S20576   4.258   3.166   9.833  1.5763  0.6189 -1.5837
  180SLPC   C2520577   4.421   3.298   9.794 -0.5215  0.0294  0.3826
  180SLPC   H5R20578   4.490   3.213   9.782 -3.2295 -2.6688  2.3902
  180SLPC   H5S20579   4.473   3.381   9.847  0.5836 -0.1736 -0.3528
  180SLPC   C2620580   4.385   3.355   9.657  0.2163 -0.3586  0.4669
  180SLPC   H6R20581   4.349   3.458   9.679  0.3556 -0.1903 -0.0605
  180SLPC   H6S20582   4.303   3.292   9.617  0.2777 -0.1546  0.0144
  180SLPC   C2720583   4.500   3.353   9.554 -0.1659 -0.0272  0.0137
  180SLPC   H7R20584   4.514   3.247   9.525  2.3046  0.1950  0.1698
  180SLPC   H7S20585   4.596   3.382   9.603 -0.1909 -0.6549  0.4450
  180SLPC   C2820586   4.466   3.444   9.435 -0.7668 -0.0287  0.2351
  180SLPC   H8R20587   4.562   3.454   9.380 -0.4167 -2.2925  0.3589
  180SLPC   H8S20588   4.429   3.541   9.475 -1.4803  0.3565 -1.2975
  180SLPC   C2920589   4.342   3.396   9.367 -0.3810  0.1967  0.7535
  180SLPC   H9R20590   4.250   3.370   9.422 -1.5822 -1.5235 -1.8640
  180SLPC  C21020591   4.332   3.361   9.237 -0.0044 -0.4194 -0.3340
  180SLPC  H10R20592   4.230   3.347   9.197 -0.4689 -0.4356  0.8184
  180SLPC  C21120593   4.438   3.369   9.134  0.5187  0.1257 -0.3015
  180SLPC  H11R20594   4.509   3.448   9.166 -1.5572  2.7561 -1.7110
  180SLPC  H11S20595   4.382   3.403   9.044 -0.9707  0.0555  0.5714
  180SLPC  C21220596   4.510   3.238   9.103  0.2876  0.1087  0.1462
  180SLPC  H12R20597   4.486   3.145   9.155 -1.5684  0.0230 -0.7805
  180SLPC  C21320598   4.580   3.224   8.995 -0.2687  0.1365  0.4367
  180SLPC  H13R20599   4.628   3.129   8.969  1.9289  1.5245 -0.8583
  180SLPC  C21420600   4.623   3.335   8.901 -1.1036  0.0822 -0.5024
  180SLPC  H14R20601   4.728   3.321   8.867 -1.0136  0.2073 -0.2826
  180SLPC  H14S20602   4.625   3.419   8.974 -1.9391 -1.9540  2.0246
  180SLPC  C21520603   4.524   3.356   8.778 -0.7460  0.6628  0.3182
  180SLPC  H15R20604   4.545   3.459   8.741  2.0088  0.4543  1.0889
  180SLPC  H15S20605   4.419   3.356   8.813 -1.5282 -0.8700 -1.8361
  180SLPC  C21620606   4.519   3.249   8.662 -0.1680 -0.1042 -0.1599
  180SLPC  H16R20607   4.481   3.155   8.708 -1.2398  0.1702 -0.4705
  180SLPC  H16S20608   4.623   3.238   8.622  0.1267 -0.5158  0.6950
  180SLPC  C21720609   4.430   3.297   8.545  0.2289 -0.8118  0.4171
  180SLPC  H17R20610   4.330   3.323   8.585  0.0347  0.2332 -0.6879
  180SLPC  H17S20611   4.418   3.213   8.472 -1.9041 -0.1558 -0.0559
  180SLPC  C21820612   4.467   3.413   8.455 -1.2212 -0.1322  0.2757
  180SLPC  H18R20613   4.392   3.425   8.374 -0.7682 -1.0087 -0.2870
  180SLPC  H18S20614   4.571   3.406   8.415 -1.6678  0.2785 -1.0259
  180SLPC  H18T20615   4.478   3.504   8.517 -0.1781 -1.1242  1.6045
  180SLPC   C3320616   4.185   2.647   9.988  0.1524 -0.3781  0.1332
  180SLPC   H3X20617   4.148   2.750   9.971  1.8660  0.2071 -0.2431
  180SLPC   H3Y20618   4.094   2.584   9.977  1.0146 -1.4258 -1.4277
  180SLPC   C3420619   4.265   2.612   9.860 -0.6124 -0.7845 -0.0635
  180SLPC   H4X20620   4.281   2.502   9.856 -0.4514 -0.7826  0.4358
  180SLPC   H4Y20621   4.359   2.670   9.869 -1.9473  1.5067 -0.2550
  180SLPC   C3520622   4.185   2.637   9.730  0.1397 -0.5030  0.2165
  180SLPC   H5X20623   4.079   2.614   9.752  0.7231 -1.9698  1.7116
  180SLPC   H5Y20624   4.220   2.574   9.647 -0.0384  0.8569 -0.9314
  180SLPC   C3620625   4.191   2.786   9.696  0.4892  0.0960 -0.4010
  180SLPC   H6X20626   4.298   2.812   9.679  0.1430  1.1472 -1.0591
  180SLPC   H6Y20627   4.168   2.853   9.782  0.2379 -0.5856  0.0707
  180SLPC   C3720628   4.100   2.830   9.587 -0.1900 -0.9901  0.1623
  180SLPC   H7X20629   3.995   2.820   9.624 -0.0933  1.0713  1.1244
  180SLPC   H7Y20630   4.115   2.771   9.494  0.2118  0.9396 -1.0650
  180SLPC   C3820631   4.126   2.977   9.555 -0.3162 -0.1911 -0.6091
  180SLPC   H8X20632   4.221   2.986   9.500  0.6174  2.7467  1.2104
  180SLPC   H8Y20633   4.147   3.040   9.645 -1.7543 -2.0207  1.1231
  180SLPC   C3920634   4.011   3.046   9.487  0.0653 -0.4928  0.6916
  180SLPC   H9X20635   3.923   3.044   9.555 -0.4569 -0.0228  0.0408
  180SLPC   H9Y20636   3.988   2.972   9.407  0.5872 -2.9975  2.7288
  180SLPC  C31020637   4.021   3.183   9.420 -0.3270  0.2874  0.5060
  180SLPC  H10X20638   4.105   3.174   9.348 -0.8267  1.2894 -0.2345
  180SLPC  H10Y20639   4.044   3.259   9.498  2.0820  0.0527  0.1044
  180SLPC  C31120640   3.897   3.229   9.341  0.5336  0.0534  0.3711
  180SLPC  H11X20641   3.810   3.249   9.406 -0.6865 -1.0331 -0.8470
  180SLPC  H11Y20642   3.872   3.149   9.267  2.5196 -1.8212  1.6037
  180SLPC  C31220643   3.920   3.359   9.269 -0.4852 -0.3628 -0.0115
  180SLPC  H12X20644   4.002   3.360   9.193 -1.3501  0.6302 -0.9563
  180SLPC  H12Y20645   3.945   3.445   9.334  1.1950 -0.5997 -0.3010
  180SLPC  C31320646   3.803   3.410   9.186  0.2698  0.5734 -0.6982
  180SLPC  H13X20647   3.816   3.520   9.178 -1.7246  1.0838  1.7754
  180SLPC  H13Y20648   3.711   3.394   9.246  0.7013  1.2131  0.1523
  180SLPC  C31420649   3.797   3.336   9.058  0.0147 -0.1556  0.0136
  180SLPC  H14X20650   3.771   3.230   9.079 -0.4984  0.2611  1.6305
  180SLPC  H14Y20651   3.886   3.357   8.995 -0.9598  1.4849 -0.8816
  180SLPC  C31520652   3.689   3.399   8.971 -0.0468 -0.4520  0.6177
  180SLPC  H15X20653   3.727   3.501   8.947 -1.9251  1.2882  4.3469
  180SLPC  H15Y20654   3.593   3.409   9.026 -0.0164  5.2751  0.2205
  180SLPC  C31620655   3.662   3.312   8.846  0.1139 -0.8732  0.7273
  180SLPC  H16X20656   3.619   3.378   8.768  1.3937  0.3224  0.9846
  180SLPC  H16Y20657   3.597   3.226   8.873 -1.1310 -0.5189 -0.9770
  180SLPC  C31720658   3.792   3.272   8.769 -0.2550 -1.4161  0.2524
  180SLPC  H17X20659   3.856   3.207   8.833 -0.3015 -0.7999  0.9379
  180SLPC  H17Y20660   3.853   3.361   8.741 -2.1966 -0.9247 -2.9040
  180SLPC  C31820661   3.778   3.203   8.634  0.4518  0.3382  0.6536
  180SLPC  H18X20662   3.750   3.281   8.560 -0.5008  1.3203  2.0002
  180SLPC  H18Y20663   3.699   3.125   8.635 -1.1346  1.7860 -1.7593
  180SLPC  H18Z20664   3.878   3.163   8.607  1.2279  0.9035  2.5274
  181SLPC     N20665   2.396   0.961  10.959  0.3494 -0.8765  0.5272
  181SLPC   C1320666   2.390   0.818  11.006  0.9667 -0.2448  0.6037
  181SLPC  H13A20667   2.380   0.746  10.926  0.6409  0.1035  0.3313
  181SLPC  H13B20668   2.480   0.794  11.062 -0.8770 -0.9500  3.5134
  181SLPC  H13C20669   2.303   0.806  11.069 -0.0217  0.5982 -0.5596
  181SLPC   C1420670   2.531   0.979  10.883  0.2962  0.0638 -1.1444
  181SLPC  H14A20671   2.561   0.883  10.846 -1.1791 -1.4429  1.2650
  181SLPC  H14B20672   2.519   1.044  10.798 -2.1642  0.9854 -0.1597
  181SLPC  H14C20673   2.606   1.013  10.953 -0.4193  0.1135 -0.3860
  181SLPC   C1520674   2.388   1.041  11.088 -0.3246  0.2987  0.5875
  181SLPC  H15A20675   2.477   1.022  11.146 -0.5789  0.9176  1.1926
  181SLPC  H15B20676   2.387   1.146  11.062  1.7667  0.7294  1.9999
  181SLPC  H15C20677   2.298   1.017  11.142  0.0054 -0.0364  1.0059
  181SLPC   C1220678   2.281   0.988  10.867 -0.1939  0.6589  0.0579
  181SLPC  H12A20679   2.189   0.956  10.914  1.2340 -1.9331  1.3081
  181SLPC  H12B20680   2.291   0.925  10.780  0.5466 -1.5995  1.6770
  181SLPC   C1120681   2.270   1.131  10.817  0.0350  0.2959  0.4014
  181SLPC  H11A20682   2.206   1.129  10.726  1.6704  1.0323 -0.8197
  181SLPC  H11B20683   2.368   1.164  10.775 -0.7842  0.2762 -1.6739
  181SLPC     P20684   2.096   1.211  10.991  0.1673  0.1459 -0.4467
  181SLPC   O1320685   2.055   1.067  11.007  0.4570 -0.3638 -0.2684
  181SLPC   O1420686   2.108   1.289  11.116 -0.4550 -0.0755  0.3186
  181SLPC   O1220687   2.226   1.222  10.911 -0.1275 -0.1896 -0.6303
  181SLPC   O1120688   1.992   1.275  10.886  0.1819  0.4773 -0.3314
  181SLPC    C120689   2.002   1.405  10.846  0.1000  0.2683  0.9503
  181SLPC    HA20690   1.941   1.467  10.914  1.3408 -0.6385  3.0017
  181SLPC    HB20691   2.106   1.442  10.844 -0.4331  1.8242 -0.2172
  181SLPC    C220692   1.966   1.415  10.698 -0.1042 -0.4208 -0.0684
  181SLPC    HS20693   1.990   1.517  10.662  0.8950 -0.0285  1.6071
  181SLPC   O2120694   1.825   1.383  10.684  0.0474 -0.2502  0.0414
  181SLPC   C2120695   1.745   1.488  10.701  0.0057 -0.2648 -0.0853
  181SLPC   O2220696   1.784   1.605  10.713 -0.1607 -0.3898 -0.0631
  181SLPC   C2220697   1.604   1.429  10.697 -0.0928 -0.4028 -0.5824
  181SLPC   H2R20698   1.614   1.338  10.633 -0.4565  0.5045 -1.9840
  181SLPC   H2S20699   1.570   1.401  10.799  1.7625 -1.5678 -0.2338
  181SLPC    C320700   2.051   1.320  10.598  0.7400 -0.8717  0.2608
  181SLPC    HX20701   2.033   1.218  10.638 -1.2158 -0.7694 -0.2877
  181SLPC    HY20702   2.160   1.336  10.616  0.2593  1.2381  1.8139
  181SLPC   O3120703   2.018   1.344  10.457  0.3520  0.6266  0.0156
  181SLPC   C3120704   1.910   1.285  10.418 -0.3106  0.3489  0.1830
  181SLPC   O3220705   1.839   1.203  10.481  0.2110  0.5054 -0.4127
  181SLPC   C3220706   1.873   1.328  10.276  0.0121  0.7212 -0.4996
  181SLPC   H2X20707   1.862   1.228  10.229  0.6689  0.3493  0.1112
  181SLPC   H2Y20708   1.958   1.389  10.239 -1.4694  3.9272  0.9499
  181SLPC   C2320709   1.504   1.520  10.622  0.3865  0.7097  0.8215
  181SLPC   H3R20710   1.416   1.455  10.600  2.2686 -1.5120 -0.5353
  181SLPC   H3S20711   1.535   1.556  10.522 -1.1177  0.3256  0.1812
  181SLPC   C2420712   1.479   1.648  10.692  0.4967 -0.4422  0.0672
  181SLPC   H4R20713   1.564   1.720  10.691 -0.7349  1.0499 -0.3766
  181SLPC   H4S20714   1.464   1.637  10.802  2.5167 -1.2664  0.3147
  181SLPC   C2520715   1.363   1.728  10.640 -0.2596 -0.2704 -0.4936
  181SLPC   H5R20716   1.350   1.808  10.717  0.8531 -2.3722  2.0520
  181SLPC   H5S20717   1.263   1.680  10.632 -0.9937  1.1620 -0.1893
  181SLPC   C2620718   1.382   1.792  10.509  0.1767  0.3090 -0.1150
  181SLPC   H6R20719   1.387   1.714  10.430 -3.1692  0.3801 -0.5566
  181SLPC   H6S20720   1.468   1.862  10.506 -0.4273  1.2254  2.1637
  181SLPC   C2720721   1.263   1.882  10.458 -0.2625 -0.0890  0.1877
  181SLPC   H7R20722   1.168   1.881  10.517 -1.3291  1.2683 -1.3820
  181SLPC   H7S20723   1.248   1.832  10.360 -0.3018  0.4266 -0.0781
  181SLPC   C2820724   1.305   2.035  10.435 -0.1695 -0.1707  0.5013
  181SLPC   H8R20725   1.384   2.025  10.357 -0.1176  0.4815  0.4637
  181SLPC   H8S20726   1.370   2.056  10.523  1.7170 -2.5186 -0.2142
  181SLPC   C2920727   1.185   2.126  10.411 -0.0455 -0.1444  0.3054
  181SLPC   H9R20728   1.109   2.130  10.490 -0.1438 -0.6874  0.2441
  181SLPC  C21020729   1.164   2.195  10.295 -0.1184 -0.0295 -0.5249
  181SLPC  H10R20730   1.082   2.267  10.293  0.2394  0.4195  0.3296
  181SLPC  C21120731   1.257   2.194  10.175  0.1135 -0.4031  0.4953
  181SLPC  H11R20732   1.344   2.125  10.178  1.0701  0.7942  1.0942
  181SLPC  H11S20733   1.318   2.286  10.185  0.0893 -0.4385  0.9620
  181SLPC  C21220734   1.185   2.186  10.042 -0.0316 -0.0028  1.0838
  181SLPC  H12R20735   1.183   2.273   9.974  1.3507 -0.6644  0.1413
  181SLPC  C21320736   1.120   2.080   9.997 -0.4134  0.0840 -0.1282
  181SLPC  H13R20737   1.063   2.089   9.904  0.2467  0.4234 -0.5086
  181SLPC  C21420738   1.112   1.946  10.059 -0.0114  0.1048 -0.0633
  181SLPC  H14R20739   1.186   1.932  10.141  0.4909 -1.9130 -0.8108
  181SLPC  H14S20740   1.142   1.879   9.975  3.0926  0.6425  0.5029
  181SLPC  C21520741   0.972   1.910  10.107 -0.2419  0.0368 -0.0062
  181SLPC  H15R20742   0.891   1.950  10.042  0.3322 -0.8963 -1.3238
  181SLPC  H15S20743   0.959   1.960  10.206 -0.6614  1.7301 -0.8871
  181SLPC  C21620744   0.961   1.759  10.128 -0.0145 -0.2630 -0.0997
  181SLPC  H16R20745   1.039   1.733  10.204 -2.1179 -0.9065  1.9570
  181SLPC  H16S20746   0.987   1.709  10.033  0.5179 -1.3986  0.6160
  181SLPC  C21720747   0.822   1.716  10.189 -0.3949  0.2506 -0.6223
  181SLPC  H17R20748   0.749   1.715  10.106 -2.9230  0.2193  1.4824
  181SLPC  H17S20749   0.798   1.797  10.262  0.6146 -0.8075  0.9566
  181SLPC  C21820750   0.828   1.583  10.269  0.0719  0.5879 -0.7779
  181SLPC  H18R20751   0.850   1.492  10.208  0.3364  0.7308 -0.8975
  181SLPC  H18S20752   0.729   1.562  10.315  1.0566 -1.5374  0.5442
  181SLPC  H18T20753   0.908   1.599  10.343 -0.0081 -0.7976 -0.3572
  181SLPC   C3320754   1.744   1.393  10.261 -0.2335  0.0131 -0.2379
  181SLPC   H3X20755   1.723   1.450  10.354 -0.8890 -0.6813  0.0601
  181SLPC   H3Y20756   1.668   1.312  10.262  0.4218 -0.7034 -2.7246
  181SLPC   C3420757   1.726   1.479  10.144  0.3423  0.1462  0.6286
  181SLPC   H4X20758   1.802   1.561  10.141 -0.1752  0.6823  1.6436
  181SLPC   H4Y20759   1.628   1.531  10.142 -0.3215 -0.9974  1.8156
  181SLPC   C3520760   1.739   1.400  10.016 -0.2283 -0.0998  0.1062
  181SLPC   H5X20761   1.683   1.304  10.022  0.3802 -0.4195  0.6697
  181SLPC   H5Y20762   1.845   1.369  10.006 -0.2981 -0.3045 -0.0224
  181SLPC   C3620763   1.699   1.480   9.883  0.2668  0.2116 -0.5486
  181SLPC   H6X20764   1.751   1.578   9.887  0.6593 -0.0385  1.7370
  181SLPC   H6Y20765   1.591   1.496   9.903  0.3357 -1.3784  1.4628
  181SLPC   C3720766   1.714   1.402   9.757  0.9485 -0.7259 -0.3194
  181SLPC   H7X20767   1.687   1.295   9.768  2.2988 -1.3269 -2.3120
  181SLPC   H7Y20768   1.825   1.403   9.751  1.1505 -0.1734  2.1369
  181SLPC   C3820769   1.647   1.453   9.631 -0.0669  0.6370 -0.8013
  181SLPC   H8X20770   1.647   1.563   9.644 -0.4764  0.3704  2.0540
  181SLPC   H8Y20771   1.545   1.410   9.626  0.0809  0.3204 -1.2039
  181SLPC   C3920772   1.713   1.418   9.499  0.2686  0.3422 -0.6516
  181SLPC   H9X20773   1.723   1.309   9.482  3.2071 -0.1719  3.1688
  181SLPC   H9Y20774   1.820   1.447   9.502  0.6820 -0.9588 -1.8626
  181SLPC  C31020775   1.661   1.494   9.377  0.2996  0.8551 -0.0590
  181SLPC  H10X20776   1.642   1.603   9.384 -0.3674  0.8796 -1.7654
  181SLPC  H10Y20777   1.561   1.447   9.370 -0.3430  1.2775  4.1397
  181SLPC  C31120778   1.745   1.469   9.250 -0.1122  0.0578  0.4467
  181SLPC  H11X20779   1.765   1.360   9.248  0.1746  0.1158  0.2013
  181SLPC  H11Y20780   1.844   1.518   9.261  0.2156 -0.0611 -1.6888
  181SLPC  C31220781   1.686   1.534   9.132  0.0250  0.3493 -0.3580
  181SLPC  H12X20782   1.673   1.643   9.149  0.8370  0.5036 -0.7000
  181SLPC  H12Y20783   1.587   1.487   9.112  0.8964 -2.3167  1.1413
  181SLPC  C31320784   1.771   1.524   8.999 -1.0302  0.5866 -0.7673
  181SLPC  H13X20785   1.815   1.423   8.980 -1.9891 -0.2177  0.9665
  181SLPC  H13Y20786   1.852   1.599   9.005  1.0386 -1.5813  0.5437
  181SLPC  C31420787   1.704   1.558   8.868 -0.4433  0.9032 -0.5274
  181SLPC  H14X20788   1.680   1.665   8.880 -2.3295  0.4176  0.4087
  181SLPC  H14Y20789   1.611   1.502   8.847  0.7185 -1.0116 -0.8783
  181SLPC  C31520790   1.806   1.552   8.753  0.3316  0.0281 -0.1159
  181SLPC  H15X20791   1.839   1.447   8.738 -1.5290 -0.5468 -0.3622
  181SLPC  H15Y20792   1.896   1.612   8.780 -0.2159  0.2724  1.2411
  181SLPC  C31620793   1.754   1.583   8.612  0.7719 -0.5500  0.5095
  181SLPC  H16X20794   1.846   1.596   8.551  0.7515  0.0732  0.6030
  181SLPC  H16Y20795   1.686   1.671   8.613  0.5883 -0.6775 -0.3397
  181SLPC  C31720796   1.676   1.464   8.555  0.5778  0.1995 -0.6732
  181SLPC  H17X20797   1.586   1.453   8.619  2.7313  0.4578  2.6009
  181SLPC  H17Y20798   1.731   1.369   8.572  0.5388  0.3605  0.4479
  181SLPC  C31820799   1.631   1.472   8.408  0.0768  0.1577  0.2357
  181SLPC  H18X20800   1.720   1.480   8.342  1.7591 -0.6825  2.2693
  181SLPC  H18Y20801   1.573   1.565   8.388 -0.8742 -0.4309  0.2024
  181SLPC  H18Z20802   1.575   1.380   8.386  1.3302 -1.1915  2.2915
  182SLPC     N20803   6.461   3.904  10.924 -0.0668 -0.2436  0.0214
  182SLPC   C1320804   6.560   3.970  11.009 -0.1885  0.0738 -0.0962
  182SLPC  H13A20805   6.553   4.077  11.000 -0.9575 -0.0923 -2.0304
  182SLPC  H13B20806   6.552   3.936  11.111  0.8101 -0.8414 -0.3061
  182SLPC  H13C20807   6.662   3.954  10.979 -0.3626  0.1389 -0.7369
  182SLPC   C1420808   6.323   3.963  10.960 -0.2746 -0.4153 -0.9155
  182SLPC  H14A20809   6.313   4.070  10.971 -2.9552 -0.7361  0.4424
  182SLPC  H14B20810   6.246   3.950  10.886 -0.0471 -1.5596 -0.9665
  182SLPC  H14C20811   6.286   3.923  11.053  0.0198 -1.0332 -1.0588
  182SLPC   C1520812   6.463   3.750  10.940 -0.2657 -0.0245  0.8052
  182SLPC  H15A20813   6.386   3.712  10.874 -0.8566  1.6885  0.4379
  182SLPC  H15B20814   6.564   3.723  10.914  0.3993  1.7751  1.3662
  182SLPC  H15C20815   6.431   3.717  11.038 -2.4421 -2.5658 -0.6327
  182SLPC   C1220816   6.495   3.939  10.781  0.0621 -0.1172  0.0307
  182SLPC  H12A20817   6.504   4.046  10.773  1.5171 -0.1751  0.6062
  182SLPC  H12B20818   6.413   3.908  10.718  1.0913 -0.9454 -0.9341
  182SLPC   C1120819   6.613   3.862  10.722  0.1017 -0.6677  0.3912
  182SLPC  H11A20820   6.592   3.876  10.614 -1.3041 -1.8216  0.4792
  182SLPC  H11B20821   6.602   3.753  10.738 -1.2722 -0.4197  1.3594
  182SLPC     P20822   6.876   3.852  10.730 -0.1767  0.3209  0.5078
  182SLPC   O1320823   6.972   3.965  10.691  0.4258  0.6732  1.0064
  182SLPC   O1420824   6.915   3.751  10.834  0.8633 -0.4005  0.3754
  182SLPC   O1220825   6.740   3.923  10.762  0.4356  0.0797  0.1381
  182SLPC   O1120826   6.839   3.760  10.604 -0.0073  0.2256 -0.4304
  182SLPC    C120827   6.879   3.627  10.595  0.4741  0.6343  0.7920
  182SLPC    HA20828   6.990   3.615  10.591  0.3227 -1.2046  1.2052
  182SLPC    HB20829   6.836   3.566  10.676 -1.0257  1.8518  0.9560
  182SLPC    C220830   6.832   3.564  10.460 -0.2714 -0.2227 -0.6878
  182SLPC    HS20831   6.834   3.453  10.462 -2.4645 -0.4135 -3.2401
  182SLPC   O2120832   6.922   3.612  10.358  0.6785  0.4496 -0.4272
  182SLPC   C2120833   6.989   3.509  10.294 -0.1332  0.0089  0.3926
  182SLPC   O2220834   6.972   3.392  10.325  0.4250 -0.1097  0.0778
  182SLPC   C2220835   7.084   3.564  10.186 -0.6031 -0.0956  0.6112
  182SLPC   H2R20836   7.094   3.672  10.211 -1.0502 -0.0520  0.6045
  182SLPC   H2S20837   7.179   3.509  10.204  0.8360  1.6937 -1.0498
  182SLPC    C320838   6.685   3.606  10.439 -0.6299 -0.4678  0.7049
  182SLPC    HX20839   6.672   3.716  10.439 -0.7145 -0.4061 -1.9874
  182SLPC    HY20840   6.624   3.577  10.527  1.1860  3.2088  3.4211
  182SLPC   O3120841   6.634   3.544  10.316  0.5239 -0.7102  0.0762
  182SLPC   C3120842   6.607   3.412  10.317  0.0145 -0.6710  0.0656
  182SLPC   O3220843   6.599   3.342  10.420 -0.5293 -0.5418  0.5403
  182SLPC   C3220844   6.577   3.362  10.173  0.4397 -0.6355 -0.3135
  182SLPC   H2X20845   6.677   3.369  10.126  0.5787 -0.9112 -0.0556
  182SLPC   H2Y20846   6.502   3.429  10.125  1.5076  0.8094 -0.0313
  182SLPC   C2320847   7.024   3.546  10.054 -0.2384  0.0101  0.5831
  182SLPC   H3R20848   6.942   3.617  10.032 -1.0770 -1.4992 -1.3954
  182SLPC   H3S20849   6.996   3.440  10.039  0.3923  0.1794 -2.2217
  182SLPC   C2420850   7.123   3.587   9.941 -0.4318  0.7300 -0.0998
  182SLPC   H4R20851   7.207   3.515   9.932  1.2992  2.7153 -0.5207
  182SLPC   H4S20852   7.153   3.690   9.970  1.4920  0.6638 -1.6679
  182SLPC   C2520853   7.072   3.606   9.802 -0.3131 -0.0405 -0.4641
  182SLPC   H5R20854   7.160   3.652   9.751 -1.6978  2.2144 -0.9918
  182SLPC   H5S20855   6.980   3.670   9.801 -1.2893 -1.4026 -0.1009
  182SLPC   C2620856   7.046   3.468   9.729  0.1838 -0.7236  0.0569
  182SLPC   H6R20857   6.944   3.437   9.762  0.0716 -0.6368 -0.2043
  182SLPC   H6S20858   7.128   3.403   9.766  1.7251  0.3085 -1.4192
  182SLPC   C2720859   7.064   3.481   9.575  0.4726 -0.4885  0.2911
  182SLPC   H7R20860   7.113   3.388   9.537  1.5754  0.8289 -1.6641
  182SLPC   H7S20861   7.142   3.560   9.563  2.5564 -2.5078 -0.3624
  182SLPC   C2820862   6.929   3.504   9.502 -0.8661  0.2446  0.2980
  182SLPC   H8R20863   6.956   3.512   9.395  1.6860 -1.2829  0.7292
  182SLPC   H8S20864   6.885   3.600   9.534 -0.4083  0.1372  1.2834
  182SLPC   C2920865   6.840   3.387   9.517  0.2430 -0.3934  0.1587
  182SLPC   H9R20866   6.812   3.364   9.621 -0.1001 -3.0100 -0.4381
  182SLPC  C21020867   6.758   3.331   9.419 -0.1113 -0.0786 -0.0324
  182SLPC  H10R20868   6.690   3.253   9.458  2.0128 -2.0138 -0.0085
  182SLPC  C21120869   6.750   3.364   9.277 -0.0810 -0.1084  0.7654
  182SLPC  H11R20870   6.840   3.423   9.249 -0.7956  0.2948 -0.8151
  182SLPC  H11S20871   6.662   3.430   9.270 -0.2750 -0.2437  1.8355
  182SLPC  C21220872   6.733   3.241   9.180 -0.2615 -0.8629 -0.5511
  182SLPC  H12R20873   6.761   3.147   9.229 -2.9147 -1.0932  0.6805
  182SLPC  C21320874   6.690   3.243   9.054  0.1275  0.5895  0.3568
  182SLPC  H13R20875   6.684   3.150   8.996 -1.3603  2.3419 -2.5599
  182SLPC  C21420876   6.644   3.358   8.969 -0.3727 -0.0694 -0.5565
  182SLPC  H14R20877   6.687   3.343   8.868  0.8326 -0.6996  0.0375
  182SLPC  H14S20878   6.675   3.456   9.011 -2.1495 -0.5789  2.1983
  182SLPC  C21520879   6.490   3.375   8.966  0.7345 -0.0040  1.1704
  182SLPC  H15R20880   6.452   3.372   9.071  0.6393  1.0827  1.1753
  182SLPC  H15S20881   6.460   3.278   8.921  1.6649  0.1204  0.2385
  182SLPC  C21620882   6.437   3.488   8.881 -0.0011 -0.0005  0.6648
  182SLPC  H16R20883   6.484   3.513   8.784 -3.2147 -0.2607 -1.1090
  182SLPC  H16S20884   6.452   3.578   8.943  1.0230  1.3436 -1.4377
  182SLPC  C21720885   6.289   3.485   8.857  0.2496 -0.4078 -0.3748
  182SLPC  H17R20886   6.275   3.386   8.809  0.4692  0.5791 -2.5793
  182SLPC  H17S20887   6.277   3.577   8.795 -0.8266  0.5068  1.1146
  182SLPC  C21820888   6.202   3.510   8.981  0.2561 -0.3471  0.1945
  182SLPC  H18R20889   6.234   3.612   9.013 -1.2408  1.2100 -2.9040
  182SLPC  H18S20890   6.216   3.437   9.064 -0.1844  0.8933  1.3954
  182SLPC  H18T20891   6.093   3.505   8.960 -0.2414  1.6586  1.9396
  182SLPC   C3320892   6.521   3.221  10.164  0.2251 -0.3785 -0.9363
  182SLPC   H3X20893   6.432   3.213  10.230 -0.9305 -1.6411 -2.5848
  182SLPC   H3Y20894   6.590   3.150  10.214  0.8915 -0.3930 -1.8461
  182SLPC   C3420895   6.488   3.180  10.015  0.3958  0.9480 -0.1852
  182SLPC   H4X20896   6.406   3.247   9.980 -1.0180 -0.1512  0.8929
  182SLPC   H4Y20897   6.442   3.079  10.016 -1.7823  1.8637  1.5177
  182SLPC   C3520898   6.604   3.178   9.913 -0.3665  0.0617  0.3229
  182SLPC   H5X20899   6.700   3.144   9.956  0.2093 -0.0935 -1.0456
  182SLPC   H5Y20900   6.623   3.282   9.880  3.5330 -0.6506 -0.0675
  182SLPC   C3620901   6.573   3.100   9.781 -0.0475  0.1787 -0.0147
  182SLPC   H6X20902   6.537   2.998   9.808 -0.5241  0.4276  0.3143
  182SLPC   H6Y20903   6.659   3.111   9.712  0.3898 -0.8055  0.3550
  182SLPC   C3720904   6.455   3.175   9.710 -0.4683 -0.3721 -0.6333
  182SLPC   H7X20905   6.469   3.286   9.712  2.4538 -0.5935  3.6908
  182SLPC   H7Y20906   6.370   3.165   9.781 -0.2840  0.5873 -0.2585
  182SLPC   C3820907   6.394   3.105   9.599  0.8647 -0.5106  0.0871
  182SLPC   H8X20908   6.466   3.089   9.516  1.3491  0.9749  0.1967
  182SLPC   H8Y20909   6.312   3.161   9.550  2.1832  0.7521 -0.7270
  182SLPC   C3920910   6.345   2.959   9.626  0.2750  0.2521 -0.0303
  182SLPC   H9X20911   6.264   2.968   9.701  1.4216 -0.3869  1.3221
  182SLPC   H9Y20912   6.422   2.886   9.658 -0.3087 -0.5314 -0.3907
  182SLPC  C31020913   6.271   2.898   9.504  0.4148 -0.0433 -0.3211
  182SLPC  H10X20914   6.337   2.908   9.415  1.6532  1.2987  0.7007
  182SLPC  H10Y20915   6.176   2.955   9.492 -1.3858 -2.6179  0.7868
  182SLPC  C31120916   6.257   2.748   9.507  0.3386  0.0256  1.2315
  182SLPC  H11X20917   6.252   2.715   9.613 -2.0371 -0.8148  0.9281
  182SLPC  H11Y20918   6.349   2.697   9.471  1.2499  0.1550  3.2819
  182SLPC  C31220919   6.130   2.699   9.444  0.4481  0.6536  0.9167
  182SLPC  H12X20920   6.049   2.740   9.508 -0.3612 -1.7308  1.5279
  182SLPC  H12Y20921   6.126   2.588   9.444  0.7075  0.6347 -0.3839
  182SLPC  C31320922   6.117   2.746   9.297 -0.2186  0.0639  0.6641
  182SLPC  H13X20923   6.163   2.847   9.288 -3.2451  1.8569  3.2055
  182SLPC  H13Y20924   6.013   2.755   9.258 -0.5483  0.6410  1.6364
  182SLPC  C31420925   6.177   2.655   9.189  0.5049  0.2316  0.0909
  182SLPC  H14X20926   6.123   2.560   9.210 -0.1978  0.1610 -1.7805
  182SLPC  H14Y20927   6.285   2.637   9.205  1.4741  1.3072 -4.0260
  182SLPC  C31520928   6.151   2.692   9.043 -0.0592 -0.3906  0.7028
  182SLPC  H15X20929   6.057   2.747   9.022  0.7796  1.7450  2.1711
  182SLPC  H15Y20930   6.157   2.596   8.988 -1.8400 -0.1898  0.0971
  182SLPC  C31620931   6.264   2.784   8.991  0.0903  0.5440  0.4331
  182SLPC  H16X20932   6.340   2.714   8.951 -1.4388 -1.4367  0.8179
  182SLPC  H16Y20933   6.300   2.848   9.074 -2.7945  1.6943  0.9065
  182SLPC  C31720934   6.221   2.872   8.863 -0.3322  0.1208  0.0193
  182SLPC  H17X20935   6.318   2.909   8.826  1.8083 -2.4904  2.5335
  182SLPC  H17Y20936   6.162   2.956   8.906 -0.8351  0.6106 -1.5762
  182SLPC  C31820937   6.135   2.807   8.763 -0.3612  0.0259 -0.1658
  182SLPC  H18X20938   6.043   2.756   8.799 -0.4781  0.1558 -0.2810
  182SLPC  H18Y20939   6.196   2.727   8.715 -0.5428  0.3359 -0.9221
  182SLPC  H18Z20940   6.108   2.872   8.678 -0.1966 -1.2039 -1.1921
  183SLPC     N20941   0.601   3.929  10.822 -0.2375 -0.6321 -0.0167
  183SLPC   C1320942   0.715   3.934  10.726 -0.0033  0.0243 -0.3257
  183SLPC  H13A20943   0.810   3.963  10.770 -0.7532  0.8060  0.8357
  183SLPC  H13B20944   0.725   3.837  10.681 -0.4281 -0.8450  1.3836
  183SLPC  H13C20945   0.697   4.002  10.644  1.1869 -1.3316 -1.7651
  183SLPC   C1420946   0.475   3.884  10.755  0.1705  0.8477  0.1718
  183SLPC  H14A20947   0.397   3.873  10.829  0.3988  1.0853  0.4527
  183SLPC  H14B20948   0.448   3.954  10.678  0.7212 -0.2988 -1.1078
  183SLPC  H14C20949   0.498   3.784  10.722 -1.8776 -1.2244  4.2405
  183SLPC   C1520950   0.574   4.071  10.870 -0.3348 -0.4326 -0.6016
  183SLPC  H15A20951   0.582   4.136  10.783 -1.1084 -1.1261 -1.2094
  183SLPC  H15B20952   0.477   4.078  10.917  0.6136 -0.9338  1.5378
  183SLPC  H15C20953   0.649   4.091  10.945  0.9841 -2.4416 -1.3015
  183SLPC   C1220954   0.628   3.845  10.943  0.2704  0.0806 -0.4975
  183SLPC  H12A20955   0.560   3.877  11.020  1.2502 -0.6223  0.7007
  183SLPC  H12B20956   0.732   3.860  10.968  0.3795  0.0199 -0.9018
  183SLPC   C1120957   0.610   3.693  10.916  0.1342  0.4296 -0.1808
  183SLPC  H11A20958   0.500   3.676  10.915 -0.2814  2.6773  1.0757
  183SLPC  H11B20959   0.656   3.654  11.010 -1.8696  0.5067  0.8926
  183SLPC     P20960   0.648   3.495  10.760 -0.2292  0.2900  0.5380
  183SLPC   O1320961   0.764   3.413  10.805  0.5172 -0.4258  0.1930
  183SLPC   O1420962   0.516   3.441  10.794  0.2726 -0.3896  0.3093
  183SLPC   O1220963   0.676   3.646  10.800 -0.0623 -0.4653  0.1396
  183SLPC   O1120964   0.648   3.504  10.602  0.0681 -0.3052  0.3374
  183SLPC    C120965   0.749   3.580  10.529  0.1237  0.3286 -0.1266
  183SLPC    HA20966   0.698   3.658  10.469  0.4969  0.7297  0.0689
  183SLPC    HB20967   0.828   3.622  10.595  1.4510 -0.3194 -1.2405
  183SLPC    C220968   0.824   3.492  10.418 -0.2861 -0.0433 -0.1692
  183SLPC    HS20969   0.888   3.566  10.365 -1.0735  1.0718  0.4057
  183SLPC   O2120970   0.727   3.428  10.327  0.1650 -0.1646 -0.8734
  183SLPC   C2120971   0.762   3.425  10.197  0.2751  0.3473 -0.5538
  183SLPC   O2220972   0.862   3.474  10.148  0.0207 -0.0343  0.0397
  183SLPC   C2220973   0.638   3.361  10.121  0.2129 -0.8442  0.0307
  183SLPC   H2R20974   0.630   3.257  10.158  1.3673 -0.5318  1.2599
  183SLPC   H2S20975   0.550   3.415  10.162 -0.5047 -0.8185 -1.4779
  183SLPC    C320976   0.919   3.382  10.481  0.7155  0.4059  0.6199
  183SLPC    HX20977   0.857   3.310  10.539  0.0040 -2.1974 -2.9882
  183SLPC    HY20978   0.986   3.439  10.548  0.3966  1.7531 -0.1648
  183SLPC   O3120979   0.981   3.293  10.375  0.0960  0.2308  0.1907
  183SLPC   C3120980   1.107   3.319  10.342  0.5638 -0.6546 -0.8126
  183SLPC   O3220981   1.178   3.404  10.398  0.1910  0.1910 -0.0563
  183SLPC   C3220982   1.141   3.232  10.219 -0.1087 -0.1406 -0.4664
  183SLPC   H2X20983   1.085   3.274  10.133 -0.0334  1.4303  0.2156
  183SLPC   H2Y20984   1.118   3.127  10.248  2.0349 -0.1770  1.4178
  183SLPC   C2320985   0.646   3.390   9.970 -0.4000 -0.4262 -0.7199
  183SLPC   H3R20986   0.665   3.499   9.956 -0.7030  0.1121  2.3804
  183SLPC   H3S20987   0.543   3.392   9.930 -0.8404 -0.9006  0.3682
  183SLPC   C2420988   0.749   3.299   9.901 -0.0636 -0.5753  0.6816
  183SLPC   H4R20989   0.727   3.192   9.920  1.6956 -0.9193  0.8689
  183SLPC   H4S20990   0.851   3.325   9.937 -0.4247 -0.5316  1.7156
  183SLPC   C2520991   0.755   3.325   9.753  0.1830  0.4521  0.1284
  183SLPC   H5R20992   0.791   3.237   9.695  1.4862 -0.4623  2.1809
  183SLPC   H5S20993   0.823   3.408   9.726 -1.8905  2.3708  0.5329
  183SLPC   C2620994   0.612   3.357   9.693 -0.9072 -0.5814 -0.6287
  183SLPC   H6R20995   0.576   3.456   9.727 -1.7181 -1.4204  1.0887
  183SLPC   H6S20996   0.548   3.279   9.740 -0.7504 -1.1448 -1.3285
  183SLPC   C2720997   0.587   3.328   9.545  0.4440 -0.0850  0.3825
  183SLPC   H7R20998   0.478   3.306   9.537  0.2215 -0.0377  2.5418
  183SLPC   H7S20999   0.641   3.232   9.532 -1.8032 -2.4209  5.3940
  183SLPC   C2821000   0.648   3.446   9.464 -0.0693  0.3296 -0.6445
  183SLPC   H8R21001   0.742   3.472   9.517  0.3531 -2.7487  0.3404
  183SLPC   H8S21002   0.573   3.527   9.480  1.8885  1.9535  0.9214
  183SLPC   C2921003   0.676   3.413   9.323 -0.9205 -0.5784 -0.5321
  183SLPC   H9R21004   0.724   3.317   9.299 -1.2723 -0.8759 -0.0268
  183SLPC  C21021005   0.643   3.487   9.219  0.0130  0.4504  0.2399
  183SLPC  H10R21006   0.685   3.463   9.120 -0.8026  2.6062 -0.6748
  183SLPC  C21121007   0.569   3.617   9.230 -0.6494  0.1481  0.6064
  183SLPC  H11R21008   0.590   3.657   9.332 -0.7672  0.3758  0.5409
  183SLPC  H11S21009   0.460   3.611   9.211 -0.6566 -0.5561  0.8585
  183SLPC  C21221010   0.631   3.716   9.141  0.3741  0.2285 -0.2881
  183SLPC  H12R21011   0.722   3.753   9.190 -1.0624  1.6259  1.4397
  183SLPC  C21321012   0.605   3.743   9.011 -0.2376 -0.1404  0.1511
  183SLPC  H13R21013   0.666   3.817   8.958 -2.4504  0.0393 -2.3662
  183SLPC  C21421014   0.510   3.679   8.917  0.2808 -1.0837 -0.9005
  183SLPC  H14R21015   0.429   3.745   8.879  0.3888  0.0386  0.7218
  183SLPC  H14S21016   0.446   3.604   8.968 -2.0787  1.0006 -0.6014
  183SLPC  C21521017   0.567   3.611   8.800  0.5101 -0.9366 -0.7277
  183SLPC  H15R21018   0.630   3.662   8.724 -0.4124 -0.1914 -1.0115
  183SLPC  H15S21019   0.481   3.573   8.741 -0.0577 -0.8722  0.0369
  183SLPC  C21621020   0.647   3.495   8.849 -0.1292 -0.7832  0.7880
  183SLPC  H16R21021   0.578   3.437   8.913 -1.9152  1.0093  0.5738
  183SLPC  H16S21022   0.740   3.527   8.901 -1.4928 -1.0830  3.5732
  183SLPC  C21721023   0.676   3.392   8.735  0.3207  0.9293  0.2353
  183SLPC  H17R21024   0.743   3.316   8.781 -0.6105 -1.3759 -2.0057
  183SLPC  H17S21025   0.727   3.442   8.650 -1.0593  0.7000 -0.7599
  183SLPC  C21821026   0.556   3.320   8.682 -0.0805  0.0465  0.1423
  183SLPC  H18R21027   0.493   3.269   8.758  0.8877 -2.3376 -0.5725
  183SLPC  H18S21028   0.599   3.241   8.617  1.8740  1.9081 -0.9405
  183SLPC  H18T21029   0.497   3.388   8.618  0.5821  0.8807  0.3884
  183SLPC   C3321030   1.292   3.238  10.201  0.0340 -0.2627  0.3553
  183SLPC   H3X21031   1.341   3.208  10.297 -0.6970 -0.5380  0.6548
  183SLPC   H3Y21032   1.325   3.340  10.176 -1.9642  0.2407 -0.4363
  183SLPC   C3421033   1.340   3.157  10.078 -0.4301  0.3119 -0.3979
  183SLPC   H4X21034   1.332   3.046  10.082 -0.0572  0.3235  1.7069
  183SLPC   H4Y21035   1.451   3.160  10.075 -0.2830  1.5591  2.7513
  183SLPC   C3521036   1.267   3.210   9.956 -0.2661  0.6177  0.6995
  183SLPC   H5X21037   1.286   3.320   9.955  0.9197  0.4337 -1.1581
  183SLPC   H5Y21038   1.157   3.194   9.953  0.0098 -1.2987 -0.5714
  183SLPC   C3621039   1.331   3.149   9.829  0.3952 -0.3236 -0.1108
  183SLPC   H6X21040   1.424   3.207   9.811 -0.2199  0.4947 -0.7065
  183SLPC   H6Y21041   1.269   3.193   9.748  1.9757  0.5493 -0.8873
  183SLPC   C3721042   1.343   3.002   9.807 -0.2768 -0.3159 -0.4806
  183SLPC   H7X21043   1.403   2.975   9.897 -2.0223 -2.0351  0.2299
  183SLPC   H7Y21044   1.409   2.976   9.721  0.5576  0.6154 -0.1500
  183SLPC   C3821045   1.209   2.930   9.802  0.0628  0.2607  0.2431
  183SLPC   H8X21046   1.143   2.954   9.888  0.2640  2.1921 -0.0965
  183SLPC   H8Y21047   1.233   2.822   9.813  0.6173  0.2725 -0.7273
  183SLPC   C3921048   1.146   2.953   9.667 -0.0423  0.0676 -0.8191
  183SLPC   H9X21049   1.208   2.920   9.580  1.9670 -0.3183  0.6908
  183SLPC   H9Y21050   1.139   3.062   9.652  0.1874  0.5423  2.0154
  183SLPC  C31021051   1.001   2.896   9.666  0.1614 -0.3868  0.1396
  183SLPC  H10X21052   0.950   2.919   9.762  1.1853  1.8048  0.2177
  183SLPC  H10Y21053   1.001   2.786   9.649  2.0124 -0.1615 -1.6522
  183SLPC  C31121054   0.909   2.971   9.565 -0.3152  0.1561  0.5722
  183SLPC  H11X21055   0.910   3.080   9.586  1.4611  0.7047 -1.8860
  183SLPC  H11Y21056   0.802   2.944   9.582 -0.7269 -0.7883 -2.6849
  183SLPC  C31221057   0.947   2.951   9.426  0.0998 -0.1604  0.0830
  183SLPC  H12X21058   0.942   2.842   9.405  0.9976 -0.2209  0.1566
  183SLPC  H12Y21059   1.052   2.977   9.399 -0.0691 -1.2731 -1.7569
  183SLPC  C31321060   0.859   3.034   9.334  0.3704 -0.0820  0.1425
  183SLPC  H13X21061   0.880   3.143   9.334 -1.7919  0.3813  0.3534
  183SLPC  H13Y21062   0.751   3.021   9.358 -0.1886 -0.5112 -2.3441
  183SLPC  C31421063   0.860   2.994   9.183 -0.8596  0.2908  0.1581
  183SLPC  H14X21064   0.810   2.895   9.179 -0.3565  0.0547 -0.3107
  183SLPC  H14Y21065   0.965   2.970   9.157 -0.0306 -0.4998  3.6379
  183SLPC  C31521066   0.781   3.094   9.095 -0.0236 -0.5899 -0.1622
  183SLPC  H15X21067   0.845   3.172   9.049 -1.5991 -0.0570 -1.5497
  183SLPC  H15Y21068   0.712   3.150   9.162 -1.9603 -0.9368 -1.7581
  183SLPC  C31621069   0.689   3.035   8.985  0.2796 -0.2426 -0.1549
  183SLPC  H16X21070   0.619   3.113   8.947 -1.4642 -1.2670  0.7968
  183SLPC  H16Y21071   0.633   2.957   9.041 -0.9692  0.8907  0.2369
  183SLPC  C31721072   0.769   2.967   8.869  0.1925  0.3619 -0.3080
  183SLPC  H17X21073   0.832   2.885   8.910  0.0093  0.4247  0.1002
  183SLPC  H17Y21074   0.836   3.051   8.842  1.8417 -0.2119  1.7297
  183SLPC  C31821075   0.679   2.899   8.773  0.5549  0.9725  0.1183
  183SLPC  H18X21076   0.614   2.974   8.722 -1.1582 -0.7161 -0.3116
  183SLPC  H18Y21077   0.615   2.831   8.833 -0.3977  3.6171  2.3146
  183SLPC  H18Z21078   0.723   2.854   8.681 -3.0929 -0.3952 -1.1319
  184SLPC     N21079   2.547   0.123  10.668  0.5529  0.0031 -0.1173
  184SLPC   C1321080   2.399   0.167  10.665 -0.3729  0.1263  0.6485
  184SLPC  H13A21081   2.339   0.091  10.616 -0.0494 -0.3811  1.0283
  184SLPC  H13B21082   2.351   0.157  10.762 -0.5938  0.0103  0.5282
  184SLPC  H13C21083   2.376   0.262  10.620  1.9383  0.9329  1.0601
  184SLPC   C1421084   2.545  -0.023  10.707 -0.1514  0.5014 -0.7323
  184SLPC  H14A21085   2.484  -0.084  10.641 -1.0859 -0.8054  1.2473
  184SLPC  H14B21086   2.645  -0.063  10.709  0.0399  0.9778 -0.5155
  184SLPC  H14C21087   2.500  -0.036  10.804 -0.9444 -0.2476 -1.1868
  184SLPC   C1521088   2.628   0.202  10.768 -0.5587  0.0736  0.2657
  184SLPC  H15A21089   2.581   0.204  10.865 -0.1931 -2.4529  0.5826
  184SLPC  H15B21090   2.733   0.179  10.776 -0.4364  0.4994 -0.0632
  184SLPC  H15C21091   2.618   0.306  10.741 -0.9924  0.5038  1.9681
  184SLPC   C1221092   2.603   0.148  10.528 -0.2113 -0.2737 -0.1129
  184SLPC  H12A21093   2.559   0.081  10.456 -0.9931  0.2870 -0.1757
  184SLPC  H12B21094   2.708   0.123  10.524 -0.0283  0.5458 -1.9033
  184SLPC   C1121095   2.594   0.279  10.457  0.1562  0.3091  0.0414
  184SLPC  H11A21096   2.619   0.355  10.535  5.4305 -2.0751  1.1338
  184SLPC  H11B21097   2.492   0.294  10.416  1.0326  0.4478 -2.2013
  184SLPC     P21098   2.837   0.319  10.394 -0.1914 -0.0626 -0.1288
  184SLPC   O1321099   2.838   0.463  10.409  0.0107 -0.4482 -0.0743
  184SLPC   O1421100   2.888   0.236  10.508  0.5090 -0.1668 -0.1912
  184SLPC   O1221101   2.694   0.273  10.351  0.4356  0.0680 -0.6583
  184SLPC   O1121102   2.927   0.281  10.268  0.3487 -0.6268 -0.1415
  184SLPC    C121103   2.919   0.360  10.144  0.6666 -0.5886 -0.3269
  184SLPC    HA21104   2.828   0.326  10.091 -0.0316  0.1223  0.3982
  184SLPC    HB21105   2.920   0.470  10.156 -0.1556 -0.5286 -0.7696
  184SLPC    C221106   3.041   0.342  10.045  0.3502  0.1521  0.5804
  184SLPC    HS21107   3.020   0.419   9.967 -1.1299  1.2212  1.9782
  184SLPC   O2121108   3.041   0.214   9.981  0.2959  0.3228  0.4825
  184SLPC   C2121109   2.946   0.186   9.893 -0.3008  0.0339  0.5745
  184SLPC   O2221110   2.854   0.256   9.866  0.8845 -0.0795  0.1194
  184SLPC   C2221111   2.961   0.039   9.847 -0.3459  0.8885 -0.3575
  184SLPC   H2R21112   3.058  -0.000   9.883 -1.1679  1.0153  2.2007
  184SLPC   H2S21113   2.878  -0.019   9.892  0.4835 -0.7971 -0.9160
  184SLPC    C321114   3.178   0.366  10.113  0.0316  0.5797 -0.0229
  184SLPC    HX21115   3.203   0.290  10.189  1.6829 -0.5045 -1.5745
  184SLPC    HY21116   3.174   0.465  10.163  1.1943 -0.2886  1.8692
  184SLPC   O3121117   3.286   0.375  10.024  0.2397  0.3624 -0.6045
  184SLPC   C3121118   3.344   0.261  10.000 -0.0028 -0.4613  1.1478
  184SLPC   O3221119   3.331   0.156  10.053 -0.0435  0.0820 -0.4192
  184SLPC   C3221120   3.426   0.275   9.868  0.3079  0.3152  0.0014
  184SLPC   H2X21121   3.514   0.342   9.878  0.0153  0.8628 -0.9032
  184SLPC   H2Y21122   3.352   0.309   9.792 -1.0132  1.5138  1.7429
  184SLPC   C2321123   2.949   0.033   9.690  1.0231  0.2381  0.2940
  184SLPC   H3R21124   2.853   0.081   9.663  1.5481  0.7181 -0.8020
  184SLPC   H3S21125   2.930  -0.071   9.655 -1.5042  0.6218  0.3996
  184SLPC   C2421126   3.067   0.079   9.603  0.0019 -0.2998 -0.1371
  184SLPC   H4R21127   3.164   0.032   9.631  0.5549  0.5867 -0.5244
  184SLPC   H4S21128   3.082   0.188   9.615 -4.4750  0.5354 -0.2428
  184SLPC   C2521129   3.049   0.055   9.454 -0.4007 -0.3463 -0.0226
  184SLPC   H5R21130   2.957   0.111   9.430 -0.6865  0.1719  2.1114
  184SLPC   H5S21131   3.030  -0.052   9.428 -0.2434 -0.1598 -0.9260
  184SLPC   C2621132   3.160   0.121   9.382 -0.1931 -0.3375 -0.0481
  184SLPC   H6R21133   3.187   0.065   9.290  4.1519  0.3843  0.6009
  184SLPC   H6S21134   3.251   0.120   9.445 -0.0223 -0.0405 -0.2889
  184SLPC   C2721135   3.130   0.267   9.351  0.3716 -0.2446 -0.1062
  184SLPC   H7R21136   3.090   0.326   9.436 -1.8862 -0.2038 -1.1119
  184SLPC   H7S21137   3.054   0.274   9.270  1.7694 -3.5181 -1.9350
  184SLPC   C2821138   3.247   0.340   9.286 -0.0631  0.1516  0.3856
  184SLPC   H8R21139   3.201   0.410   9.213  1.8445 -0.4749 -1.5369
  184SLPC   H8S21140   3.296   0.262   9.224 -1.6244  0.6798 -1.6235
  184SLPC   C2921141   3.335   0.408   9.387  0.6287 -0.1635 -0.3564
  184SLPC   H9R21142   3.368   0.341   9.467  1.2170 -0.1067 -0.5531
  184SLPC  C21021143   3.346   0.543   9.398 -0.9614  0.5302  1.2976
  184SLPC  H10R21144   3.417   0.581   9.473  1.0942  1.4670 -0.9755
  184SLPC  C21121145   3.307   0.661   9.300  0.7886  0.7870 -0.3108
  184SLPC  H11R21146   3.284   0.618   9.201 -0.0318 -0.2696  0.3143
  184SLPC  H11S21147   3.387   0.738   9.290  0.8958  0.4483 -2.5269
  184SLPC  C21221148   3.178   0.714   9.356 -0.0484  0.2356  0.5053
  184SLPC  H12R21149   3.112   0.654   9.420 -1.0429 -1.4625 -1.9140
  184SLPC  C21321150   3.150   0.846   9.340  0.1700 -0.0835 -0.2810
  184SLPC  H13R21151   3.060   0.889   9.387  0.9046 -1.3824  2.5673
  184SLPC  C21421152   3.227   0.950   9.267 -0.3821  0.2909  0.3994
  184SLPC  H14R21153   3.182   0.978   9.169  2.2456 -0.2307 -1.0584
  184SLPC  H14S21154   3.333   0.918   9.255  0.0925  2.1670 -0.9725
  184SLPC  C21521155   3.240   1.085   9.340 -0.6858  0.6879 -0.0108
  184SLPC  H15R21156   3.143   1.139   9.349 -0.7327  0.7516 -0.7968
  184SLPC  H15S21157   3.299   1.145   9.269  0.4717  0.6519  0.8991
  184SLPC  C21621158   3.307   1.080   9.481  1.1380 -0.3763  0.1757
  184SLPC  H16R21159   3.219   1.044   9.540  0.5072  0.6392 -0.1388
  184SLPC  H16S21160   3.328   1.186   9.505  2.8157 -0.5168 -0.5629
  184SLPC  C21721161   3.442   1.003   9.492 -0.5148 -0.2037  0.3853
  184SLPC  H17R21162   3.433   0.906   9.441 -0.8018 -1.5926  2.8926
  184SLPC  H17S21163   3.470   0.981   9.598 -0.7943 -0.9784  0.2984
  184SLPC  C21821164   3.547   1.091   9.413 -0.4778  0.3834  0.2934
  184SLPC  H18R21165   3.578   1.186   9.462 -1.8594  0.5561  0.8808
  184SLPC  H18S21166   3.507   1.108   9.311 -0.3070 -0.3717  0.0965
  184SLPC  H18T21167   3.642   1.039   9.390 -0.2495  1.1781 -0.6007
  184SLPC   C3321168   3.483   0.144   9.816  0.0958 -0.2623  0.2843
  184SLPC   H3X21169   3.420   0.053   9.831  0.0535 -0.5095 -1.2516
  184SLPC   H3Y21170   3.577   0.114   9.867  1.8689  3.8350 -0.1724
  184SLPC   C3421171   3.504   0.164   9.668 -0.6627  0.2728  0.1663
  184SLPC   H4X21172   3.581   0.243   9.649 -0.1352  0.1147  1.5578
  184SLPC   H4Y21173   3.412   0.201   9.616 -0.0336  0.0078 -1.1935
  184SLPC   C3521174   3.544   0.031   9.602  0.5512 -0.2986  0.5074
  184SLPC   H5X21175   3.470  -0.046   9.632  0.0629  0.4820  1.3714
  184SLPC   H5Y21176   3.648   0.006   9.631  0.4996 -1.0889  0.0500
  184SLPC   C3621177   3.544   0.039   9.448 -0.4556  0.1106 -0.0406
  184SLPC   H6X21178   3.611   0.122   9.417 -0.4464 -0.0014 -0.3196
  184SLPC   H6Y21179   3.441   0.074   9.428 -1.0370 -0.0662  2.2672
  184SLPC   C3721180   3.574  -0.099   9.388 -0.3833 -0.4594 -0.3474
  184SLPC   H7X21181   3.494  -0.161   9.435  0.5654 -0.9920  0.6273
  184SLPC   H7Y21182   3.674  -0.127   9.426 -0.6217  2.5261  3.0884
  184SLPC   C3821183   3.564  -0.105   9.232  0.4186 -0.7239 -0.9110
  184SLPC   H8X21184   3.464  -0.069   9.198  0.5981  1.3300  0.5421
  184SLPC   H8Y21185   3.581  -0.211   9.206  0.3308 -1.1295  0.5665
  184SLPC   C3921186   3.669  -0.022   9.163  0.3609  0.3590  0.4036
  184SLPC   H9X21187   3.775  -0.035   9.193  1.4188 -1.7087 -3.6286
  184SLPC   H9Y21188   3.648   0.084   9.188 -1.6065 -0.3623  2.0979
  184SLPC  C31021189   3.672  -0.040   9.010  0.6076 -1.1233  0.4762
  184SLPC  H10X21190   3.657  -0.146   8.981  1.7747 -0.7051 -1.9898
  184SLPC  H10Y21191   3.762   0.015   8.974 -1.1311  0.5778 -1.5809
  184SLPC  C31121192   3.557   0.049   8.943  0.0932 -0.6747  0.2545
  184SLPC  H11X21193   3.569   0.158   8.963  1.4698 -0.5010 -1.3158
  184SLPC  H11Y21194   3.466   0.022   9.001  1.1124 -1.4308  1.5484
  184SLPC  C31221195   3.532   0.022   8.792 -0.1192 -0.4964 -0.4702
  184SLPC  H12X21196   3.451   0.092   8.763  1.8049  2.1336  0.1142
  184SLPC  H12Y21197   3.506  -0.085   8.774 -0.9917 -0.1699 -1.1874
  184SLPC  C31321198   3.650   0.057   8.700 -0.2096  0.8113 -0.4590
  184SLPC  H13X21199   3.733  -0.005   8.740  0.1670  1.3896 -0.3307
  184SLPC  H13Y21200   3.663   0.168   8.699  0.8043  0.7240  0.8646
  184SLPC  C31421201   3.629   0.014   8.550 -0.5832  0.5971 -0.2651
  184SLPC  H14X21202   3.624  -0.096   8.548  0.5894  0.5270 -0.2569
  184SLPC  H14Y21203   3.719   0.037   8.487  1.8473  1.9507  3.3733
  184SLPC  C31521204   3.505   0.085   8.502 -0.3333 -0.0651  0.1099
  184SLPC  H15X21205   3.512   0.194   8.522 -0.2388  0.3387 -1.8923
  184SLPC  H15Y21206   3.417   0.052   8.561 -1.4626  1.8849 -0.3784
  184SLPC  C31621207   3.488   0.070   8.349  0.2627  0.3129 -0.7306
  184SLPC  H16X21208   3.478  -0.038   8.323  0.7264  0.5019 -1.7571
  184SLPC  H16Y21209   3.586   0.093   8.301  1.1168 -0.8074  0.3936
  184SLPC  C31721210   3.378   0.139   8.261  0.3587  0.3481 -0.7147
  184SLPC  H17X21211   3.410   0.245   8.267 -0.4491  0.5583  0.1182
  184SLPC  H17Y21212   3.280   0.142   8.313 -0.3023  2.5476 -1.9585
  184SLPC  C31821213   3.373   0.083   8.117 -0.2533 -0.3148 -0.0246
  184SLPC  H18X21214   3.338  -0.023   8.115 -2.5855  0.4028 -0.2996
  184SLPC  H18Y21215   3.471   0.102   8.067 -1.4407 -1.1026 -2.8689
  184SLPC  H18Z21216   3.301   0.145   8.060  1.0771 -1.1896 -2.8849
  185SLPC     N21217   2.353   4.663   6.087  0.4218 -0.1262 -0.3137
  185SLPC   C1321218   2.386   4.797   6.030  0.1862  0.0380  0.0586
  185SLPC  H13A21219   2.326   4.876   6.071  0.8050  0.9980 -0.8255
  185SLPC  H13B21220   2.488   4.824   6.056  0.0199 -0.7121  1.5849
  185SLPC  H13C21221   2.369   4.799   5.923  0.3515  1.5603  0.0368
  185SLPC   C1421222   2.431   4.559   6.013  0.1650 -1.0563 -0.6160
  185SLPC  H14A21223   2.373   4.548   5.922 -2.3209 -1.5645  0.9474
  185SLPC  H14B21224   2.535   4.585   6.000  0.0509  0.4410  1.1381
  185SLPC  H14C21225   2.431   4.465   6.067  2.4952 -0.8919 -0.2302
  185SLPC   C1521226   2.203   4.643   6.067 -0.4797 -0.1511 -0.3625
  185SLPC  H15A21227   2.171   4.648   5.964  0.5195  0.5689 -0.6534
  185SLPC  H15B21228   2.179   4.547   6.109  0.7730 -1.0218 -1.5500
  185SLPC  H15C21229   2.159   4.719   6.131 -0.2231  0.8530 -1.3501
  185SLPC   C1221230   2.396   4.657   6.237 -0.3537 -1.0251  1.0805
  185SLPC  H12A21231   2.490   4.709   6.241  0.2301 -2.0498  0.8925
  185SLPC  H12B21232   2.413   4.555   6.265 -1.4417 -1.7470 -0.6972
  185SLPC   C1121233   2.311   4.727   6.341 -0.5685  0.1494  0.3950
  185SLPC  H11A21234   2.346   4.699   6.443 -0.4966 -1.4228 -0.0306
  185SLPC  H11B21235   2.211   4.679   6.335 -0.2774 -0.8311  2.6349
  185SLPC     P21236   2.405   4.973   6.353 -0.0374 -0.0291 -0.1580
  185SLPC   O1321237   2.511   4.958   6.261 -0.9619  0.6969  0.2773
  185SLPC   O1421238   2.351   5.109   6.354  0.3999 -0.2516  0.5117
  185SLPC   O1221239   2.287   4.864   6.313 -0.2078 -0.1129 -0.0164
  185SLPC   O1121240   2.454   4.926   6.503  0.1449 -0.9409  0.9291
  185SLPC    C121241   2.573   4.844   6.511 -0.2856 -0.2358 -0.6344
  185SLPC    HA21242   2.546   4.736   6.506 -3.2725  0.1697  2.9369
  185SLPC    HB21243   2.648   4.867   6.431  1.8998  2.2952  1.9132
  185SLPC    C221244   2.655   4.869   6.647 -0.3700 -0.4166 -0.3149
  185SLPC    HS21245   2.757   4.824   6.648 -0.8189 -1.4630 -0.3935
  185SLPC   O2121246   2.578   4.825   6.760  0.0063  0.1256  0.0384
  185SLPC   C2121247   2.567   4.692   6.766  0.7796  0.0975 -0.4985
  185SLPC   O2221248   2.616   4.615   6.687  0.2470  0.4952 -0.3338
  185SLPC   C2221249   2.488   4.664   6.893  0.2509  0.3708 -0.0291
  185SLPC   H2R21250   2.387   4.633   6.859  0.7022 -1.3236  0.0453
  185SLPC   H2S21251   2.532   4.578   6.949 -1.2547  0.7085  1.7764
  185SLPC    C321252   2.683   5.028   6.661 -0.1000 -0.9624 -0.1132
  185SLPC    HX21253   2.593   5.087   6.634  0.9171 -0.2146 -2.1399
  185SLPC    HY21254   2.757   5.045   6.579  0.7757  0.5125  0.9298
  185SLPC   O3121255   2.745   5.061   6.786 -0.2107  0.3051 -0.1461
  185SLPC   C3121256   2.675   5.127   6.877 -0.2776  0.4278 -0.7879
  185SLPC   O3221257   2.556   5.133   6.869  0.9293 -0.0923 -0.1049
  185SLPC   C3221258   2.762   5.176   6.994  0.2626  0.3123  0.4658
  185SLPC   H2X21259   2.782   5.282   6.970  1.0234 -0.0583 -0.5866
  185SLPC   H2Y21260   2.852   5.111   6.989  0.1436  0.1745  0.0986
  185SLPC   C2321261   2.469   4.778   6.998 -0.2086 -0.1145 -0.1585
  185SLPC   H3R21262   2.424   4.867   6.947 -1.1399  0.3720  1.4492
  185SLPC   H3S21263   2.568   4.813   7.032 -1.7603  3.7202  0.9681
  185SLPC   C2421264   2.399   4.740   7.128 -0.4751  0.1436 -0.9326
  185SLPC   H4R21265   2.444   4.642   7.155  1.8902  0.7828 -2.2737
  185SLPC   H4S21266   2.288   4.745   7.127 -0.4787 -0.0120 -1.5810
  185SLPC   C2521267   2.440   4.846   7.240  0.4904 -0.6141  0.5566
  185SLPC   H5R21268   2.452   4.948   7.198  1.6937 -1.2722 -0.7870
  185SLPC   H5S21269   2.542   4.821   7.275  0.2230 -0.0101  1.8224
  185SLPC   C2621270   2.356   4.841   7.367 -0.0162  0.4045 -0.0722
  185SLPC   H6R21271   2.345   4.735   7.398  1.5861 -0.2977 -1.7115
  185SLPC   H6S21272   2.253   4.878   7.346 -0.5002 -0.8649 -0.0119
  185SLPC   C2721273   2.409   4.918   7.491  0.0106 -0.2025 -0.5293
  185SLPC   H7R21274   2.404   5.025   7.459 -1.3653  0.1721  0.8407
  185SLPC   H7S21275   2.510   4.880   7.516 -0.4546 -0.6731  0.6945
  185SLPC   C2821276   2.326   4.908   7.626  0.0222 -0.2077  0.3328
  185SLPC   H8R21277   2.223   4.944   7.610  0.4049  0.7894  0.0388
  185SLPC   H8S21278   2.369   4.987   7.691 -0.4086 -0.2995  0.7369
  185SLPC   C2921279   2.333   4.770   7.691 -0.1936  0.2093  0.9237
  185SLPC   H9R21280   2.267   4.693   7.648 -2.1020  3.1607 -1.9604
  185SLPC  C21021281   2.428   4.747   7.790 -0.2513  0.8629  0.3239
  185SLPC  H10R21282   2.441   4.642   7.821 -0.8697  0.8029  0.3920
  185SLPC  C21121283   2.540   4.831   7.846 -0.4092 -0.6226  0.2536
  185SLPC  H11R21284   2.581   4.899   7.768 -0.0516 -2.4384 -1.2101
  185SLPC  H11S21285   2.624   4.761   7.861 -1.0345 -1.5095 -0.2455
  185SLPC  C21221286   2.493   4.912   7.966  0.2794  0.6455  0.0981
  185SLPC  H12R21287   2.410   4.980   7.944  0.4353  0.9988  0.5972
  185SLPC  C21321288   2.555   4.914   8.087  0.0676 -0.3379 -0.2165
  185SLPC  H13R21289   2.514   4.979   8.165  1.1186  0.4044 -0.2672
  185SLPC  C21421290   2.676   4.837   8.135 -0.3902 -0.0146 -0.0497
  185SLPC  H14R21291   2.716   4.763   8.062 -2.4292 -1.8942  0.6223
  185SLPC  H14S21292   2.638   4.789   8.228  0.2521  2.0397  1.3418
  185SLPC  C21521293   2.800   4.933   8.177  0.0665  0.4872 -0.1863
  185SLPC  H15R21294   2.821   4.996   8.088  0.4366 -1.2970 -1.4103
  185SLPC  H15S21295   2.888   4.869   8.197 -0.8909 -0.9217 -0.3947
  185SLPC  C21621296   2.773   5.036   8.295  0.1557 -0.2463 -0.2743
  185SLPC  H16R21297   2.708   5.114   8.250  2.2488  1.4522 -0.5187
  185SLPC  H16S21298   2.868   5.089   8.316  0.1900 -0.5017  0.2111
  185SLPC  C21721299   2.700   4.983   8.415  0.1482 -0.6498 -0.6318
  185SLPC  H17R21300   2.595   4.959   8.388  0.0153  0.4747 -1.1955
  185SLPC  H17S21301   2.695   5.058   8.497 -1.3200  1.0812 -2.2066
  185SLPC  C21821302   2.785   4.866   8.482 -0.0144 -0.0395 -0.0396
  185SLPC  H18R21303   2.812   4.794   8.402 -1.8644  0.4356 -1.1676
  185SLPC  H18S21304   2.739   4.820   8.572 -1.1349  0.2745 -0.4238
  185SLPC  H18T21305   2.886   4.901   8.512  0.0374  0.0998 -0.3679
  185SLPC   C3321306   2.699   5.154   7.137  0.3293 -0.2272 -0.3551
  185SLPC   H3X21307   2.688   5.045   7.155 -0.9987 -0.5247 -2.6499
  185SLPC   H3Y21308   2.601   5.206   7.146  1.5741  2.1994  0.1818
  185SLPC   C3421309   2.798   5.216   7.237  0.0409  0.2718 -0.0503
  185SLPC   H4X21310   2.769   5.323   7.226  2.8344  1.1065  0.0618
  185SLPC   H4Y21311   2.905   5.202   7.212  0.0022 -1.4970  0.6504
  185SLPC   C3521312   2.777   5.182   7.383  0.2523 -0.1773  0.2111
  185SLPC   H5X21313   2.668   5.192   7.402 -0.2042 -3.7920  0.3276
  185SLPC   H5Y21314   2.834   5.244   7.455  2.2613 -1.0781 -0.5443
  185SLPC   C3621315   2.816   5.039   7.406 -0.3063 -0.2005  0.7250
  185SLPC   H6X21316   2.921   5.029   7.371 -0.3840  0.8674  0.1621
  185SLPC   H6Y21317   2.760   4.973   7.336  1.4709 -2.4371  1.2892
  185SLPC   C3721318   2.813   4.995   7.551 -0.2659 -0.7816 -0.0146
  185SLPC   H7X21319   2.842   4.888   7.548 -0.0262 -0.9311  3.4997
  185SLPC   H7Y21320   2.712   4.994   7.599  0.3661  0.1856  1.4037
  185SLPC   C3821321   2.906   5.068   7.648 -0.0220  0.4908  0.0077
  185SLPC   H8X21322   2.861   5.166   7.675 -1.3215  0.2431 -1.1628
  185SLPC   H8Y21323   3.000   5.085   7.590 -0.7662 -0.0043 -1.3874
  185SLPC   C3921324   2.939   4.997   7.778  0.8471  0.8688  0.2140
  185SLPC   H9X21325   2.970   4.893   7.749  0.7818  1.5624 -2.7129
  185SLPC   H9Y21326   2.856   4.980   7.849  3.0197 -0.9274  2.5286
  185SLPC  C31021327   3.056   5.062   7.854 -0.0810  0.1618 -0.2510
  185SLPC  H10X21328   3.136   5.089   7.782 -0.7905  3.3383 -0.0005
  185SLPC  H10Y21329   3.097   4.981   7.919 -1.9132 -2.8980 -2.5976
  185SLPC  C31121330   3.001   5.185   7.933  0.3466 -0.5762  0.1640
  185SLPC  H11X21331   2.894   5.168   7.956 -0.0527 -0.2349 -1.3213
  185SLPC  H11Y21332   3.005   5.274   7.866 -0.4856  0.2205  1.1229
  185SLPC  C31221333   3.085   5.216   8.056  0.3409 -0.8121 -0.7916
  185SLPC  H12X21334   3.080   5.121   8.113 -2.3462 -0.7030 -0.7009
  185SLPC  H12Y21335   3.028   5.290   8.117 -2.4526 -0.9470 -3.0613
  185SLPC  C31321336   3.231   5.251   8.052  0.1008 -0.4389  0.1344
  185SLPC  H13X21337   3.257   5.345   8.000  0.8786  0.3326  1.8402
  185SLPC  H13Y21338   3.291   5.170   8.006  1.5473  0.8023 -0.2540
  185SLPC  C31421339   3.283   5.267   8.201  1.2738  0.5670  0.2833
  185SLPC  H14X21340   3.238   5.186   8.262 -1.9297  2.6584  0.9666
  185SLPC  H14Y21341   3.218   5.353   8.229 -0.5941  0.3400 -2.8137
  185SLPC  C31521342   3.429   5.304   8.241 -0.1472  0.5105 -0.0465
  185SLPC  H15X21343   3.465   5.378   8.166 -1.4937 -1.1849 -2.4972
  185SLPC  H15Y21344   3.490   5.215   8.217 -0.6710  0.1969 -0.2397
  185SLPC  C31621345   3.451   5.346   8.382  0.1202 -0.2126 -0.4790
  185SLPC  H16X21346   3.362   5.406   8.412 -0.9642 -2.4435  1.0606
  185SLPC  H16Y21347   3.540   5.412   8.394 -0.1834  0.3526 -1.2464
  185SLPC  C31721348   3.457   5.234   8.481 -0.2984  0.6420 -0.2295
  185SLPC  H17X21349   3.562   5.199   8.477 -0.5225 -0.1629  0.3952
  185SLPC  H17Y21350   3.390   5.148   8.456 -0.1859  0.6173 -0.4448
  185SLPC  C31821351   3.420   5.272   8.619 -0.3282  0.4409 -0.5941
  185SLPC  H18X21352   3.484   5.356   8.655  0.7476 -0.4063 -0.4842
  185SLPC  H18Y21353   3.433   5.183   8.685  0.3625  2.0029  1.5154
  185SLPC  H18Z21354   3.314   5.303   8.624 -0.8453 -0.0613 -4.8229
  186SLPC     N21355   2.048   0.115   6.181 -0.6943  0.5432  0.0225
  186SLPC   C1321356   2.144   0.003   6.168  0.8498 -0.2810 -0.6209
  186SLPC  H13A21357   2.242   0.036   6.198  0.7669 -1.1719  0.7066
  186SLPC  H13B21358   2.119  -0.085   6.225  2.4826 -0.4166 -0.0583
  186SLPC  H13C21359   2.160  -0.037   6.069  2.3624 -1.4587  0.0587
  186SLPC   C1421360   1.922   0.053   6.132  0.4824 -0.3114 -0.2396
  186SLPC  H14A21361   1.856   0.133   6.101  0.9148  1.0703  2.1721
  186SLPC  H14B21362   1.933   0.009   6.034  2.8744 -0.5861  0.1042
  186SLPC  H14C21363   1.873  -0.016   6.198 -1.3731  0.9249 -0.2372
  186SLPC   C1521364   2.087   0.222   6.090 -0.3487  0.2114  1.0183
  186SLPC  H15A21365   2.185   0.258   6.119 -0.0420 -0.1128  0.3999
  186SLPC  H15B21366   2.107   0.192   5.988  0.1739 -0.0403  1.1882
  186SLPC  H15C21367   2.020   0.306   6.088 -1.7074 -0.8408 -1.5601
  186SLPC   C1221368   2.039   0.165   6.324  0.2116 -0.0755 -0.2388
  186SLPC  H12A21369   1.985   0.098   6.389  2.5158 -1.2438  0.5573
  186SLPC  H12B21370   1.980   0.255   6.312 -0.4799 -0.4447  0.3291
  186SLPC   C1121371   2.176   0.209   6.392  0.0789 -0.3984 -0.1067
  186SLPC  H11A21372   2.234   0.114   6.391 -0.1844 -0.5550 -0.5881
  186SLPC  H11B21373   2.178   0.240   6.499  0.5853  0.1771 -0.2743
  186SLPC     P21374   2.219   0.457   6.330  0.0339 -0.7415 -0.5342
  186SLPC   O1321375   2.280   0.531   6.219 -0.4929 -0.0090  0.3635
  186SLPC   O1421376   2.071   0.488   6.347  0.2045 -0.5187 -1.1593
  186SLPC   O1221377   2.245   0.303   6.317 -0.4989  0.5212  0.2800
  186SLPC   O1121378   2.295   0.507   6.464  0.0558  0.0912 -0.3965
  186SLPC    C121379   2.344   0.640   6.467 -1.6021  0.4075  0.5052
  186SLPC    HA21380   2.422   0.641   6.388  0.0329 -0.6714  2.0384
  186SLPC    HB21381   2.261   0.710   6.443 -2.4616  0.2723  2.8841
  186SLPC    C221382   2.399   0.691   6.597 -0.3863 -0.4225  0.0364
  186SLPC    HS21383   2.510   0.681   6.593 -0.4377 -1.0297  0.0991
  186SLPC   O2121384   2.343   0.623   6.710  0.0024  0.1731  0.5097
  186SLPC   C2121385   2.427   0.612   6.821  0.6029  0.7076  0.4251
  186SLPC   O2221386   2.544   0.644   6.826  0.6746  0.0860  0.4227
  186SLPC   C2221387   2.354   0.519   6.927 -0.1746 -0.4428 -0.1276
  186SLPC   H2R21388   2.286   0.451   6.871 -0.4425  0.8950 -1.5097
  186SLPC   H2S21389   2.433   0.467   6.985  1.1116 -1.3107 -2.4891
  186SLPC    C321390   2.360   0.844   6.607  0.2671 -0.6629  0.0579
  186SLPC    HX21391   2.249   0.852   6.611  0.3117 -0.4725  0.9520
  186SLPC    HY21392   2.394   0.898   6.516 -0.4824 -1.0036 -0.4394
  186SLPC   O3121393   2.419   0.914   6.725  0.1822  0.3170 -0.0891
  186SLPC   C3121394   2.342   0.995   6.795  0.0173  0.0631 -0.7790
  186SLPC   O3221395   2.218   0.997   6.790 -0.0692  0.0750 -0.2867
  186SLPC   C3221396   2.424   1.088   6.886 -0.7254 -0.3102  0.1067
  186SLPC   H2X21397   2.434   1.182   6.828 -0.4152 -1.6310 -2.0963
  186SLPC   H2Y21398   2.525   1.042   6.894 -1.3182 -1.6525  0.2379
  186SLPC   C2321399   2.268   0.604   7.033 -0.8810 -0.4960  0.6240
  186SLPC   H3R21400   2.330   0.685   7.075  1.1268 -1.6016 -0.0684
  186SLPC   H3S21401   2.244   0.546   7.124  1.0279  0.5176  1.8187
  186SLPC   C2421402   2.135   0.640   6.972  0.7737  0.0534  0.0615
  186SLPC   H4R21403   2.086   0.543   6.953 -0.2665 -0.3274  3.7925
  186SLPC   H4S21404   2.144   0.696   6.876 -1.0378  0.8609  0.3217
  186SLPC   C2521405   2.053   0.729   7.067 -0.3272  0.3868  0.7746
  186SLPC   H5R21406   2.094   0.830   7.090 -0.1276  0.2823  0.8820
  186SLPC   H5S21407   2.041   0.674   7.163 -1.5006 -1.4148 -0.3464
  186SLPC   C2621408   1.918   0.761   7.003  0.0439  0.6151  0.4209
  186SLPC   H6R21409   1.875   0.665   6.966  0.6794  1.4009 -2.6294
  186SLPC   H6S21410   1.933   0.833   6.920 -1.5553  0.0833 -0.3808
  186SLPC   C2721411   1.815   0.829   7.094  0.0718 -0.5315 -1.1716
  186SLPC   H7R21412   1.767   0.756   7.163 -0.4206  0.0066 -0.9316
  186SLPC   H7S21413   1.729   0.865   7.033  0.1971  1.7551 -0.0865
  186SLPC   C2821414   1.870   0.945   7.179  0.7761 -0.3810 -0.6687
  186SLPC   H8R21415   1.953   0.923   7.249 -0.1403  0.5518  0.7458
  186SLPC   H8S21416   1.794   0.991   7.244 -1.4119 -0.7270 -2.8154
  186SLPC   C2921417   1.902   1.070   7.097  0.4160 -0.2170  0.5805
  186SLPC   H9R21418   1.893   1.046   6.990  0.0049  1.3332  0.2288
  186SLPC  C21021419   1.943   1.191   7.138  0.2942 -0.1798 -0.6969
  186SLPC  H10R21420   1.962   1.267   7.061 -1.5325 -0.0070 -1.0216
  186SLPC  C21121421   1.959   1.242   7.281  0.1242  0.6583  0.4217
  186SLPC  H11R21422   2.043   1.179   7.318  1.0065  1.8506  0.5034
  186SLPC  H11S21423   1.873   1.196   7.334  0.7042 -1.0368 -0.0447
  186SLPC  C21221424   1.980   1.386   7.288  0.0628 -0.0274  0.4237
  186SLPC  H12R21425   1.909   1.447   7.229  0.9145 -1.7153 -2.5704
  186SLPC  C21321426   2.077   1.446   7.357  0.5786  0.1741 -0.4350
  186SLPC  H13R21427   2.085   1.556   7.354 -0.4039  0.3592  1.6501
  186SLPC  C21421428   2.189   1.388   7.435 -0.4820  0.6146  0.1335
  186SLPC  H14R21429   2.288   1.427   7.400 -0.8766  2.3087  0.7883
  186SLPC  H14S21430   2.195   1.278   7.425 -2.5009  0.6481 -2.3732
  186SLPC  C21521431   2.187   1.422   7.581 -0.2424  0.5946 -0.8950
  186SLPC  H15R21432   2.089   1.384   7.617 -0.0119 -0.8696 -1.7501
  186SLPC  H15S21433   2.189   1.532   7.595 -1.6752  0.5749 -0.3577
  186SLPC  C21621434   2.297   1.352   7.658 -0.3826 -0.7742 -0.2566
  186SLPC  H16R21435   2.396   1.397   7.637 -0.7172 -0.3393 -0.9656
  186SLPC  H16S21436   2.308   1.245   7.630  0.2184 -0.5865 -0.7563
  186SLPC  C21721437   2.279   1.369   7.813 -0.0261 -0.5791 -0.1034
  186SLPC  H17R21438   2.280   1.476   7.844 -3.4464 -0.8352  1.2179
  186SLPC  H17S21439   2.373   1.325   7.852 -0.9703 -1.9222  0.7221
  186SLPC  C21821440   2.165   1.289   7.870 -0.4381  0.2750 -0.2018
  186SLPC  H18R21441   2.196   1.247   7.969  0.5637 -0.8585 -0.9696
  186SLPC  H18S21442   2.139   1.209   7.797 -0.9716  2.5261 -2.6069
  186SLPC  H18T21443   2.071   1.348   7.877 -1.5351 -1.5752  1.7708
  186SLPC   C3321444   2.376   1.125   7.025 -0.6934 -0.3106 -0.5674
  186SLPC   H3X21445   2.270   1.159   7.023 -0.8724 -0.4206  2.4156
  186SLPC   H3Y21446   2.446   1.196   7.074  0.0206 -2.1676  1.2558
  186SLPC   C3421447   2.365   0.999   7.115 -0.4134 -0.4607  0.2031
  186SLPC   H4X21448   2.469   0.973   7.147  0.1311  1.5774  0.1934
  186SLPC   H4Y21449   2.326   0.919   7.048 -1.7800  0.8059 -0.5687
  186SLPC   C3521450   2.284   1.007   7.235 -0.0953  0.2877  0.2312
  186SLPC   H5X21451   2.183   1.038   7.200 -0.6790 -0.4653  1.1763
  186SLPC   H5Y21452   2.324   1.086   7.302  3.1001  0.4813 -1.7248
  186SLPC   C3621453   2.268   0.882   7.312 -0.3227 -0.1749  0.1320
  186SLPC   H6X21454   2.267   0.801   7.236  2.0693  0.5094 -0.7221
  186SLPC   H6Y21455   2.170   0.891   7.364 -0.0528 -1.9806  1.0366
  186SLPC   C3721456   2.377   0.863   7.418  0.0313 -0.1482 -0.1886
  186SLPC   H7X21457   2.479   0.845   7.378  0.5460 -1.4580  1.5747
  186SLPC   H7Y21458   2.351   0.781   7.488  0.5471  0.5231  0.8178
  186SLPC   C3821459   2.393   0.982   7.515 -0.1839 -0.3712 -0.5473
  186SLPC   H8X21460   2.292   1.013   7.550  0.0503  0.5949 -0.6990
  186SLPC   H8Y21461   2.444   1.066   7.465 -0.0735  0.2270  0.5287
  186SLPC   C3921462   2.481   0.944   7.632  0.0225  0.1736 -0.2237
  186SLPC   H9X21463   2.578   0.903   7.598 -1.1914 -0.7067 -2.8789
  186SLPC   H9Y21464   2.436   0.856   7.682  1.1542  0.0366  0.6118
  186SLPC  C31021465   2.507   1.051   7.738  0.0897  0.0073  0.3431
  186SLPC  H10X21466   2.424   1.119   7.707  1.4751  2.0937  1.0652
  186SLPC  H10Y21467   2.589   1.123   7.720  0.9740 -0.7712  1.1533
  186SLPC  C31121468   2.510   1.003   7.883 -0.3889  0.4068  0.2187
  186SLPC  H11X21469   2.440   0.917   7.890  0.4308 -0.2237  0.9602
  186SLPC  H11Y21470   2.477   1.085   7.951 -0.1977  1.2097 -0.6475
  186SLPC  C31221471   2.642   0.961   7.937  0.7891 -0.0750  0.7612
  186SLPC  H12X21472   2.713   1.045   7.922 -2.9349  3.3948  0.8065
  186SLPC  H12Y21473   2.681   0.868   7.890 -1.8244 -1.1608  0.6124
  186SLPC  C31321474   2.638   0.936   8.088  1.3793 -0.3067  0.3631
  186SLPC  H13X21475   2.570   0.853   8.119  1.0563  0.3540  1.4623
  186SLPC  H13Y21476   2.599   1.024   8.143 -2.1110 -2.6007  1.9333
  186SLPC  C31421477   2.780   0.912   8.130  0.0185  0.1528 -0.6941
  186SLPC  H14X21478   2.853   0.992   8.105 -0.9512  0.4174 -2.9354
  186SLPC  H14Y21479   2.807   0.836   8.053 -1.0581 -0.0877 -0.8548
  186SLPC  C31521480   2.807   0.835   8.260 -0.1476  0.1474  0.6301
  186SLPC  H15X21481   2.900   0.777   8.248 -1.4766 -1.9745 -0.0383
  186SLPC  H15Y21482   2.732   0.754   8.272  1.4648 -1.6930 -1.0020
  186SLPC  C31621483   2.829   0.927   8.384 -0.2451  0.1211  0.3588
  186SLPC  H16X21484   2.729   0.953   8.425  0.2118  0.8364  1.0457
  186SLPC  H16Y21485   2.875   1.019   8.344 -1.6158  0.6903  0.0245
  186SLPC  C31721486   2.902   0.852   8.494  0.4342  0.0051  0.1171
  186SLPC  H17X21487   3.010   0.848   8.469  0.1264  1.0027 -1.5226
  186SLPC  H17Y21488   2.855   0.752   8.509 -0.6172  0.6767  1.4318
  186SLPC  C31821489   2.886   0.926   8.629  0.4337 -0.8291  0.0431
  186SLPC  H18X21490   2.913   1.032   8.612 -1.3941  0.2529  3.1789
  186SLPC  H18Y21491   2.956   0.879   8.702 -0.8461 -1.6406  0.7811
  186SLPC  H18Z21492   2.781   0.925   8.665  1.1152  0.3986  2.1903
  187SLPC     N21493   3.953   4.907   6.116  0.3345 -0.1107 -0.7145
  187SLPC   C1321494   3.968   5.047   6.071 -0.5126 -0.8317 -0.0043
  187SLPC  H13A21495   4.071   5.062   6.043 -0.2492  0.8096  1.6623
  187SLPC  H13B21496   3.906   5.076   5.989  2.2752 -0.7839 -2.2556
  187SLPC  H13C21497   3.942   5.116   6.150 -2.7835  1.9884 -2.9650
  187SLPC   C1421498   4.007   4.894   6.262 -0.2409  0.2213  0.5382
  187SLPC  H14A21499   3.974   4.964   6.338  2.0360  0.2647  1.5710
  187SLPC  H14B21500   3.979   4.794   6.293  0.7413 -0.3071 -0.2469
  187SLPC  H14C21501   4.115   4.895   6.254 -0.1948  0.1151  1.0617
  187SLPC   C1521502   4.039   4.819   6.019 -0.0647 -0.1870 -0.6275
  187SLPC  H15A21503   4.027   4.714   6.041 -3.8555  0.5638  1.6464
  187SLPC  H15B21504   4.012   4.834   5.915  3.2581 -0.9412 -1.7384
  187SLPC  H15C21505   4.143   4.843   6.036  0.4895 -2.5053 -0.4848
  187SLPC   C1221506   3.802   4.870   6.095 -0.1062  0.1639 -0.2572
  187SLPC  H12A21507   3.774   4.918   6.002 -3.1033  1.7146  1.3236
  187SLPC  H12B21508   3.749   4.930   6.167  1.2590 -1.0189  1.8491
  187SLPC   C1121509   3.762   4.718   6.100  0.3272 -0.1370 -0.5258
  187SLPC  H11A21510   3.832   4.647   6.052  1.9610  0.9971  0.0952
  187SLPC  H11B21511   3.660   4.712   6.056 -0.8497 -0.0433  2.0545
  187SLPC     P21512   3.652   4.743   6.330  0.2569  0.7132  0.0577
  187SLPC   O1321513   3.675   4.885   6.340 -0.2143  0.0207  0.4286
  187SLPC   O1421514   3.514   4.689   6.315  0.4187  0.0011 -0.3107
  187SLPC   O1221515   3.758   4.682   6.230  0.1914 -0.1090 -0.2294
  187SLPC   O1121516   3.692   4.680   6.467  0.0686 -0.6461  0.4563
  187SLPC    C121517   3.767   4.560   6.477  0.7509  0.1916  0.5059
  187SLPC    HA21518   3.725   4.482   6.409 -0.7664  2.4468 -1.3266
  187SLPC    HB21519   3.874   4.573   6.448  0.9206 -0.4612  0.8352
  187SLPC    C221520   3.760   4.504   6.626  0.2774  0.5302 -0.5577
  187SLPC    HS21521   3.649   4.506   6.640  0.0138  2.6980 -2.4321
  187SLPC   O2121522   3.819   4.598   6.711  0.5263  0.1882 -0.0300
  187SLPC   C2121523   3.763   4.610   6.837 -0.8100  0.0218  0.5075
  187SLPC   O2221524   3.662   4.555   6.870 -0.0495 -0.3715 -0.0043
  187SLPC   C2221525   3.859   4.682   6.925  0.1770 -0.2417 -0.6222
  187SLPC   H2R21526   3.862   4.791   6.903  2.5180 -0.2275 -0.4251
  187SLPC   H2S21527   3.819   4.667   7.027  2.3088 -1.0933  0.1509
  187SLPC    C321528   3.823   4.369   6.638  0.2493  0.0174  0.5427
  187SLPC    HX21529   3.931   4.373   6.613  0.6446  1.9629  2.2192
  187SLPC    HY21530   3.777   4.299   6.565 -0.0412  2.2760 -1.5496
  187SLPC   O3121531   3.806   4.318   6.773  0.1164  0.2288  0.0184
  187SLPC   C3121532   3.684   4.267   6.804  0.4543 -1.2019 -0.0144
  187SLPC   O3221533   3.588   4.280   6.730  0.5327 -0.1507 -0.3720
  187SLPC   C3221534   3.695   4.185   6.932  0.2068  0.2938 -0.8625
  187SLPC   H2X21535   3.797   4.199   6.975 -1.1562  1.3486  2.2752
  187SLPC   H2Y21536   3.674   4.080   6.901  0.3578 -0.3091  0.9488
  187SLPC   C2321537   4.007   4.632   6.929  0.5837  0.8998  0.6040
  187SLPC   H3R21538   4.085   4.697   6.975  6.0543 -3.0218 -2.0146
  187SLPC   H3S21539   4.030   4.630   6.821 -0.5817 -2.8268  0.3150
  187SLPC   C2421540   4.036   4.498   6.993  0.7567 -0.1336 -0.2994
  187SLPC   H4R21541   4.147   4.494   7.004  0.7135  0.5703  0.4490
  187SLPC   H4S21542   4.016   4.417   6.920  1.8489  1.3189 -2.3100
  187SLPC   C2521543   3.984   4.478   7.135  0.1732  0.6055  0.0700
  187SLPC   H5R21544   3.885   4.427   7.134 -0.5742  2.0147 -1.2881
  187SLPC   H5S21545   3.957   4.578   7.174 -1.8799  0.1369 -0.0715
  187SLPC   C2621546   4.081   4.401   7.220 -0.1610  0.1544 -0.0837
  187SLPC   H6R21547   4.179   4.454   7.227  1.4835 -2.8088  0.7977
  187SLPC   H6S21548   4.118   4.303   7.184  3.0264  1.0597  0.4078
  187SLPC   C2721549   4.037   4.382   7.364 -0.0328 -0.3839  0.0304
  187SLPC   H7R21550   3.940   4.329   7.352 -0.0126 -1.0868  2.4028
  187SLPC   H7S21551   4.000   4.478   7.405  0.8255 -0.4609  1.0197
  187SLPC   C2821552   4.138   4.308   7.446 -0.2772 -0.1721  0.5782
  187SLPC   H8R21553   4.220   4.382   7.457 -1.0875  0.8189  0.0922
  187SLPC   H8S21554   4.180   4.227   7.383  0.5720  1.0464 -0.4703
  187SLPC   C2921555   4.095   4.268   7.587 -0.0456  0.0029 -0.3879
  187SLPC   H9R21556   4.049   4.352   7.640  1.1180  0.4825 -0.1129
  187SLPC  C21021557   4.103   4.139   7.643 -0.2474 -0.1858 -0.4331
  187SLPC  H10R21558   4.087   4.123   7.751  1.7273 -0.4364 -0.1248
  187SLPC  C21121559   4.161   4.012   7.583 -0.4948  0.3545 -0.3087
  187SLPC  H11R21560   4.262   3.996   7.627 -0.8810 -1.1626  0.0847
  187SLPC  H11S21561   4.170   4.019   7.473  1.8498  2.0756 -0.1024
  187SLPC  C21221562   4.074   3.888   7.623  0.0890 -0.7374 -0.1530
  187SLPC  H12R21563   4.024   3.844   7.536  0.6525 -0.5019 -0.5997
  187SLPC  C21321564   4.061   3.820   7.733  1.0599 -0.3322  0.6390
  187SLPC  H13R21565   3.983   3.742   7.733  0.7248 -0.0103 -0.1735
  187SLPC  C21421566   4.131   3.843   7.865 -0.6496 -0.2459  0.2200
  187SLPC  H14R21567   4.209   3.922   7.865 -1.0582  0.1590 -0.1658
  187SLPC  H14S21568   4.179   3.747   7.893 -0.0445 -0.4847 -1.5583
  187SLPC  C21521569   4.029   3.890   7.977  0.3051  0.3325  0.6597
  187SLPC  H15R21570   3.944   3.818   7.987  0.1916  0.5718  1.4982
  187SLPC  H15S21571   3.989   3.990   7.951 -0.5263 -0.4738 -1.3700
  187SLPC  C21621572   4.095   3.905   8.117  0.0519  0.4233  0.6419
  187SLPC  H16R21573   4.181   3.972   8.095  0.0221 -0.3295 -2.2088
  187SLPC  H16S21574   4.136   3.809   8.155  0.1269  0.5539  0.8895
  187SLPC  C21721575   4.016   3.991   8.215 -0.5931  0.1825  0.3841
  187SLPC  H17R21576   3.924   3.934   8.240  0.4155 -1.4098  0.5836
  187SLPC  H17S21577   3.998   4.093   8.175 -1.2848  0.5171  1.4996
  187SLPC  C21821578   4.085   4.000   8.354 -0.3465  0.9218 -0.7206
  187SLPC  H18R21579   4.114   3.899   8.391 -0.6148  0.2066 -2.3489
  187SLPC  H18S21580   4.013   4.035   8.431  0.8880  0.4656  0.6897
  187SLPC  H18T21581   4.173   4.066   8.363  1.8200 -2.0446  2.8006
  187SLPC   C3321582   3.594   4.241   7.026  0.0846 -0.0808  1.6731
  187SLPC   H3X21583   3.490   4.204   7.014 -0.0151  0.1118  1.9448
  187SLPC   H3Y21584   3.588   4.351   7.012 -4.1461 -0.1199  2.0257
  187SLPC   C3421585   3.628   4.226   7.181 -0.1097 -0.3216  0.3803
  187SLPC   H4X21586   3.729   4.269   7.194 -0.9819  2.0320 -0.1858
  187SLPC   H4Y21587   3.627   4.122   7.220  1.2047 -0.2657  0.5988
  187SLPC   C3521588   3.547   4.317   7.275 -0.4809  0.5007 -0.1670
  187SLPC   H5X21589   3.439   4.292   7.278  0.0942 -2.4505 -0.5775
  187SLPC   H5Y21590   3.544   4.418   7.230 -2.2490 -0.3870 -2.2531
  187SLPC   C3621591   3.616   4.306   7.411 -0.6366  0.1704 -0.3097
  187SLPC   H6X21592   3.725   4.327   7.401 -0.8250  0.5707 -1.7899
  187SLPC   H6Y21593   3.612   4.210   7.466  0.1465  1.2879  1.7918
  187SLPC   C3721594   3.555   4.410   7.504  0.0929  0.1958  0.1081
  187SLPC   H7X21595   3.565   4.505   7.448 -0.4547  0.6060  0.6963
  187SLPC   H7Y21596   3.444   4.400   7.513 -0.0776  1.1162 -0.7856
  187SLPC   C3821597   3.619   4.435   7.639 -0.1418 -0.3128  0.1942
  187SLPC   H8X21598   3.539   4.486   7.698 -0.6434  0.3287 -0.9955
  187SLPC   H8Y21599   3.711   4.496   7.629 -0.6849  0.5699  0.4119
  187SLPC   C3921600   3.654   4.305   7.704 -0.2347  1.2306 -0.5038
  187SLPC   H9X21601   3.732   4.248   7.650 -2.3013 -1.7596 -0.6298
  187SLPC   H9Y21602   3.574   4.228   7.700  1.2121 -0.4902  1.4003
  187SLPC  C31021603   3.697   4.326   7.850  0.1924 -0.5625 -0.6326
  187SLPC  H10X21604   3.771   4.409   7.853  0.4499 -0.8128  0.0564
  187SLPC  H10Y21605   3.746   4.230   7.877 -0.8468 -0.9581 -0.0981
  187SLPC  C31121606   3.578   4.346   7.948 -0.3617  0.1369  0.1088
  187SLPC  H11X21607   3.543   4.248   7.987  1.3223 -0.8245 -0.6762
  187SLPC  H11Y21608   3.492   4.399   7.903  0.0332  0.1839 -0.6061
  187SLPC  C31221609   3.623   4.423   8.081 -0.2191 -1.1287  0.1590
  187SLPC  H12X21610   3.530   4.432   8.142  0.6003  1.4259  1.1647
  187SLPC  H12Y21611   3.656   4.524   8.050 -3.7904 -0.0876 -0.8083
  187SLPC  C31321612   3.723   4.342   8.155 -0.0171  0.1356  0.6721
  187SLPC  H13X21613   3.811   4.317   8.092 -0.1486 -0.3560  0.6796
  187SLPC  H13Y21614   3.665   4.252   8.185 -0.5816  0.6353  1.1123
  187SLPC  C31421615   3.770   4.418   8.277  0.0718 -0.3115 -0.0971
  187SLPC  H14X21616   3.682   4.435   8.343 -1.5752 -0.5163 -2.1252
  187SLPC  H14Y21617   3.812   4.519   8.257  2.9828 -1.2531  0.7402
  187SLPC  C31521618   3.880   4.345   8.346 -0.1695 -0.2573  0.3677
  187SLPC  H15X21619   3.959   4.336   8.269 -0.8708  4.9224 -1.3515
  187SLPC  H15Y21620   3.853   4.249   8.396 -1.3988 -0.4586 -0.6257
  187SLPC  C31621621   3.965   4.437   8.438  0.0813 -0.0247  0.2359
  187SLPC  H16X21622   3.895   4.475   8.515 -0.4328  0.8638 -0.6512
  187SLPC  H16Y21623   3.987   4.527   8.376 -2.2829  1.0475  0.8317
  187SLPC  C31721624   4.093   4.369   8.491  0.7760 -0.1236  0.5119
  187SLPC  H17X21625   4.144   4.317   8.406  1.8029  2.2019 -0.3902
  187SLPC  H17Y21626   4.058   4.295   8.566  0.7873 -1.4443 -0.7331
  187SLPC  C31821627   4.200   4.467   8.554 -0.3905 -0.3367  0.2669
  187SLPC  H18X21628   4.304   4.431   8.541 -0.9070 -1.9572  0.4316
  187SLPC  H18Y21629   4.170   4.506   8.654 -1.7516 -2.1524  0.6144
  187SLPC  H18Z21630   4.199   4.553   8.485  2.0655 -0.8394 -0.4878
  188SLPC     N21631   4.376   0.033   6.055  0.0064  0.0449  0.1594
  188SLPC   C1321632   4.370   0.016   5.907  0.4129  0.0447 -0.3359
  188SLPC  H13A21633   4.468   0.018   5.861  0.8240 -2.7832  0.1934
  188SLPC  H13B21634   4.333  -0.079   5.872 -0.9633 -0.3059  1.8677
  188SLPC  H13C21635   4.298   0.083   5.863  1.4346  4.3710  3.7094
  188SLPC   C1421636   4.433   0.166   6.085  0.2751  0.0851  0.5288
  188SLPC  H14A21637   4.367   0.248   6.063 -0.3859  0.3106  3.0315
  188SLPC  H14B21638   4.466   0.164   6.188  1.9864 -3.1305  0.0516
  188SLPC  H14C21639   4.528   0.182   6.036  0.1128 -1.2183 -0.2425
  188SLPC   C1521640   4.467  -0.072   6.100  0.5808 -0.2725 -0.2622
  188SLPC  H15A21641   4.428  -0.167   6.067 -2.5557  0.6933  0.3477
  188SLPC  H15B21642   4.570  -0.067   6.067 -0.2070  1.9969 -2.7284
  188SLPC  H15C21643   4.468  -0.071   6.208 -0.7116 -0.5131 -0.2395
  188SLPC   C1221644   4.230   0.005   6.108  0.0323 -0.7971  0.4245
  188SLPC  H12A21645   4.214   0.030   6.212  0.5676  2.0711 -0.0856
  188SLPC  H12B21646   4.212  -0.100   6.094  1.0919 -0.9098 -0.2469
  188SLPC   C1121647   4.116   0.075   6.030 -0.8854  0.0124  0.1716
  188SLPC  H11A21648   4.022   0.016   6.028 -0.4802 -0.6249 -0.1313
  188SLPC  H11B21649   4.142   0.083   5.922  1.9256  2.0745  0.8872
  188SLPC     P21650   4.009   0.232   6.200  0.0173 -0.1772 -0.3096
  188SLPC   O1321651   3.963   0.376   6.206 -0.5104  0.4366 -0.2470
  188SLPC   O1421652   3.895   0.134   6.202 -0.1546  0.4286 -0.6884
  188SLPC   O1221653   4.100   0.209   6.080 -0.4300 -0.5822  0.1819
  188SLPC   O1121654   4.119   0.200   6.315  0.4020  0.4458 -0.4248
  188SLPC    C121655   4.215   0.285   6.368  0.9601 -0.1722 -0.1501
  188SLPC    HA21656   4.319   0.246   6.358  1.6678  1.5250  0.3010
  188SLPC    HB21657   4.209   0.377   6.306 -3.0579  0.3913  0.8299
  188SLPC    C221658   4.197   0.305   6.525  0.3956 -0.2695  0.3807
  188SLPC    HS21659   4.106   0.366   6.543  2.3587  2.4190  1.9625
  188SLPC   O2121660   4.315   0.376   6.570 -0.4092 -0.0419 -0.5696
  188SLPC   C2121661   4.326   0.502   6.537  0.0260 -0.0057 -0.6325
  188SLPC   O2221662   4.234   0.567   6.494 -0.0822 -0.9020  0.0566
  188SLPC   C2221663   4.462   0.556   6.549 -0.9076  0.7276  0.2310
  188SLPC   H2R21664   4.536   0.484   6.509  0.8967  2.9062 -0.6174
  188SLPC   H2S21665   4.475   0.650   6.491  0.9409  0.0872 -0.4687
  188SLPC    C321666   4.183   0.170   6.601 -0.1344 -0.1696  0.0155
  188SLPC    HX21667   4.280   0.117   6.611 -0.2491 -0.3175  0.3535
  188SLPC    HY21668   4.100   0.119   6.547 -0.5727 -2.2077  2.4619
  188SLPC   O3121669   4.144   0.214   6.730  0.1194 -0.0092  0.2267
  188SLPC   C3121670   4.084   0.111   6.794 -0.0462 -0.7362  0.2723
  188SLPC   O3221671   4.094  -0.006   6.758 -0.0633 -0.4998  0.5053
  188SLPC   C3221672   4.022   0.157   6.932  0.0230  0.2577  0.0369
  188SLPC   H2X21673   3.916   0.181   6.910 -0.0984 -1.8147 -1.9351
  188SLPC   H2Y21674   4.079   0.243   6.973  0.8579 -0.9284  1.4833
  188SLPC   C2321675   4.504   0.585   6.691 -0.9156  0.4248 -0.3091
  188SLPC   H3R21676   4.496   0.504   6.767  2.4445 -0.0949 -0.3852
  188SLPC   H3S21677   4.436   0.664   6.729 -0.7502  0.0671  0.7601
  188SLPC   C2421678   4.645   0.647   6.705 -1.0193 -0.1634  0.4544
  188SLPC   H4R21679   4.659   0.733   6.635 -3.9818  0.5338  0.6156
  188SLPC   H4S21680   4.724   0.574   6.676  1.0000  2.1422 -0.2222
  188SLPC   C2521681   4.682   0.700   6.850 -0.0822  0.1767  0.0262
  188SLPC   H5R21682   4.602   0.767   6.887  2.5707  3.0122  1.1124
  188SLPC   H5S21683   4.780   0.752   6.848  0.0341 -0.0678 -1.1553
  188SLPC   C2621684   4.704   0.591   6.955 -0.7291  0.2340 -0.1763
  188SLPC   H6R21685   4.778   0.514   6.923 -0.5833 -0.3854  1.5458
  188SLPC   H6S21686   4.604   0.544   6.956 -1.3180  0.9851 -4.2018
  188SLPC   C2721687   4.733   0.637   7.094 -0.4526 -0.7224 -0.8545
  188SLPC   H7R21688   4.671   0.722   7.130  0.2069 -1.0797  1.2969
  188SLPC   H7S21689   4.834   0.681   7.086 -1.3023  1.7154  0.6597
  188SLPC   C2821690   4.732   0.521   7.182  0.3070 -0.6552  0.2713
  188SLPC   H8R21691   4.811   0.462   7.131  0.5036  2.1759 -3.1702
  188SLPC   H8S21692   4.640   0.460   7.176  1.1715 -1.8866 -1.7080
  188SLPC   C2921693   4.761   0.576   7.321 -0.1495  0.8199  0.3891
  188SLPC   H9R21694   4.673   0.625   7.366 -1.1953  3.2959 -3.7190
  188SLPC  C21021695   4.888   0.587   7.377  0.3868  0.2508 -0.8204
  188SLPC  H10R21696   4.889   0.607   7.485  0.0812 -2.9194 -0.1211
  188SLPC  C21121697   5.022   0.547   7.317  0.1983  0.2787 -0.1249
  188SLPC  H11R21698   5.024   0.563   7.207  1.8488  0.1657 -0.1300
  188SLPC  H11S21699   5.047   0.441   7.335  0.4029  0.2356 -0.6345
  188SLPC  C21221700   5.145   0.624   7.368 -0.3532  0.4776 -0.2498
  188SLPC  H12R21701   5.157   0.717   7.310  0.4570  2.8533  3.3962
  188SLPC  C21321702   5.248   0.603   7.456  0.1948  0.6098  0.0517
  188SLPC  H13R21703   5.333   0.671   7.474  1.1345  0.0085 -1.8442
  188SLPC  C21421704   5.263   0.477   7.540 -0.1509  0.1353 -0.3964
  188SLPC  H14R21705   5.371   0.451   7.547 -0.2386 -0.4437 -1.1440
  188SLPC  H14S21706   5.208   0.395   7.489 -0.9018 -0.3984  1.1957
  188SLPC  C21521707   5.210   0.489   7.692 -0.2536 -0.4032  0.4184
  188SLPC  H15R21708   5.254   0.574   7.749 -0.1163 -1.7752  2.4348
  188SLPC  H15S21709   5.233   0.391   7.738  2.6211  0.4254  0.9443
  188SLPC  C21621710   5.064   0.505   7.701  0.4012  0.3923  0.5150
  188SLPC  H16R21711   5.035   0.414   7.645 -0.9050  1.8270 -1.2425
  188SLPC  H16S21712   5.018   0.593   7.651 -0.1829 -0.3034 -0.1908
  188SLPC  C21721713   4.992   0.501   7.840 -1.2669 -0.2718  0.1998
  188SLPC  H17R21714   5.029   0.590   7.895 -1.0904  0.9718 -1.8343
  188SLPC  H17S21715   5.032   0.410   7.890 -0.4728 -0.1122 -0.1348
  188SLPC  C21821716   4.842   0.487   7.844  0.4231  0.2897 -0.3686
  188SLPC  H18R21717   4.799   0.443   7.936  0.4227 -2.7468 -1.6838
  188SLPC  H18S21718   4.810   0.414   7.766 -0.9355  0.4317  0.0235
  188SLPC  H18T21719   4.795   0.586   7.829  1.8212  1.1249  0.5667
  188SLPC   C3321720   4.031   0.046   7.043 -0.4275  0.0748  0.4928
  188SLPC   H3X21721   3.970  -0.040   7.010 -0.8089  1.2002 -1.9560
  188SLPC   H3Y21722   3.998   0.072   7.146 -0.7145  0.4310  0.3171
  188SLPC   C3421723   4.175  -0.009   7.068 -0.0391  0.5531  0.6902
  188SLPC   H4X21724   4.237   0.076   7.103  2.0095 -1.3963  2.0666
  188SLPC   H4Y21725   4.214  -0.058   6.976  0.8365  1.1031  0.7600
  188SLPC   C3521726   4.180  -0.109   7.177 -0.3243  0.2661  0.2185
  188SLPC   H5X21727   4.285  -0.146   7.187 -0.5143  0.2676  3.2302
  188SLPC   H5Y21728   4.127  -0.202   7.146  2.1555 -1.1859  0.0151
  188SLPC   C3621729   4.145  -0.064   7.318 -0.2316 -0.3337 -0.0731
  188SLPC   H6X21730   4.036  -0.072   7.337 -0.0213 -0.5939  1.1049
  188SLPC   H6Y21731   4.164   0.044   7.334 -2.5449 -0.2924  3.2903
  188SLPC   C3721732   4.237  -0.135   7.425 -0.2833  0.2705 -0.1023
  188SLPC   H7X21733   4.342  -0.101   7.414 -0.1994  0.3907  0.9915
  188SLPC   H7Y21734   4.242  -0.243   7.399  2.3543  0.0874  0.9363
  188SLPC   C3821735   4.181  -0.111   7.562  0.3796 -0.0648 -1.0985
  188SLPC   H8X21736   4.075  -0.141   7.553  0.6939 -1.4383 -0.4003
  188SLPC   H8Y21737   4.209  -0.007   7.592  2.0168 -0.9383  0.5763
  188SLPC   C3921738   4.254  -0.210   7.661 -0.5312  0.1367  1.2720
  188SLPC   H9X21739   4.361  -0.226   7.637 -0.8411  1.3643 -1.2403
  188SLPC   H9Y21740   4.204  -0.309   7.656  0.1705 -0.1737 -1.2468
  188SLPC  C31021741   4.256  -0.165   7.809  0.1821  0.1094  1.1551
  188SLPC  H10X21742   4.157  -0.168   7.860  0.8277 -0.6713  2.4280
  188SLPC  H10Y21743   4.299  -0.062   7.810 -0.6001  0.4952 -0.9991
  188SLPC  C31121744   4.346  -0.253   7.894  0.0992  0.1530  0.0774
  188SLPC  H11X21745   4.446  -0.236   7.849  0.9310 -2.1230  0.9403
  188SLPC  H11Y21746   4.334  -0.363   7.880 -1.5581  0.2000  0.8432
  188SLPC  C31221747   4.338  -0.210   8.040  0.2130 -0.5192  0.7295
  188SLPC  H12X21748   4.239  -0.242   8.079  0.8520 -1.5528  1.5508
  188SLPC  H12Y21749   4.336  -0.099   8.037  0.4296 -0.5370 -0.3861
  188SLPC  C31321750   4.460  -0.256   8.121  0.4978 -0.4387  0.1422
  188SLPC  H13X21751   4.549  -0.196   8.094 -0.5902  1.5646  0.8338
  188SLPC  H13Y21752   4.476  -0.364   8.101 -1.3987 -0.5303 -1.2153
  188SLPC  C31421753   4.433  -0.251   8.267 -0.8785  0.1870  0.0650
  188SLPC  H14X21754   4.328  -0.284   8.282 -0.2494 -1.5472  0.9001
  188SLPC  H14Y21755   4.440  -0.153   8.320  0.0239  1.0200 -1.5189
  188SLPC  C31521756   4.524  -0.339   8.356  0.8939 -0.4063  0.6338
  188SLPC  H15X21757   4.624  -0.300   8.324  0.0203  0.7128 -0.8704
  188SLPC  H15Y21758   4.505  -0.446   8.335 -1.8615  0.2412 -0.5684
  188SLPC  C31621759   4.506  -0.307   8.507 -0.1121  0.0016 -0.3919
  188SLPC  H16X21760   4.517  -0.198   8.523 -1.5921  0.2239 -0.8273
  188SLPC  H16Y21761   4.581  -0.356   8.573 -0.4037  3.9094  3.3095
  188SLPC  C31721762   4.372  -0.349   8.576 -0.2365  0.2716 -0.7047
  188SLPC  H17X21763   4.358  -0.457   8.557  1.5496  0.1278 -1.3136
  188SLPC  H17Y21764   4.286  -0.293   8.532 -0.5640  0.6131  0.3212
  188SLPC  C31821765   4.382  -0.328   8.729 -0.3991 -0.0678  0.0479
  188SLPC  H18X21766   4.476  -0.372   8.770  0.7166  1.7440 -0.4638
  188SLPC  H18Y21767   4.300  -0.377   8.786 -0.0828 -1.7660 -0.8763
  188SLPC  H18Z21768   4.367  -0.225   8.768 -0.3188 -0.2443  0.5519
  189SLPC     N21769   6.021   2.025   5.977  0.6890 -0.1493 -0.7400
  189SLPC   C1321770   5.950   2.011   6.105 -0.9823 -0.6682 -0.0230
  189SLPC  H13A21771   5.852   1.965   6.096 -0.7085 -1.1150 -0.8399
  189SLPC  H13B21772   6.008   1.961   6.182  0.1159  1.2503  0.4606
  189SLPC  H13C21773   5.932   2.109   6.145  1.6525 -0.9136  2.0205
  189SLPC   C1421774   5.942   2.115   5.885  0.5617 -0.4433  0.3881
  189SLPC  H14A21775   5.965   2.220   5.893  1.7738 -0.5186 -1.4576
  189SLPC  H14B21776   5.957   2.078   5.785  1.6879 -1.1744  0.8109
  189SLPC  H14C21777   5.835   2.108   5.898  0.0453  1.5323 -2.1974
  189SLPC   C1521778   6.020   1.891   5.907 -0.4413  0.0974 -0.0684
  189SLPC  H15A21779   6.062   1.823   5.980 -0.9484  1.7618  1.8626
  189SLPC  H15B21780   5.918   1.860   5.888 -0.6834  0.0784  1.1719
  189SLPC  H15C21781   6.084   1.900   5.820 -0.0779  1.6409  0.3222
  189SLPC   C1221782   6.157   2.081   6.006  0.1726 -0.0492  0.6762
  189SLPC  H12A21783   6.138   2.177   6.050 -1.8951 -0.5402  0.9650
  189SLPC  H12B21784   6.203   2.092   5.909 -3.2438 -0.9688 -1.2456
  189SLPC   C1121785   6.247   1.993   6.097  0.2417  0.4977 -0.1559
  189SLPC  H11A21786   6.344   2.047   6.090  1.1279 -1.1106 -0.8411
  189SLPC  H11B21787   6.269   1.893   6.053  1.5942  0.5345  0.3661
  189SLPC     P21788   6.277   1.926   6.350 -0.0842  0.2754  0.0606
  189SLPC   O1321789   6.331   1.795   6.309 -0.1955 -0.1575 -0.4273
  189SLPC   O1421790   6.373   2.011   6.420 -0.0673 -0.0440  0.5240
  189SLPC   O1221791   6.203   2.002   6.234  0.7305 -0.0377  0.1264
  189SLPC   O1121792   6.150   1.893   6.449 -0.4809  0.1250 -0.3827
  189SLPC    C121793   6.096   1.993   6.531 -0.2398 -0.1476 -0.1673
  189SLPC    HA21794   6.119   2.095   6.492  0.3348  0.0698  0.7217
  189SLPC    HB21795   5.985   1.982   6.530 -0.3540  0.8241  0.5694
  189SLPC    C221796   6.142   1.983   6.684  0.0504  0.2586  0.6735
  189SLPC    HS21797   6.249   1.956   6.690  0.1541  0.2352 -0.8988
  189SLPC   O2121798   6.058   1.887   6.749 -0.2913 -0.4107 -0.1732
  189SLPC   C2121799   6.106   1.767   6.746  0.0565  0.7884 -0.2103
  189SLPC   O2221800   6.221   1.734   6.711  0.1260  0.7660 -1.0421
  189SLPC   C2221801   5.996   1.663   6.797 -0.2742  0.0534  0.1396
  189SLPC   H2R21802   5.907   1.681   6.732 -0.5965 -1.2176  0.1811
  189SLPC   H2S21803   6.046   1.565   6.781  0.7376  0.1000  2.5532
  189SLPC    C321804   6.115   2.121   6.751 -0.2369 -0.0612 -0.5628
  189SLPC    HX21805   6.013   2.161   6.736 -0.7282 -1.0005  0.2103
  189SLPC    HY21806   6.178   2.205   6.715 -0.0203 -0.7734 -1.8962
  189SLPC   O3121807   6.134   2.105   6.894  0.6482 -0.0600 -0.2866
  189SLPC   C3121808   6.019   2.104   6.975  0.2748 -0.5039 -0.9176
  189SLPC   O3221809   5.903   2.117   6.932 -0.3378  0.7670 -0.5820
  189SLPC   C3221810   6.061   2.101   7.126 -0.0919  0.2594 -0.1036
  189SLPC   H2X21811   6.114   2.196   7.151 -0.9367 -0.0002  3.2153
  189SLPC   H2Y21812   6.130   2.015   7.142 -1.2510 -0.2935  2.4550
  189SLPC   C2321813   5.970   1.681   6.944  0.5477 -0.4344  0.1838
  189SLPC   H3R21814   5.890   1.606   6.966 -1.0796  1.3320  0.5786
  189SLPC   H3S21815   5.953   1.786   6.977  1.3242 -1.2475  3.5839
  189SLPC   C2421816   6.098   1.642   7.016 -1.2134  0.3138  0.5239
  189SLPC   H4R21817   6.168   1.728   7.019 -2.1793  1.1048  1.2785
  189SLPC   H4S21818   6.161   1.573   6.957 -2.1889  1.0916 -1.5411
  189SLPC   C2521819   6.081   1.586   7.152 -0.0015 -0.0840 -0.8662
  189SLPC   H5R21820   6.165   1.523   7.189  0.3770  0.1496 -1.3339
  189SLPC   H5S21821   5.997   1.516   7.132  0.5559 -1.1667  0.4153
  189SLPC   C2621822   6.048   1.690   7.260  0.2313  0.0425 -0.0650
  189SLPC   H6R21823   5.959   1.750   7.230  1.7734  1.0554 -2.9360
  189SLPC   H6S21824   6.129   1.766   7.250  0.6413  0.0528  2.5533
  189SLPC   C2721825   6.035   1.635   7.399 -0.4946  0.1056  0.6254
  189SLPC   H7R21826   6.121   1.571   7.429  0.9011  0.8873 -1.4772
  189SLPC   H7S21827   5.936   1.585   7.403 -0.0829 -1.1878 -2.2735
  189SLPC   C2821828   6.022   1.748   7.509  0.5368 -0.3343 -0.0786
  189SLPC   H8R21829   5.959   1.690   7.580  2.3826  0.8421  2.7089
  189SLPC   H8S21830   5.953   1.827   7.473  1.5025  0.2549 -0.6716
  189SLPC   C2921831   6.148   1.804   7.561  0.3216  0.8203  0.1253
  189SLPC   H9R21832   6.200   1.858   7.481 -1.0843  2.8049  0.4720
  189SLPC  C21021833   6.191   1.791   7.684 -0.1385  0.2577 -0.0504
  189SLPC  H10R21834   6.294   1.824   7.702 -0.0499  0.2315 -0.5169
  189SLPC  C21121835   6.134   1.719   7.806 -0.5052 -0.1913 -0.1701
  189SLPC  H11R21836   6.199   1.632   7.833  1.0523  0.8301 -0.4808
  189SLPC  H11S21837   6.034   1.687   7.770  0.1245 -0.9277 -1.3340
  189SLPC  C21221838   6.117   1.805   7.928 -0.0246 -0.1826  0.8155
  189SLPC  H12R21839   6.021   1.858   7.921  1.1425  1.8648 -0.7974
  189SLPC  C21321840   6.189   1.827   8.036 -0.2076  0.0019 -0.0448
  189SLPC  H13R21841   6.147   1.888   8.117 -1.2929 -1.1928  0.3339
  189SLPC  C21421842   6.324   1.783   8.082  0.0513  0.4545 -0.2429
  189SLPC  H14R21843   6.390   1.873   8.094 -0.9431  0.9597  2.0859
  189SLPC  H14S21844   6.372   1.708   8.016 -2.6117 -3.1509  1.6250
  189SLPC  C21521845   6.314   1.702   8.215 -0.1190  0.6527  0.2965
  189SLPC  H15R21846   6.408   1.644   8.227  0.1027  1.2359  1.5149
  189SLPC  H15S21847   6.236   1.624   8.205  0.8304 -0.1913 -0.7956
  189SLPC  C21621848   6.285   1.778   8.348 -0.1421  0.2746 -0.2090
  189SLPC  H16R21849   6.319   1.718   8.436 -0.6856  0.3791  0.0783
  189SLPC  H16S21850   6.178   1.808   8.346 -0.9350 -2.2829 -0.9281
  189SLPC  C21721851   6.368   1.905   8.364  0.2694 -0.0446  0.8012
  189SLPC  H17R21852   6.350   1.971   8.276  2.8557 -1.0231 -0.5902
  189SLPC  H17S21853   6.474   1.872   8.363  0.7387  1.3774 -0.2778
  189SLPC  C21821854   6.332   1.980   8.491 -0.3342 -0.0773  0.5806
  189SLPC  H18R21855   6.333   1.904   8.573 -0.1052 -1.4606 -0.6603
  189SLPC  H18S21856   6.230   2.022   8.487 -0.2525  0.0630 -0.1020
  189SLPC  H18T21857   6.400   2.063   8.520  0.4794 -1.3347  2.5217
  189SLPC   C3321858   5.928   2.090   7.210 -0.6694 -0.6118  0.7041
  189SLPC   H3X21859   5.878   1.992   7.192 -2.0933  0.2091  0.0058
  189SLPC   H3Y21860   5.846   2.159   7.180 -0.3273 -1.2698 -2.1142
  189SLPC   C3421861   5.953   2.107   7.359 -0.2458  0.3853 -0.1238
  189SLPC   H4X21862   6.024   2.191   7.369 -0.8063  1.3420 -3.1765
  189SLPC   H4Y21863   5.994   2.015   7.406  1.6709  0.9008 -0.6847
  189SLPC   C3521864   5.834   2.156   7.439  0.7787  0.1491  1.1635
  189SLPC   H5X21865   5.774   2.071   7.477  1.8181 -0.4184  1.5745
  189SLPC   H5Y21866   5.775   2.227   7.377  0.7584 -2.4865 -2.1057
  189SLPC   C3621867   5.872   2.229   7.567  0.3694 -0.3562 -0.4603
  189SLPC   H6X21868   5.780   2.288   7.587  0.3911  0.1341 -1.7093
  189SLPC   H6Y21869   5.947   2.309   7.548 -1.9498  1.6225 -1.8930
  189SLPC   C3721870   5.916   2.129   7.678 -0.2828 -1.5876  0.2372
  189SLPC   H7X21871   6.006   2.070   7.653  0.5523 -0.0583 -0.4831
  189SLPC   H7Y21872   5.836   2.052   7.682 -1.4753 -0.5703 -1.9420
  189SLPC   C3821873   5.925   2.206   7.814  0.6708  0.0459  0.1645
  189SLPC   H8X21874   5.847   2.166   7.883 -0.1505 -2.1934 -1.9124
  189SLPC   H8Y21875   5.902   2.313   7.792  1.6149  0.3218  0.4635
  189SLPC   C3921876   6.069   2.197   7.875  0.3423 -0.2673 -0.6290
  189SLPC   H9X21877   6.145   2.233   7.801  1.1185 -1.5188 -0.4608
  189SLPC   H9Y21878   6.087   2.088   7.877  1.9804 -0.0045  0.3949
  189SLPC  C31021879   6.094   2.271   8.009 -0.1548 -0.9950  0.2204
  189SLPC  H10X21880   6.018   2.352   8.010  1.1875  0.3164 -0.1362
  189SLPC  H10Y21881   6.196   2.316   8.014  0.8018 -2.8231 -1.5676
  189SLPC  C31121882   6.087   2.183   8.135 -0.4181  0.0186 -0.4348
  189SLPC  H11X21883   6.177   2.119   8.132  0.6671  1.4841  0.0916
  189SLPC  H11Y21884   5.992   2.125   8.141  1.6846 -4.0416 -2.4707
  189SLPC  C31221885   6.110   2.266   8.271  0.4367  0.2517 -0.0430
  189SLPC  H12X21886   6.204   2.324   8.278  1.7777 -1.8948  0.7259
  189SLPC  H12Y21887   6.116   2.188   8.350 -0.9520 -0.6799 -0.8145
  189SLPC  C31321888   5.996   2.360   8.306 -0.2086  0.1962 -0.1903
  189SLPC  H13X21889   5.897   2.311   8.320  0.2051 -0.2346  1.5622
  189SLPC  H13Y21890   5.985   2.434   8.224 -0.6673 -0.7888 -1.0402
  189SLPC  C31421891   6.033   2.436   8.432  0.0766  0.1282  0.3578
  189SLPC  H14X21892   6.127   2.490   8.408 -0.2263  0.6479  0.3239
  189SLPC  H14Y21893   6.068   2.362   8.507  1.9896  1.3967  0.7953
  189SLPC  C31521894   5.940   2.536   8.491 -0.0432 -0.1199  0.6536
  189SLPC  H15X21895   5.942   2.625   8.426  0.0118 -0.3959  0.2739
  189SLPC  H15Y21896   5.974   2.554   8.596  0.9661  1.0343  0.1541
  189SLPC  C31621897   5.798   2.483   8.493 -0.4397 -0.5243  0.0659
  189SLPC  H16X21898   5.817   2.399   8.564 -0.2448  0.0728  0.7372
  189SLPC  H16Y21899   5.755   2.453   8.395  0.0325  0.7876 -0.5681
  189SLPC  C31721900   5.711   2.593   8.555 -0.2310 -0.2909 -0.5284
  189SLPC  H17X21901   5.715   2.688   8.498  2.1331  0.0764  0.1547
  189SLPC  H17Y21902   5.749   2.625   8.654  1.6282 -0.6145 -1.0912
  189SLPC  C31821903   5.564   2.555   8.552 -0.1239  0.9221  0.0502
  189SLPC  H18X21904   5.508   2.618   8.624 -0.8836  0.8630 -0.4828
  189SLPC  H18Y21905   5.535   2.457   8.594  1.7107  0.3963  0.1808
  189SLPC  H18Z21906   5.523   2.562   8.449  0.1559 -1.0980 -0.2344
  190SLPC     N21907   0.761   0.963   6.125 -0.2827 -0.0748 -0.7030
  190SLPC   C1321908   0.747   1.112   6.103  0.5049 -0.8506  0.7613
  190SLPC  H13A21909   0.823   1.150   6.037 -0.2150 -2.6148 -1.2182
  190SLPC  H13B21910   0.649   1.119   6.058  0.8443 -0.4646  0.0687
  190SLPC  H13C21911   0.732   1.174   6.191  1.8907 -0.9979  1.1210
  190SLPC   C1421912   0.879   0.946   6.212  0.7681 -0.5907 -0.7934
  190SLPC  H14A21913   0.904   0.843   6.230  0.2880 -0.8291 -1.4216
  190SLPC  H14B21914   0.968   0.992   6.170  0.4108  2.3972  1.4023
  190SLPC  H14C21915   0.861   0.987   6.310  2.0426 -0.5231 -0.5774
  190SLPC   C1521916   0.799   0.896   5.993 -0.0893 -0.0884 -0.5817
  190SLPC  H15A21917   0.834   0.795   6.007  3.2002  1.0685  0.4366
  190SLPC  H15B21918   0.719   0.903   5.920 -1.1500  1.3842  0.6725
  190SLPC  H15C21919   0.884   0.934   5.938 -0.3433 -0.2258 -1.0798
  190SLPC   C1221920   0.624   0.908   6.169 -0.2504  0.3633 -0.1058
  190SLPC  H12A21921   0.627   0.802   6.148 -0.3962 -0.0084  1.6121
  190SLPC  H12B21922   0.554   0.945   6.096 -0.7323 -0.6159 -0.1627
  190SLPC   C1121923   0.582   0.925   6.321 -0.6175  0.2634  0.3150
  190SLPC  H11A21924   0.473   0.900   6.325 -1.4973  3.1575 -2.0892
  190SLPC  H11B21925   0.591   1.032   6.351 -0.1079  0.0913  0.7982
  190SLPC     P21926   0.660   0.685   6.381  0.2093  0.3204  0.1552
  190SLPC   O1321927   0.563   0.644   6.274  0.1243 -0.2254  0.0638
  190SLPC   O1421928   0.798   0.632   6.378  0.2747  0.1141 -0.1626
  190SLPC   O1221929   0.659   0.840   6.405 -0.9686 -0.6712  0.4218
  190SLPC   O1121930   0.586   0.636   6.511 -0.1360  0.1052  0.1870
  190SLPC    C121931   0.457   0.677   6.559  0.6205 -0.4115 -0.7310
  190SLPC    HA21932   0.389   0.719   6.482 -2.4964 -1.1959  1.4247
  190SLPC    HB21933   0.403   0.584   6.583 -1.7096  0.9871 -0.2667
  190SLPC    C221934   0.479   0.782   6.679  0.2307  0.0917 -0.1387
  190SLPC    HS21935   0.390   0.772   6.744  1.0950 -3.0048  0.7546
  190SLPC   O2121936   0.489   0.916   6.639 -0.0297  0.3320 -0.0549
  190SLPC   C2121937   0.372   0.972   6.607 -0.7035  0.0014  0.0254
  190SLPC   O2221938   0.266   0.912   6.592 -0.3183  0.5648 -0.3664
  190SLPC   C2221939   0.389   1.124   6.611  0.2112  0.6822 -0.0984
  190SLPC   H2R21940   0.490   1.152   6.648  0.6204  0.1146 -0.7745
  190SLPC   H2S21941   0.382   1.160   6.506  1.5580  1.4868  0.0594
  190SLPC    C321942   0.604   0.734   6.756  0.0400 -0.1186  0.2590
  190SLPC    HX21943   0.687   0.730   6.682 -0.0865  0.6017  0.0732
  190SLPC    HY21944   0.586   0.628   6.785 -0.4171  0.0432  0.5901
  190SLPC   O3121945   0.629   0.813   6.877 -0.4508 -0.3743 -0.4171
  190SLPC   C3121946   0.731   0.890   6.889  0.2492 -0.0415  0.4382
  190SLPC   O3221947   0.828   0.894   6.819  0.2111 -0.2241  0.0432
  190SLPC   C3221948   0.710   0.968   7.021 -0.4064 -0.6983  0.2118
  190SLPC   H2X21949   0.651   0.900   7.087  0.4989 -0.5201  1.2406
  190SLPC   H2Y21950   0.638   1.051   7.004 -1.0270 -0.9356  1.5226
  190SLPC   C2321951   0.298   1.204   6.704 -0.4160  0.1972  0.5093
  190SLPC   H3R21952   0.195   1.163   6.703 -0.0158 -0.8453  0.8335
  190SLPC   H3S21953   0.287   1.309   6.667 -0.5701 -0.7702 -2.4312
  190SLPC   C2421954   0.343   1.192   6.852  0.6246 -0.3078  0.9247
  190SLPC   H4R21955   0.454   1.193   6.848  0.6064  0.2339  0.1899
  190SLPC   H4S21956   0.301   1.094   6.882 -0.8963 -0.5204 -1.5914
  190SLPC   C2521957   0.284   1.290   6.947  0.0577  0.0404 -0.0322
  190SLPC   H5R21958   0.173   1.289   6.946  0.0348 -0.2365 -2.0866
  190SLPC   H5S21959   0.311   1.394   6.916 -1.1343  0.2540 -0.4183
  190SLPC   C2621960   0.332   1.267   7.093 -0.1749 -0.2594  0.0784
  190SLPC   H6R21961   0.442   1.256   7.106  0.0665  0.1372 -1.4036
  190SLPC   H6S21962   0.288   1.171   7.128 -1.4456  1.3000  3.0167
  190SLPC   C2721963   0.276   1.373   7.198 -0.2520  0.2898 -0.9555
  190SLPC   H7R21964   0.165   1.376   7.192 -0.3332 -0.3869 -0.0641
  190SLPC   H7S21965   0.315   1.468   7.156  0.9120 -1.4165 -4.0327
  190SLPC   C2821966   0.323   1.340   7.348  0.4982 -0.7185 -0.4440
  190SLPC   H8R21967   0.328   1.436   7.402 -2.8364 -0.9136  0.3757
  190SLPC   H8S21968   0.430   1.307   7.348  0.6723 -0.2504 -1.9242
  190SLPC   C2921969   0.248   1.226   7.420 -0.5285 -0.5044 -0.4039
  190SLPC   H9R21970   0.230   1.135   7.360 -0.7429 -0.2385 -0.7447
  190SLPC  C21021971   0.209   1.233   7.547  1.0339 -0.9351  0.3529
  190SLPC  H10R21972   0.162   1.149   7.600 -0.7287  0.1054  0.5279
  190SLPC  C21121973   0.227   1.354   7.638 -0.0997  0.2914  0.3242
  190SLPC  H11R21974   0.164   1.322   7.724 -0.5379 -0.8236 -0.3906
  190SLPC  H11S21975   0.184   1.447   7.597 -1.1109 -1.2287 -2.2845
  190SLPC  C21221976   0.372   1.379   7.680  0.2256 -0.7321 -0.3159
  190SLPC  H12R21977   0.423   1.462   7.629 -1.3543 -0.9954 -2.4738
  190SLPC  C21321978   0.439   1.320   7.780 -0.2146  0.0230 -0.3673
  190SLPC  H13R21979   0.544   1.343   7.804 -0.5953 -0.3387  1.8550
  190SLPC  C21421980   0.385   1.213   7.869 -0.4748 -0.1857 -0.2819
  190SLPC  H14R21981   0.458   1.131   7.891  0.9658  1.1061 -0.0634
  190SLPC  H14S21982   0.297   1.165   7.822 -0.0260  0.8130 -2.2268
  190SLPC  C21521983   0.342   1.283   8.007 -0.3201 -0.3420 -0.2188
  190SLPC  H15R21984   0.283   1.375   7.987  0.2092  0.0624  0.0420
  190SLPC  H15S21985   0.433   1.301   8.069 -0.7406  1.8842 -0.1806
  190SLPC  C21621986   0.252   1.186   8.094  0.0063 -0.1964 -0.1243
  190SLPC  H16R21987   0.302   1.088   8.112  1.7494  0.3383 -1.7277
  190SLPC  H16S21988   0.151   1.181   8.048  0.0784 -0.8247 -0.2142
  190SLPC  C21721989   0.218   1.244   8.236 -0.5672  0.3208  0.5822
  190SLPC  H17R21990   0.144   1.188   8.296  1.2630 -1.8440  0.9415
  190SLPC  H17S21991   0.184   1.349   8.229  2.1916  1.2739 -0.0664
  190SLPC  C21821992   0.347   1.259   8.321  0.5672 -0.5739  0.1285
  190SLPC  H18R21993   0.318   1.287   8.425  2.9384 -2.3696  1.3750
  190SLPC  H18S21994   0.415   1.334   8.276 -1.8558  1.9575  0.3682
  190SLPC  H18T21995   0.400   1.162   8.329 -0.8649 -1.3726  0.4100
  190SLPC   C3321996   0.843   1.009   7.090 -0.1727 -0.4546  1.0929
  190SLPC   H3X21997   0.887   1.090   7.028 -0.1969 -0.4453  1.0876
  190SLPC   H3Y21998   0.915   0.926   7.089  1.9016  1.2536  1.2276
  190SLPC   C3421999   0.812   1.068   7.222 -0.0411 -0.0399 -0.1005
  190SLPC   H4X22000   0.779   0.996   7.300  1.1884 -0.1807  0.3126
  190SLPC   H4Y22001   0.733   1.147   7.215  0.1699  0.4741  2.3087
  190SLPC   C3522002   0.930   1.147   7.284  0.3315  0.4149  0.3262
  190SLPC   H5X22003   0.933   1.237   7.219 -0.6723  0.1214 -0.1492
  190SLPC   H5Y22004   1.021   1.085   7.272 -0.8801 -1.2769 -0.4785
  190SLPC   C3622005   0.897   1.181   7.431 -0.0938  0.2715  0.0530
  190SLPC   H6X22006   0.860   1.088   7.479  0.3001  0.3293  0.4782
  190SLPC   H6Y22007   0.814   1.254   7.433  2.2436  3.1260 -0.2273
  190SLPC   C3722008   1.017   1.236   7.503 -0.6298  0.1989  0.2129
  190SLPC   H7X22009   1.076   1.306   7.440  0.6120  1.7697  2.8991
  190SLPC   H7Y22010   1.097   1.168   7.540  0.8722  1.8149  0.0964
  190SLPC   C3822011   0.976   1.310   7.630  0.2266  0.1251  0.3354
  190SLPC   H8X22012   0.898   1.385   7.603 -0.9976 -0.0399  3.0595
  190SLPC   H8Y22013   1.069   1.361   7.662  1.4348 -0.5352 -1.9479
  190SLPC   C3922014   0.916   1.219   7.744  0.2127 -1.0345  0.1360
  190SLPC   H9X22015   0.989   1.143   7.777  2.1115  0.5701 -0.2093
  190SLPC   H9Y22016   0.831   1.169   7.691  0.0110 -0.3606 -0.1991
  190SLPC  C31022017   0.877   1.304   7.865  0.9680 -0.1325 -1.4649
  190SLPC  H10X22018   0.791   1.368   7.837  1.8974  0.7848 -2.3028
  190SLPC  H10Y22019   0.961   1.371   7.892  0.3781 -1.1038  3.6765
  190SLPC  C31122020   0.844   1.215   7.990 -0.4026  0.2059  0.0005
  190SLPC  H11X22021   0.926   1.142   7.999 -1.1744 -0.6542  0.1558
  190SLPC  H11Y22022   0.753   1.155   7.970  0.3616 -1.5088  1.4641
  190SLPC  C31222023   0.827   1.283   8.121  0.2518  0.1965  0.2848
  190SLPC  H12X22024   0.761   1.371   8.109  1.9073  1.7519  1.8831
  190SLPC  H12Y22025   0.928   1.317   8.155 -0.4976  1.7118  1.1048
  190SLPC  C31322026   0.777   1.204   8.243 -0.2031  0.3172 -0.1631
  190SLPC  H13X22027   0.849   1.123   8.262  0.2607  0.4846 -1.1513
  190SLPC  H13Y22028   0.685   1.149   8.213  0.5096 -1.1744  0.2913
  190SLPC  C31422029   0.756   1.299   8.360  0.1503  0.1125  0.0826
  190SLPC  H14X22030   0.678   1.372   8.331 -1.2112 -1.4055 -0.2113
  190SLPC  H14Y22031   0.854   1.350   8.372  1.5602 -1.7375 -2.6145
  190SLPC  C31522032   0.685   1.246   8.479  0.2173 -0.5446 -0.7742
  190SLPC  H15X22033   0.590   1.194   8.453 -2.0942  1.9231  1.9585
  190SLPC  H15Y22034   0.658   1.326   8.551 -0.8797 -2.6752  1.3213
  190SLPC  C31622035   0.776   1.154   8.555 -0.0427  0.9574 -0.9370
  190SLPC  H16X22036   0.861   1.216   8.588 -0.6141  0.8088  0.9281
  190SLPC  H16Y22037   0.799   1.067   8.490 -1.1884 -1.2693  1.4684
  190SLPC  C31722038   0.711   1.086   8.675 -0.4644 -0.0195 -0.7318
  190SLPC  H17X22039   0.776   1.003   8.712  1.0304  1.5708  0.4116
  190SLPC  H17Y22040   0.609   1.046   8.660 -0.4728 -0.3918  0.2446
  190SLPC  C31822041   0.695   1.180   8.794 -0.0525 -0.3380 -0.4146
  190SLPC  H18X22042   0.644   1.275   8.766 -1.2393 -0.6016  0.7594
  190SLPC  H18Y22043   0.800   1.201   8.823  1.0987 -1.2698 -3.5287
  190SLPC  H18Z22044   0.630   1.122   8.862 -0.0392 -2.1229 -1.8484
  191SLPC     N22045   6.304   3.946   5.604  0.4223  0.1100  0.5020
  191SLPC   C1322046   6.190   3.862   5.544 -0.3173 -0.5206 -0.2454
  191SLPC  H13A22047   6.201   3.765   5.590  1.3605 -0.2841 -0.0652
  191SLPC  H13B22048   6.092   3.898   5.571 -0.9758 -1.6827 -0.9912
  191SLPC  H13C22049   6.197   3.854   5.437 -0.3421 -0.2515 -0.2658
  191SLPC   C1422050   6.293   4.088   5.570 -0.1721  0.0635  0.3133
  191SLPC  H14A22051   6.295   4.106   5.463 -0.4203 -1.7030 -0.0201
  191SLPC  H14B22052   6.195   4.122   5.600 -0.2345  0.1910 -0.0293
  191SLPC  H14C22053   6.368   4.143   5.626 -1.2936  0.2830  1.6417
  191SLPC   C1522054   6.432   3.897   5.540  0.8375  0.3852  0.0574
  191SLPC  H15A22055   6.427   3.905   5.432 -1.0074 -2.0534 -0.1029
  191SLPC  H15B22056   6.506   3.965   5.582  0.1813  0.4661  1.1021
  191SLPC  H15C22057   6.456   3.796   5.569 -0.5854  0.2448  0.7996
  191SLPC   C1222058   6.296   3.940   5.760  0.4471 -0.2085  0.3037
  191SLPC  H12A22059   6.306   3.839   5.798  0.8364  0.1544  1.2084
  191SLPC  H12B22060   6.201   3.963   5.805  1.8469  2.7341  2.0504
  191SLPC   C1122061   6.397   4.033   5.832 -0.4263  0.4210 -0.3823
  191SLPC  H11A22062   6.386   4.017   5.942  2.4661 -0.0445 -0.0919
  191SLPC  H11B22063   6.365   4.136   5.805 -0.9110  0.1879 -0.7179
  191SLPC     P22064   6.630   4.124   5.779 -0.3297  0.0186 -0.3898
  191SLPC   O1322065   6.758   4.081   5.722  0.0096  0.1707  0.7135
  191SLPC   O1422066   6.554   4.221   5.698  0.2297  0.1138  0.1356
  191SLPC   O1222067   6.535   3.995   5.801  0.7312  0.0384 -0.6473
  191SLPC   O1122068   6.650   4.195   5.929  0.1352  0.6495 -0.1869
  191SLPC    C122069   6.694   4.111   6.035 -0.8485 -0.1827 -0.2702
  191SLPC    HA22070   6.600   4.065   6.074 -1.1119  1.5065  1.2145
  191SLPC    HB22071   6.769   4.034   6.008 -0.8706 -0.0675 -0.6759
  191SLPC    C222072   6.768   4.193   6.147 -0.2426  0.9893 -0.1687
  191SLPC    HS22073   6.802   4.119   6.223  2.0056  1.1534 -0.9494
  191SLPC   O2122074   6.686   4.306   6.188  0.6423 -0.2776  0.4250
  191SLPC   C2122075   6.586   4.286   6.268  0.3177 -0.4130 -0.1753
  191SLPC   O2222076   6.557   4.178   6.316 -0.0815 -0.0129  0.1330
  191SLPC   C2222077   6.524   4.415   6.310  0.1416  0.2778  0.5480
  191SLPC   H2R22078   6.592   4.502   6.306 -0.4609  0.7176 -2.4441
  191SLPC   H2S22079   6.440   4.429   6.239  1.4974 -0.7126 -1.3014
  191SLPC    C322080   6.897   4.255   6.101 -0.3958 -0.0829  0.2072
  191SLPC    HX22081   6.893   4.278   5.992 -0.4708 -0.0234  0.2222
  191SLPC    HY22082   6.979   4.181   6.100 -0.4698 -0.1652  0.2406
  191SLPC   O3122083   6.943   4.377   6.177  0.3305  0.5739  1.1008
  191SLPC   C3122084   6.954   4.355   6.308 -0.8520 -0.2471  0.0639
  191SLPC   O3222085   6.967   4.246   6.360 -0.2997  0.5045 -0.1051
  191SLPC   C3222086   6.989   4.486   6.375 -0.3160  0.7692  0.4856
  191SLPC   H2X22087   6.993   4.567   6.299 -1.9675 -0.5624 -1.1244
  191SLPC   H2Y22088   7.094   4.483   6.411  0.2660 -0.2366 -1.1476
  191SLPC   C2322089   6.454   4.400   6.445  0.4712  0.3375 -1.2715
  191SLPC   H3R22090   6.402   4.302   6.442  0.0709  0.3188  2.1120
  191SLPC   H3S22091   6.381   4.484   6.448  0.0416 -0.0413 -0.7880
  191SLPC   C2422092   6.559   4.419   6.562  0.5709  0.0394  0.1776
  191SLPC   H4R22093   6.613   4.515   6.548  0.5212 -0.1306 -1.3909
  191SLPC   H4S22094   6.630   4.333   6.561  0.7501  0.1882  0.1652
  191SLPC   C2522095   6.494   4.414   6.704  0.5158 -0.6724 -0.1742
  191SLPC   H5R22096   6.434   4.321   6.709  1.6658 -1.3835  1.2911
  191SLPC   H5S22097   6.432   4.504   6.722 -0.7034 -1.7028  0.9701
  191SLPC   C2622098   6.594   4.390   6.820  0.0321  0.4012  0.0043
  191SLPC   H6R22099   6.648   4.486   6.832  1.7844 -0.6194  0.6067
  191SLPC   H6S22100   6.665   4.318   6.772 -0.3530 -0.0788  0.1486
  191SLPC   C2722101   6.522   4.336   6.951  0.1780  0.3803  0.2479
  191SLPC   H7R22102   6.462   4.248   6.921  0.7343  0.2237 -0.4512
  191SLPC   H7S22103   6.459   4.419   6.988 -0.5141  0.8443 -1.8208
  191SLPC   C2822104   6.619   4.287   7.055  0.1021 -0.5922  0.3803
  191SLPC   H8R22105   6.673   4.197   7.018 -0.3838 -1.5119  1.8063
  191SLPC   H8S22106   6.562   4.238   7.137  0.1225 -0.3206  0.5591
  191SLPC   C2922107   6.712   4.398   7.104  0.0877  0.0731 -0.1968
  191SLPC   H9R22108   6.794   4.421   7.034 -0.1931  0.9429 -0.2445
  191SLPC  C21022109   6.696   4.486   7.204 -0.8439  0.0792  0.3328
  191SLPC  H10R22110   6.768   4.569   7.194 -0.0681 -0.8120 -2.3613
  191SLPC  C21122111   6.592   4.502   7.302  0.7145 -0.1668  0.6932
  191SLPC  H11R22112   6.493   4.476   7.257  0.8403  1.8482 -0.8855
  191SLPC  H11S22113   6.578   4.609   7.329 -0.6336 -0.4287  1.1436
  191SLPC  C21222114   6.614   4.410   7.423 -0.3776  0.5018  0.1101
  191SLPC  H12R22115   6.549   4.321   7.420 -1.2028  1.0333  1.2627
  191SLPC  C21322116   6.710   4.415   7.522 -0.2156  0.3385 -0.8768
  191SLPC  H13R22117   6.710   4.347   7.609  1.0705  1.7625  0.2931
  191SLPC  C21422118   6.802   4.535   7.549 -0.4122 -1.2250 -0.3108
  191SLPC  H14R22119   6.775   4.625   7.490 -2.1099  0.5699  2.9639
  191SLPC  H14S22120   6.907   4.512   7.521  0.2609  0.2902  0.8324
  191SLPC  C21522121   6.799   4.603   7.691  0.0324 -0.5616 -0.1422
  191SLPC  H15R22122   6.697   4.592   7.734  0.7289 -1.4558  1.3372
  191SLPC  H15S22123   6.822   4.711   7.686 -1.6671  0.0718  3.1646
  191SLPC  C21622124   6.900   4.540   7.784 -0.5380 -0.0741 -1.1209
  191SLPC  H16R22125   7.001   4.562   7.743 -0.6664  1.9195 -0.4789
  191SLPC  H16S22126   6.873   4.432   7.792 -0.1069 -0.2608 -2.0127
  191SLPC  C21722127   6.891   4.621   7.916  0.3647  0.3192 -0.2303
  191SLPC  H17R22128   6.898   4.731   7.901 -0.5578  0.5761  1.0810
  191SLPC  H17S22129   6.973   4.585   7.981  0.2126 -1.8113 -1.1315
  191SLPC  C21822130   6.761   4.596   7.997 -0.1285  0.4596 -0.3435
  191SLPC  H18R22131   6.752   4.486   8.010  2.2263  0.2715  0.1059
  191SLPC  H18S22132   6.669   4.641   7.952  0.2833  0.7116 -0.9468
  191SLPC  H18T22133   6.769   4.653   8.092  0.2231 -0.4563  0.1937
  191SLPC   C3322134   6.910   4.531   6.501  0.1010  0.5259 -0.4488
  191SLPC   H3X22135   6.929   4.468   6.590 -0.8032  1.5848  0.5293
  191SLPC   H3Y22136   6.803   4.522   6.475 -0.4185  0.8393  1.4642
  191SLPC   C3422137   6.925   4.675   6.552 -0.0916 -0.4022  0.2879
  191SLPC   H4X22138   6.894   4.740   6.467  0.6057  1.0865  1.1442
  191SLPC   H4Y22139   7.031   4.696   6.577 -0.7194  0.7972  2.0879
  191SLPC   C3522140   6.839   4.704   6.670  0.0677  0.7382 -0.3956
  191SLPC   H5X22141   6.741   4.657   6.646  0.8692 -1.9944  1.1900
  191SLPC   H5Y22142   6.807   4.808   6.691 -1.0727  0.0517  1.5928
  191SLPC   C3622143   6.892   4.643   6.810  0.9910 -0.2157  0.0683
  191SLPC   H6X22144   6.888   4.532   6.805 -0.8639 -0.1192 -1.9419
  191SLPC   H6Y22145   6.816   4.680   6.882  2.2761 -0.6957  1.7385
  191SLPC   C3722146   7.021   4.697   6.873 -0.5854 -0.1617  0.4437
  191SLPC   H7X22147   7.026   4.807   6.854 -0.9994 -0.5165 -1.9425
  191SLPC   H7Y22148   7.113   4.660   6.824  0.8391  3.5100 -0.0114
  191SLPC   C3822149   7.034   4.663   7.023  0.6059 -0.0022 -0.0589
  191SLPC   H8X22150   7.142   4.660   7.047  1.0644  1.5197 -1.7160
  191SLPC   H8Y22151   6.991   4.561   7.034  2.0056 -0.5759  0.2835
  191SLPC   C3922152   6.963   4.766   7.109  0.2273  0.3745  0.6301
  191SLPC   H9X22153   6.853   4.755   7.095  0.0176  1.1965  1.5140
  191SLPC   H9Y22154   6.990   4.868   7.073 -0.1902  0.2766  0.0173
  191SLPC  C31022155   6.991   4.753   7.251  0.5983 -0.4487  0.6441
  191SLPC  H10X22156   7.099   4.739   7.274  0.3452 -0.0038  2.1768
  191SLPC  H10Y22157   6.955   4.659   7.297 -2.1588 -0.6856 -1.7683
  191SLPC  C31122158   6.931   4.874   7.335 -0.4637  0.4522 -0.0900
  191SLPC  H11X22159   6.821   4.874   7.350 -0.3882  0.8695  0.5381
  191SLPC  H11Y22160   6.969   4.961   7.278  1.6314 -0.3164  0.0383
  191SLPC  C31222161   6.993   4.874   7.479 -0.4468  0.0116  0.2201
  191SLPC  H12X22162   7.102   4.850   7.482 -0.4255  0.0884  0.0754
  191SLPC  H12Y22163   6.944   4.785   7.523  0.7975 -1.1468 -0.6435
  191SLPC  C31322164   6.962   5.004   7.553 -0.0012 -0.7475  0.1858
  191SLPC  H13X22165   6.851   5.010   7.555  0.0493  0.3308  2.0580
  191SLPC  H13Y22166   6.995   5.090   7.490 -0.3648 -0.9184 -0.2410
  191SLPC  C31422167   7.002   4.991   7.702  0.6553  0.9311  0.3930
  191SLPC  H14X22168   7.110   5.010   7.719  0.7732  1.2484 -0.6279
  191SLPC  H14Y22169   6.992   4.884   7.731 -3.1053  1.2748  0.9157
  191SLPC  C31522170   6.915   5.062   7.808  0.5451 -0.5036  0.0153
  191SLPC  H15X22171   6.808   5.033   7.799  0.1694  1.3665 -2.8735
  191SLPC  H15Y22172   6.919   5.170   7.783 -1.0506 -0.5406 -0.5259
  191SLPC  C31622173   6.956   5.039   7.954 -0.1905 -0.4021  0.4139
  191SLPC  H16X22174   7.063   5.070   7.961 -0.3181  0.5197 -1.2864
  191SLPC  H16Y22175   6.955   4.928   7.960 -1.8755 -0.3861  0.8144
  191SLPC  C31722176   6.865   5.100   8.058  0.4134 -0.4028  0.2348
  191SLPC  H17X22177   6.881   5.210   8.057 -4.2440  0.4750 -0.8007
  191SLPC  H17Y22178   6.890   5.055   8.156 -2.1296  0.8056  1.5320
  191SLPC  C31822179   6.717   5.077   8.048 -0.1637 -0.1325 -0.2355
  191SLPC  H18X22180   6.703   4.968   8.063 -0.5351  0.3122  3.5986
  191SLPC  H18Y22181   6.673   5.106   7.950 -0.4994  4.2852  1.0247
  191SLPC  H18Z22182   6.651   5.124   8.124 -2.0733 -0.1487 -1.7914
  192SLPC     N22183   1.465   3.086   6.187  0.2051  0.4055 -0.5895
  192SLPC   C1322184   1.595   3.109   6.110 -0.1421  0.0485  0.1906
  192SLPC  H13A22185   1.589   3.060   6.014  1.3348  0.3113 -0.0712
  192SLPC  H13B22186   1.616   3.215   6.098  0.0907  0.1741  1.5700
  192SLPC  H13C22187   1.676   3.072   6.170  1.1472  0.8741 -0.9679
  192SLPC   C1422188   1.352   3.120   6.101  0.1106 -0.5836 -0.0110
  192SLPC  H14A22189   1.262   3.128   6.160 -0.3407  0.0452 -0.7678
  192SLPC  H14B22190   1.362   3.211   6.043 -2.5872 -0.1010  0.1630
  192SLPC  H14C22191   1.329   3.044   6.028 -1.4104  0.7098 -0.9251
  192SLPC   C1522192   1.465   3.167   6.309 -0.1727  0.1882  0.5634
  192SLPC  H15A22193   1.532   3.128   6.385  3.1643  0.8907 -1.7771
  192SLPC  H15B22194   1.485   3.270   6.282 -1.8650  0.3168 -0.3169
  192SLPC  H15C22195   1.366   3.168   6.351  0.1041  0.9762  1.2231
  192SLPC   C1222196   1.462   2.936   6.224  0.7768  0.1463  0.5212
  192SLPC  H12A22197   1.533   2.914   6.302  0.5327 -1.5950  0.3030
  192SLPC  H12B22198   1.495   2.877   6.140  0.6605  0.3199  0.3536
  192SLPC   C1122199   1.328   2.870   6.277 -0.2921 -0.3343  0.1371
  192SLPC  H11A22200   1.340   2.760   6.267  1.0067 -0.2011  0.0408
  192SLPC  H11B22201   1.243   2.900   6.211  0.0675 -0.8145 -0.5635
  192SLPC     P22202   1.366   2.878   6.539  0.0811  0.3813  0.2345
  192SLPC   O1322203   1.499   2.819   6.510 -0.2860  0.3599 -1.0074
  192SLPC   O1422204   1.368   2.985   6.640 -0.4090  0.1009  0.6459
  192SLPC   O1222205   1.300   2.922   6.406  0.0072 -0.6707 -0.0226
  192SLPC   O1122206   1.263   2.767   6.584 -0.1163  0.5472  0.0783
  192SLPC    C122207   1.127   2.808   6.617 -0.2215  0.3203 -0.0856
  192SLPC    HA22208   1.085   2.899   6.568  0.2577  0.0620 -0.9969
  192SLPC    HB22209   1.057   2.725   6.596  0.8113 -0.4836 -0.4175
  192SLPC    C222210   1.109   2.825   6.774 -0.2029 -0.3150 -0.6861
  192SLPC    HS22211   1.200   2.879   6.808 -1.8339  0.4799  2.8416
  192SLPC   O2122212   1.095   2.695   6.835  0.1028 -0.4681  0.3864
  192SLPC   C2122213   1.187   2.664   6.922  0.2039 -0.2293 -0.2827
  192SLPC   O2222214   1.280   2.730   6.965 -0.5724  0.0402 -0.0755
  192SLPC   C2222215   1.162   2.525   6.976  0.1526  0.2259 -0.2110
  192SLPC   H2R22216   1.068   2.543   7.032 -0.7224 -2.1945 -0.8029
  192SLPC   H2S22217   1.143   2.452   6.894  0.2354 -2.1468  1.7666
  192SLPC    C322218   0.989   2.912   6.806  0.2122  0.0848 -0.3423
  192SLPC    HX22219   0.894   2.860   6.779 -0.3269  0.9890 -0.1968
  192SLPC    HY22220   0.984   3.003   6.742  0.7517  0.3939  0.0506
  192SLPC   O3122221   0.978   2.945   6.948  0.1455  0.4433  0.4354
  192SLPC   C3122222   1.057   3.041   6.991  0.4842 -0.0560 -0.0560
  192SLPC   O3222223   1.133   3.104   6.919 -0.0536 -0.0166 -0.4426
  192SLPC   C3222224   1.021   3.064   7.133 -0.0698 -0.6142 -0.8109
  192SLPC   H2X22225   0.911   3.059   7.147  0.0604  0.7356  1.0706
  192SLPC   H2Y22226   1.055   3.167   7.157  0.5955 -0.5847 -1.8102
  192SLPC   C2322227   1.278   2.475   7.066  0.3574  0.1621 -0.3174
  192SLPC   H3R22228   1.322   2.551   7.133  0.9921  0.8648 -1.4956
  192SLPC   H3S22229   1.362   2.448   6.998 -0.5000 -0.1448 -1.2989
  192SLPC   C2422230   1.223   2.353   7.153 -0.3296  0.0860 -0.6632
  192SLPC   H4R22231   1.222   2.262   7.089 -6.1966 -2.0524  1.7867
  192SLPC   H4S22232   1.118   2.369   7.187 -1.2201 -1.3076 -2.5661
  192SLPC   C2522233   1.295   2.324   7.285  0.6840 -0.6255 -0.7836
  192SLPC   H5R22234   1.401   2.310   7.253  0.7070 -3.2151  0.2257
  192SLPC   H5S22235   1.253   2.227   7.317 -0.0654 -0.2172 -0.5035
  192SLPC   C2622236   1.300   2.429   7.398  0.5130 -1.0501 -0.6964
  192SLPC   H6R22237   1.347   2.519   7.353  0.7381 -1.0296 -0.4223
  192SLPC   H6S22238   1.362   2.402   7.486  0.7738 -1.2062 -0.9293
  192SLPC   C2722239   1.168   2.482   7.459 -0.0581 -0.4038 -0.5907
  192SLPC   H7R22240   1.119   2.387   7.488  2.4893 -2.1314 -1.5083
  192SLPC   H7S22241   1.108   2.530   7.380 -1.4819  2.4871  2.0737
  192SLPC   C2822242   1.191   2.574   7.575 -0.0827  0.3282 -0.0321
  192SLPC   H8R22243   1.218   2.504   7.657  1.2055  1.2869  0.3848
  192SLPC   H8S22244   1.088   2.606   7.603  0.1057 -0.1026  1.1997
  192SLPC   C2922245   1.279   2.692   7.575 -0.9015  0.0605  0.0435
  192SLPC   H9R22246   1.308   2.727   7.475  2.9110 -1.8324  0.2866
  192SLPC  C21022247   1.337   2.759   7.680  0.0133  0.3908 -0.3921
  192SLPC  H10R22248   1.398   2.847   7.650  0.2909  0.7637  1.1940
  192SLPC  C21122249   1.329   2.709   7.823 -1.3018 -0.9181  0.1613
  192SLPC  H11R22250   1.427   2.719   7.875 -0.3087  1.8423 -2.0087
  192SLPC  H11S22251   1.312   2.599   7.824  0.6048 -1.2675  1.6208
  192SLPC  C21222252   1.231   2.789   7.905 -0.5909  0.1198  0.2976
  192SLPC  H12R22253   1.189   2.887   7.879 -0.1925  0.8183  2.1308
  192SLPC  C21322254   1.195   2.748   8.027  0.5938 -0.0620 -0.4501
  192SLPC  H13R22255   1.133   2.814   8.089 -0.3082 -3.0961  2.1585
  192SLPC  C21422256   1.232   2.625   8.105  0.0460 -0.4267 -0.3109
  192SLPC  H14R22257   1.316   2.576   8.052  0.4293 -0.2353  0.1112
  192SLPC  H14S22258   1.157   2.544   8.114  0.8102 -1.1052  0.0215
  192SLPC  C21522259   1.282   2.663   8.246 -1.0521  0.7275 -0.2956
  192SLPC  H15R22260   1.298   2.565   8.295 -1.9291 -0.5079 -2.3771
  192SLPC  H15S22261   1.207   2.725   8.300 -0.2201  2.8066 -1.4267
  192SLPC  C21622262   1.407   2.756   8.234 -0.4899  0.2102 -0.1563
  192SLPC  H16R22263   1.383   2.850   8.180 -1.6360 -0.6434 -1.2243
  192SLPC  H16S22264   1.479   2.692   8.178 -0.5526  0.8667 -1.0077
  192SLPC  C21722265   1.478   2.797   8.368 -0.0016 -0.6927  1.0040
  192SLPC  H17R22266   1.566   2.863   8.355 -1.3874  1.0318  0.0501
  192SLPC  H17S22267   1.398   2.846   8.428 -2.3652 -2.5365 -0.4318
  192SLPC  C21822268   1.523   2.671   8.446  0.9902 -0.1170  0.9228
  192SLPC  H18R22269   1.554   2.700   8.549  0.5714  2.3128  0.4199
  192SLPC  H18S22270   1.602   2.604   8.405  2.9411  1.3904  2.0035
  192SLPC  H18T22271   1.435   2.607   8.468  0.4546  0.3173  0.0690
  192SLPC   C3322272   1.100   2.975   7.238  0.0070  0.5303 -0.5485
  192SLPC   H3X22273   1.205   2.970   7.203  0.4690  2.2749  0.4591
  192SLPC   H3Y22274   1.056   2.873   7.229 -1.1474  0.8380  0.9919
  192SLPC   C3422275   1.114   3.028   7.379 -0.2426  0.3680  0.3930
  192SLPC   H4X22276   1.132   3.137   7.370  0.4624  0.4047  1.9359
  192SLPC   H4Y22277   1.203   2.985   7.430  1.3810  0.9028 -1.8368
  192SLPC   C3522278   0.993   2.995   7.467 -0.4806 -0.4225 -0.4561
  192SLPC   H5X22279   0.977   2.885   7.456  0.1141 -0.5288 -0.2829
  192SLPC   H5Y22280   0.898   3.050   7.446 -0.9033 -1.1200 -0.4296
  192SLPC   C3622281   1.014   3.038   7.614  0.2103 -0.9727 -0.1233
  192SLPC   H6X22282   1.102   2.979   7.648 -0.2201 -0.5132  1.9415
  192SLPC   H6Y22283   0.930   3.010   7.681  0.8539  0.1364  1.2237
  192SLPC   C3722284   1.061   3.185   7.638  0.5790  0.1463 -0.3369
  192SLPC   H7X22285   1.004   3.269   7.593  0.1163 -0.4542 -0.8879
  192SLPC   H7Y22286   1.162   3.199   7.592 -0.3368  1.6460 -1.9978
  192SLPC   C3822287   1.087   3.198   7.788  0.0915  0.1407 -0.0216
  192SLPC   H8X22288   1.172   3.133   7.819  0.7141  0.8051 -0.3010
  192SLPC   H8Y22289   0.997   3.161   7.841  1.0549 -0.8302  1.0073
  192SLPC   C3922290   1.125   3.335   7.837 -0.2648  0.2543  0.2009
  192SLPC   H9X22291   1.057   3.411   7.792 -1.9228 -0.8548  0.7548
  192SLPC   H9Y22292   1.224   3.371   7.802  0.1271 -1.1852 -0.2531
  192SLPC  C31022293   1.113   3.345   7.990 -0.6090  0.1914 -0.6709
  192SLPC  H10X22294   1.175   3.261   8.028  0.0411 -0.3231 -2.7625
  192SLPC  H10Y22295   1.006   3.335   8.019 -0.2276 -0.2916  0.6253
  192SLPC  C31122296   1.156   3.483   8.040 -0.1487  0.7001 -1.0883
  192SLPC  H11X22297   1.120   3.574   7.986  0.1275  0.4559 -1.7030
  192SLPC  H11Y22298   1.264   3.487   8.016 -0.0800 -1.3662 -1.2385
  192SLPC  C31222299   1.146   3.498   8.192  0.4538 -0.6845  0.1180
  192SLPC  H12X22300   1.201   3.413   8.238 -0.4131 -1.2487  0.1517
  192SLPC  H12Y22301   1.045   3.497   8.239  0.9823  0.1401  1.3290
  192SLPC  C31322302   1.216   3.622   8.247  0.3591 -0.3059  0.7790
  192SLPC  H13X22303   1.192   3.704   8.176  2.8345 -0.8777 -0.8059
  192SLPC  H13Y22304   1.325   3.604   8.241  0.5484  0.0188  2.5549
  192SLPC  C31422305   1.186   3.676   8.387 -0.0508  0.2362 -0.1905
  192SLPC  H14X22306   1.077   3.694   8.399  0.1203  0.5992  0.9830
  192SLPC  H14Y22307   1.237   3.774   8.404  0.1545  0.0650  0.1953
  192SLPC  C31522308   1.240   3.573   8.486  0.5788 -0.0444 -0.1024
  192SLPC  H15X22309   1.260   3.482   8.426  0.2374  1.1099 -2.0723
  192SLPC  H15Y22310   1.159   3.544   8.556  0.2797  1.7376  0.3422
  192SLPC  C31622311   1.353   3.620   8.581  0.1663 -0.5904  0.2149
  192SLPC  H16X22312   1.325   3.718   8.624 -1.0173 -1.3941  1.3340
  192SLPC  H16Y22313   1.450   3.630   8.527  1.1921  0.8978  2.1960
  192SLPC  C31722314   1.382   3.518   8.693 -0.1611 -0.5356 -0.2595
  192SLPC  H17X22315   1.379   3.419   8.643  2.4592  0.7574 -3.3937
  192SLPC  H17Y22316   1.298   3.520   8.766  1.3627  3.2173  1.6959
  192SLPC  C31822317   1.506   3.546   8.773 -0.3336 -0.2600  0.7614
  192SLPC  H18X22318   1.589   3.557   8.701 -0.4351 -0.9473  0.5313
  192SLPC  H18Y22319   1.538   3.456   8.832  0.8804  0.8998  1.9466
  192SLPC  H18Z22320   1.488   3.638   8.832 -1.4899  0.2339 -0.3394
  193SOD    SOD22321   5.004   5.568  12.155 -0.4634 -0.2634  0.2533
  194SOD    SOD22322   2.669   2.395  11.411 -0.3905 -0.1473 -0.1497
  195SOD    SOD22323   4.607   4.746  13.147 -0.0077  0.3662 -0.4536
  196SOD    SOD22324   2.374   5.723   5.937 -0.2270  0.0218  0.0417
  197SOD    SOD22325   3.439   4.061  15.143 -0.1340  0.1211 -0.2240
  198SOD    SOD22326   0.728   0.662  11.524 -0.6402 -0.3013  0.5019
  199SOD    SOD22327   5.956   3.878   2.372  0.2450  0.3664 -0.3060
  200SOD    SOD22328   0.912   2.905  14.409  0.1500  0.1486  0.4818
  201SOD    SOD22329   1.198   2.413  11.009 -0.0077 -0.0607  0.1772
  202SOD    SOD22330   6.292   5.251   0.679  0.1142 -0.4540 -0.1124
  203SOD    SOD22331   4.144   1.642  15.767  0.0123 -0.0988  0.0188
  204SOD    SOD22332   3.042   3.822   5.172 -0.4084 -0.2398 -0.2109
  205SOD    SOD22333   2.233   5.079  13.512 -0.2333  1.0690 -0.1809
  206SOD    SOD22334   2.553   3.419   1.463  0.2816 -0.2833  0.3904
  207SOD    SOD22335   4.622   2.811   2.892  0.5229  0.1839 -0.4546
  208SOD    SOD22336   0.033   5.912   1.964  0.1070  0.0796  0.1958
  209SOD    SOD22337   2.846   0.341  12.558 -0.2954  0.0198  0.1575
  210SOD    SOD22338   6.716   6.142  13.615 -0.1237 -0.0937 -0.0108
  211SOD    SOD22339   0.888   4.180   1.645 -0.3911 -0.3747  0.1527
  212SOD    SOD22340   2.857   5.827  12.453  0.8078 -0.1191 -0.3713
  213SOD    SOD22341   5.226   2.558   5.585 -0.3874 -0.5519  0.7130
  214SOD    SOD22342   4.145   0.739   4.735 -0.1211 -0.3613 -0.2922
  215SOD    SOD22343   3.384   2.917   3.890  0.1884 -0.1193 -0.1969
  216SOD    SOD22344   3.249   2.197  15.556  0.1215 -0.5730 -0.0194
  217SOD    SOD22345   2.401   1.294   5.404 -0.2543  0.0814 -0.3089
  218SOD    SOD22346   2.632   2.106   2.922 -0.4833  0.2699  0.0378
  219SOD    SOD22347   1.580   5.596   5.866  0.3930  0.1779  0.3138
  220SOD    SOD22348   4.948   1.209   5.314  0.3559 -0.2114 -0.2815
  221SOD    SOD22349   4.916   2.078  11.442 -0.1673  0.2566 -0.0015
  222SOD    SOD22350   6.226   6.447   5.951 -0.3366  0.4095  0.5804
  223SOD    SOD22351   4.157   5.189   2.764 -0.0166 -0.1718 -0.0393
  224SOD    SOD22352   5.478   4.007  11.720  0.4117  0.0916  0.1589
  225SOD    SOD22353   2.636   3.353  12.042  0.1372 -0.2096  0.3630
  226SOD    SOD22354   6.435   2.369  12.332 -1.1010  0.0054 -0.3322
  227SOD    SOD22355   5.275   3.674   0.764  0.4057 -0.2228  0.5193
  228SOD    SOD22356   6.508   1.653  12.917  0.5092  0.1971  0.2436
  229SOD    SOD22357   3.427   5.688  13.936  0.0070  0.0513 -0.1832
  230SOD    SOD22358   2.331   5.174   5.176  0.4229  0.4340  0.1015
  231SOD    SOD22359   5.549   0.685  16.128 -0.0914  0.3428  0.0248
  232SOD    SOD22360   6.509   1.431  15.155  0.0984 -0.2778  0.4949
  233SOD    SOD22361   1.898   0.834  14.667  0.0972 -0.5527  0.0990
  234SOD    SOD22362   0.942   1.220  16.221  0.3286 -0.6761 -0.0698
  235SOD    SOD22363   5.160   4.468   1.133  0.6967  0.3067  0.2132
  236SOD    SOD22364   0.487   4.693  15.808 -0.2264 -0.5778  0.1620
  237SOD    SOD22365   1.226   5.640   0.905  0.1685  0.5765  0.4682
  238SOD    SOD22366   4.545   0.570   5.651  0.0264 -0.4028 -0.1688
  239SOD    SOD22367   6.372   1.669   5.815 -0.4516 -0.0574 -0.5462
  240SOD    SOD22368   3.918   6.224  10.172  0.1180 -0.1309  0.3048
  241SOD    SOD22369   0.149   2.340  14.007 -0.0904  0.0070 -0.4276
  242SOD    SOD22370   6.036   0.104   5.809 -0.0640 -0.2085  0.0463
  243SOD    SOD22371   2.405   6.427   3.684 -0.3789 -0.2591 -0.1403
  244SOD    SOD22372   3.087   4.010   0.709  0.4162  0.1738 -0.1651
  245SOD    SOD22373   3.985   3.830  13.111 -0.0355 -0.8184  0.3959
  246SOD    SOD22374   4.725   3.370   6.013 -0.1477 -0.2406  0.6600
  247SOD    SOD22375   0.407   6.544   1.568  0.1742  0.0948 -0.0260
  248SOD    SOD22376   3.302   2.805   3.029  0.0773 -0.5372  0.1253
  249SOD    SOD22377   3.714   6.347   6.435 -0.0699 -0.0850 -0.4514
  250SOD    SOD22378   0.381   1.768   5.343  0.3871 -0.1142 -0.1221
  251SOD    SOD22379   1.070   3.856   4.228 -0.2639 -0.8805 -0.1717
  252SOD    SOD22380   4.314   6.464   1.399 -0.2036 -0.4563  0.0342
  253SOD    SOD22381   2.820   4.497   6.684 -0.0032  0.5035 -0.6164
  254SOD    SOD22382   3.975   0.050  14.344 -0.0387 -0.7829 -0.0397
  255SOD    SOD22383   6.280   4.531   2.921 -0.1092  0.2770  0.7263
  256SOD    SOD22384   5.455   2.894  16.691 -0.1583  0.4737  0.1111
  257SOD    SOD22385   2.170   5.741   1.033 -0.0870 -0.0456 -0.3910
  258SOD    SOD22386   1.061   2.134   1.217 -0.0522 -0.4468 -0.0007
  259SOD    SOD22387   0.347   1.019  10.994  0.0898  0.0652  0.0655
  260SOD    SOD22388   4.124   5.167  10.679 -0.0898 -0.4966  0.1948
  261SOD    SOD22389   0.201   3.477  11.728 -0.3005  0.2549  0.0161
  262SOD    SOD22390   5.794   1.767  10.758  0.0433  0.1824  0.0729
  263SOD    SOD22391   2.202   5.175  14.170  0.2394 -0.1999 -0.0111
  264SOD    SOD22392   3.482   3.099  11.840  0.3878  0.3388 -0.3059
  265SOD    SOD22393   4.980   2.897  10.809 -0.1980  0.8082  0.4281
  266CLA    CLA22394   0.637   2.409  15.449 -0.2253 -0.0656  0.2206
  267CLA    CLA22395   2.488   3.545   2.370  0.5992 -0.0105  0.0518
  268CLA    CLA22396   5.193   2.540   1.597 -0.2537 -0.6786 -0.2121
  269CLA    CLA22397   6.344   2.329  11.651  0.2034 -0.2500 -0.1675
  270CLA    CLA22398   1.935   0.425  14.742 -0.1403 -0.2156  0.0516
  271CLA    CLA22399   0.505   5.723   0.083  0.1331 -0.3919 -0.2448
  272CLA    CLA22400   4.401   3.428   5.647 -0.1724  0.3321 -0.0585
  273CLA    CLA22401   2.559   2.485   3.224  0.5388 -0.0548  0.4522
  274CLA    CLA22402   0.582   2.154  13.743  0.0412 -0.1869 -0.3161
  275CLA    CLA22403   1.194   2.655  13.547  0.3961  0.0274 -0.0332
  276CLA    CLA22404   6.078   2.377   0.022  0.2808 -0.0698 -0.0377
  277CLA    CLA22405   1.925   1.599   0.913  0.2477 -0.2148  0.0755
  278CLA    CLA22406   1.460   2.073   1.109 -0.4826 -0.2284  0.3813
  279CLA    CLA22407   0.330   4.183  16.323  0.0952 -0.4522  0.7241
  280CLA    CLA22408   0.332   1.315  16.222  0.4071 -0.1413 -0.2381
  281CLA    CLA22409   3.072   0.546  15.429  0.2254 -0.2823 -0.0517
  282CLA    CLA22410   3.453   6.756   4.723  0.0888 -0.1366  0.0511
  283CLA    CLA22411   3.164   5.883  14.925 -0.1817 -0.4585  0.0715
  284CLA    CLA22412   4.621   3.827   3.298  0.0441  0.3819  0.4311
  285CLA    CLA22413   4.739   2.638  13.992  0.3431  0.2104 -0.5812
  286CLA    CLA22414   0.050   0.538   2.204 -0.1183 -0.1574 -0.0025
  287CLA    CLA22415   5.018   2.609  11.891  0.1243 -0.7232  0.1839
  288CLA    CLA22416   3.095   2.156   1.640  0.1680  0.1722  0.1286
  289CLA    CLA22417   3.543   4.927   3.983  0.2946  0.1027 -0.2391
  290CLA    CLA22418   3.283   4.325   2.137  0.4338  0.0498  0.3250
  291CLA    CLA22419   0.888   4.886  15.799  0.2661 -0.4592 -0.1024
  292CLA    CLA22420   2.254   4.394  12.823  0.0080  0.1906 -0.0643
  293CLA    CLA22421   5.689   5.999   0.938  0.0634  0.0567  0.2147
  294CLA    CLA22422   5.031   4.779   1.481  0.0080 -0.4085  0.0931
  295CLA    CLA22423   5.637   3.281  14.212 -0.0094 -0.1986 -0.3200
  296CLA    CLA22424   6.523   2.493  15.635  0.2798 -0.3842 -0.0704
  297CLA    CLA22425   1.611   4.059   3.106  0.0321 -0.0030 -0.0344
  298CLA    CLA22426   3.411   0.832   3.469  0.0305  0.3968  0.5356
  299CLA    CLA22427   1.517   0.189   0.970 -0.1033 -0.1630 -0.8775
  300CLA    CLA22428   1.255   1.048  12.576  0.1143 -0.3414  0.1142
  301CLA    CLA22429   0.127   2.205   2.788 -0.3740 -0.1108  0.1225
  302CLA    CLA22430   1.141   3.245  14.053 -0.2101  0.1725 -0.1521
  303CLA    CLA22431   2.585   2.426  15.838 -0.2403  0.1996 -0.1121
  304CLA    CLA22432   6.109   2.226  15.705  0.2633 -0.3954 -0.0116
  305CLA    CLA22433   4.531   5.509  12.656  0.0145  0.2933 -0.2054
  306CLA    CLA22434   2.643   4.533   4.824 -0.2880 -0.1796  0.1570
  307CLA    CLA22435   0.674   4.319   1.519 -0.2986  0.4214  0.3847
  308CLA    CLA22436   2.359   5.694   0.402  0.1148  0.1093  0.0003
  309CLA    CLA22437   2.155   5.184   5.890  0.3613 -0.3540 -0.1905
  310CLA    CLA22438   6.210   0.646  13.307  0.2108  0.2966  0.0435
  311CLA    CLA22439   2.304   5.477   1.961 -0.2911  0.0101 -0.2274
  312CLA    CLA22440   3.373   4.318  12.904  0.3851 -0.1341 -0.2334
  313CLA    CLA22441   3.871   3.365  11.788 -0.1222  0.0138 -0.2394
  314CLA    CLA22442   3.515   5.292  11.443  0.3842  0.2196 -0.2886
  315CLA    CLA22443   3.294   5.492   5.492  0.4432  0.1757 -0.4839
  316CLA    CLA22444   2.718   1.915  12.380  0.0200  0.3867  0.2013
  317CLA    CLA22445   1.693   1.342   3.405  0.1437  0.1444 -0.0953
  318CLA    CLA22446   5.747   5.935   2.580 -0.3141 -0.2753 -0.3263
  319TIP3   OH222447   2.547   5.464  12.908  0.0130 -0.0591  0.2986
  319TIP3    H122448   2.639   5.446  12.890 -0.1600  0.5314 -1.3210
  319TIP3    H222449   2.500   5.396  12.859 -0.4498  0.6816 -0.2880
  320TIP3   OH222450   3.301   0.667  16.152 -0.4073  0.7470  0.5392
  320TIP3    H122451   3.306   0.750  16.199 -0.8589  1.4410 -0.5970
  320TIP3    H222452   3.378   0.668  16.094  0.0379 -0.0070  1.1006
  321TIP3   OH222453   1.192   5.877   4.826 -0.1258  0.2796  0.1035
  321TIP3    H122454   1.267   5.861   4.884 -0.0925  3.3638  1.0668
  321TIP3    H222455   1.125   5.815   4.857  0.7464  0.1202  1.7827
  322TIP3   OH222456   0.373   6.221   3.020  0.1557  0.1120  0.2688
  322TIP3    H122457   0.309   6.292   3.021 -0.3001 -0.2849 -0.2463
  322TIP3    H222458   0.438   6.246   3.085  0.4764  1.4336 -0.5327
  323TIP3   OH222459   4.581   2.896  12.818  0.1330  0.2150  0.0726
  323TIP3    H122460   4.593   2.818  12.872  0.5610 -0.8976 -1.5440
  323TIP3    H222461   4.604   2.969  12.875 -0.3365 -0.8192  1.6533
  324TIP3   OH222462   5.898   3.053  16.680 -0.2695  0.0254 -0.2673
  324TIP3    H122463   5.968   2.989  16.693 -1.2399 -1.0383 -0.2066
  324TIP3    H222464   5.901   3.109  16.757  0.1962 -0.3096 -0.0414
  325TIP3   OH222465   5.952   5.670  15.693  0.0428  0.0596 -0.5227
  325TIP3    H122466   5.900   5.670  15.613 -0.6518  0.6360 -0.0854
  325TIP3    H222467   5.968   5.762  15.712 -0.1615 -0.0464  0.2226
  326TIP3   OH222468   5.176   2.855   0.284 -0.2947 -0.2350  0.2234
  326TIP3    H122469   5.184   2.911   0.362 -1.8066 -1.4051  1.2941
  326TIP3    H222470   5.237   2.783   0.300 -0.6283 -0.4914  0.3682
  327TIP3   OH222471   4.874   1.446   1.585  0.0074 -0.3654 -0.6538
  327TIP3    H122472   4.780   1.431   1.575 -0.0082  0.2743 -1.6323
  327TIP3    H222473   4.884   1.540   1.567  0.8542 -0.4657 -0.7078
  328TIP3   OH222474   0.516   1.869  13.920  0.1160 -0.4488  0.4284
  328TIP3    H122475   0.525   1.962  13.898 -1.7819  0.0689  1.6013
  328TIP3    H222476   0.606   1.837  13.922  0.7503  0.9559 -1.5243
  329TIP3   OH222477   4.292   4.769  12.412 -0.3072  0.4093 -0.1872
  329TIP3    H122478   4.358   4.746  12.347 -2.3350  0.9337 -2.6127
  329TIP3    H222479   4.305   4.862  12.428 -0.8181  0.6747 -1.1959
  330TIP3   OH222480   1.220   1.943   5.939  0.1136 -0.3350  0.3688
  330TIP3    H122481   1.237   1.852   5.916  1.8527  0.2332 -0.8960
  330TIP3    H222482   1.304   1.975   5.972  0.0683  1.2458 -0.9076
  331TIP3   OH222483   1.390   0.466  16.975 -0.0548  0.2524 -0.2180
  331TIP3    H122484   1.383   0.390  16.917  1.0163  0.6963 -0.9834
  331TIP3    H222485   1.438   0.531  16.923 -0.4055  1.2268  0.6387
  332TIP3   OH222486   2.410   2.525   4.091  0.2771 -0.2003  0.1734
  332TIP3    H122487   2.321   2.509   4.121  0.5960 -0.5744  0.9286
  332TIP3    H222488   2.400   2.552   4.000 -0.7225  1.1608  0.6596
  333TIP3   OH222489   3.767   0.465   0.649 -0.5140 -0.3233 -0.8097
  333TIP3    H122490   3.739   0.547   0.607  2.2831  0.1805 -1.8936
  333TIP3    H222491   3.788   0.490   0.739  1.3399  0.4511 -1.4159
  334TIP3   OH222492   0.878   3.069   2.933  0.1341  0.4510 -0.1264
  334TIP3    H122493   0.846   3.054   3.022  3.2176  1.7707  1.3550
  334TIP3    H222494   0.910   2.984   2.904 -0.3109  0.1505  0.2426
  335TIP3   OH222495   2.094   3.823  15.489  0.2013 -0.1653 -0.1442
  335TIP3    H122496   2.189   3.826  15.476  0.2616  2.1468  0.3869
  335TIP3    H222497   2.057   3.843  15.403  0.2910  1.2590  0.1185
  336TIP3   OH222498   3.679   4.972  16.417 -0.0440 -0.7451  1.1339
  336TIP3    H122499   3.635   5.039  16.364  0.8210 -1.2481 -0.2390
  336TIP3    H222500   3.682   5.011  16.505 -1.8427 -0.0625  0.9416
  337TIP3   OH222501   2.216   5.700   1.558  0.2607 -0.4288 -0.3018
  337TIP3    H122502   2.159   5.754   1.613 -0.4115 -1.6773  0.2674
  337TIP3    H222503   2.295   5.752   1.547 -1.4736  1.9951 -2.3118
  338TIP3   OH222504   1.427   1.875   0.136 -0.1076 -0.0787 -0.1761
  338TIP3    H122505   1.488   1.804   0.154 -1.0718 -1.1880 -1.0898
  338TIP3    H222506   1.473   1.932   0.074  0.8250  0.3304  0.8700
  339TIP3   OH222507   3.193   5.759   5.589  0.0248  0.4810  0.2297
  339TIP3    H122508   3.215   5.671   5.558  0.0500  0.9440 -1.1100
  339TIP3    H222509   3.277   5.796   5.619  0.2403  0.5142 -0.4097
  340TIP3   OH222510   4.715   0.485   3.113 -0.3280 -0.4653 -0.2259
  340TIP3    H122511   4.712   0.571   3.155 -1.0913 -0.8057  0.4415
  340TIP3    H222512   4.695   0.502   3.021  1.8329  0.3482 -0.6071
  341TIP3   OH222513   1.525   6.374  16.916 -0.0614  0.1602  0.2434
  341TIP3    H122514   1.463   6.332  16.976 -0.4911  0.4919  0.0403
  341TIP3    H222515   1.490   6.462  16.903  0.3073  0.2627 -0.0907
  342TIP3   OH222516   4.747   3.014  15.663  0.2854  0.5720 -0.0486
  342TIP3    H122517   4.753   3.044  15.573 -0.7171  0.3089 -0.2160
  342TIP3    H222518   4.804   2.937  15.667 -1.3156 -0.7277 -1.0564
  343TIP3   OH222519   5.869   3.133   2.493  0.3966  0.3433  0.0053
  343TIP3    H122520   5.816   3.196   2.445  1.5350  1.0494 -0.3531
  343TIP3    H222521   5.830   3.048   2.472 -2.4088  0.9745  2.0610
  344TIP3   OH222522   4.082   6.423  14.800 -0.0912  0.2930  0.7892
  344TIP3    H122523   4.063   6.501  14.852  3.1469  0.8625  1.3441
  344TIP3    H222524   4.164   6.389  14.836  1.5185 -0.2097 -2.8378
  345TIP3   OH222525   5.906   6.825   3.452 -0.4813  0.0021 -0.0226
  345TIP3    H122526   5.995   6.843   3.483 -0.1114 -0.0304 -1.0237
  345TIP3    H222527   5.857   6.905   3.471  0.1643  0.6162 -0.8695
  346TIP3   OH222528   2.369   5.694  14.959 -0.1849 -0.0440 -0.1996
  346TIP3    H122529   2.402   5.774  15.001  0.6216 -0.8557  0.7622
  346TIP3    H222530   2.428   5.681  14.885 -1.5071  1.2984 -1.5569
  347TIP3   OH222531   6.593   4.364  13.262  0.2986 -0.5122 -0.2407
  347TIP3    H122532   6.651   4.439  13.270 -0.7279  0.1548  1.3765
  347TIP3    H222533   6.570   4.361  13.169  1.6283  0.1670 -0.6116
  348TIP3   OH222534   2.181   6.246  16.592  0.1885  0.4287  0.4766
  348TIP3    H122535   2.173   6.213  16.682  0.2726 -1.0357 -0.0314
  348TIP3    H222536   2.275   6.244  16.574  0.0241 -1.8686 -0.5210
  349TIP3   OH222537   6.572   2.738  11.652  0.8115  0.1370 -0.2017
  349TIP3    H122538   6.557   2.794  11.577  1.1463  1.0731  0.4135
  349TIP3    H222539   6.648   2.776  11.696  2.0768 -1.7405 -0.6455
  350TIP3   OH222540   4.482   2.267   2.439  0.5729 -0.3570 -0.4428
  350TIP3    H122541   4.503   2.227   2.355  1.7411  1.1244 -0.9175
  350TIP3    H222542   4.565   2.305   2.469  0.0167 -0.2093  1.0255
  351TIP3   OH222543   4.585   1.817  10.884  0.2137  0.1383 -0.1283
  351TIP3    H122544   4.514   1.838  10.822  0.1770  0.0661 -0.1105
  351TIP3    H222545   4.578   1.722  10.896  0.2136  0.1549 -0.0024
  352TIP3   OH222546   2.891   0.678  16.915 -0.1625  0.0760  0.0676
  352TIP3    H122547   2.874   0.584  16.912 -1.0175  0.2112 -2.9692
  352TIP3    H222548   2.977   0.686  16.955 -0.9350 -1.7825  2.3008
  353TIP3   OH222549   0.240   6.463  11.633 -0.2451  0.3652  0.6908
  353TIP3    H122550   0.254   6.430  11.544 -0.4337 -0.3053  0.9039
  353TIP3    H222551   0.328   6.466  11.671 -0.3362 -1.0792  1.0700
  354TIP3   OH222552   0.712   2.842   6.613 -0.6768  0.5841  0.0421
  354TIP3    H122553   0.722   2.773   6.679  1.3866  1.1975  0.4578
  354TIP3    H222554   0.619   2.840   6.590 -0.4173 -4.1022 -1.8672
  355TIP3   OH222555   2.340   1.455  16.111  0.2591 -0.0352 -0.4204
  355TIP3    H122556   2.431   1.473  16.089  0.5267 -0.5849  0.2063
  355TIP3    H222557   2.290   1.507  16.049  0.9956  1.2375  0.0017
  356TIP3   OH222558   4.858   4.366   2.168 -0.0104  0.0057 -0.0414
  356TIP3    H122559   4.887   4.294   2.224  1.1991  0.3104 -0.2460
  356TIP3    H222560   4.894   4.344   2.081 -0.1428  0.5499 -0.2355
  357TIP3   OH222561   2.586   2.568  15.555 -0.0115  0.5574  0.3129
  357TIP3    H122562   2.581   2.499  15.621  0.7989 -0.4126 -0.6065
  357TIP3    H222563   2.627   2.642  15.601 -0.5318  0.3210  1.1980
  358TIP3   OH222564   2.527   6.178  11.655  0.1723  0.4032  0.2758
  358TIP3    H122565   2.535   6.097  11.605 -1.3660 -0.4003  1.2525
  358TIP3    H222566   2.617   6.199  11.680  0.4811 -2.1834  1.7756
  359TIP3   OH222567   4.691   6.643  12.398  0.3027  0.0033 -0.4268
  359TIP3    H122568   4.747   6.686  12.462 -0.1684  0.1225 -0.0847
  359TIP3    H222569   4.607   6.688  12.406 -0.0122 -0.5598 -0.5134
  360TIP3   OH222570   3.838   2.950  17.194 -0.3053 -0.2800 -0.2296
  360TIP3    H122571   3.753   2.986  17.170 -0.3277  0.0164  0.2849
  360TIP3    H222572   3.867   2.901  17.117 -1.4604 -1.3520 -0.0123
  361TIP3   OH222573   2.477   4.717   2.003 -0.3965 -0.3967 -0.5145
  361TIP3    H122574   2.390   4.752   2.021 -1.0200 -1.5216 -1.2356
  361TIP3    H222575   2.537   4.784   2.034 -1.5208  0.3622  0.0666
  362TIP3   OH222576   6.033   1.911   4.852 -0.6664  0.0639 -0.3660
  362TIP3    H122577   6.093   1.984   4.837 -1.3739  0.6253 -0.5339
  362TIP3    H222578   5.946   1.946   4.829 -1.5387  0.3001  2.8101
  363TIP3   OH222579   4.227   5.981  17.074  0.0031 -0.3110 -0.2906
  363TIP3    H122580   4.141   6.022  17.065  0.9487  1.5425 -1.4417
  363TIP3    H222581   4.248   5.990  17.168 -0.4301  0.5836 -0.2659
  364TIP3   OH222582   3.759   6.476  11.963  0.1894  0.2160 -0.1965
  364TIP3    H122583   3.693   6.472  11.894 -2.1469 -1.2133  1.9835
  364TIP3    H222584   3.788   6.568  11.963 -3.0909  1.3661 -0.1092
  365TIP3   OH222585   4.382   2.110   4.226 -0.2537 -0.1693 -0.5262
  365TIP3    H122586   4.417   2.175   4.287 -0.6142 -0.9703  0.5726
  365TIP3    H222587   4.296   2.143   4.202 -0.1559  0.0982 -0.5151
  366TIP3   OH222588   3.892   4.438   2.573  0.1659 -0.1332 -0.0897
  366TIP3    H122589   3.891   4.450   2.668 -1.8821  0.3255 -0.1274
  366TIP3    H222590   3.985   4.439   2.550  0.6677  0.8586  1.7682
  367TIP3   OH222591   1.889   0.297  12.615 -0.7982 -0.1407  0.4410
  367TIP3    H122592   1.808   0.344  12.595 -0.9770 -0.7925 -0.3916
  367TIP3    H222593   1.938   0.297  12.533  0.2693  0.6393  1.0421
  368TIP3   OH222594   3.616   3.618  15.790 -0.0985  0.0650 -0.6184
  368TIP3    H122595   3.693   3.562  15.791 -0.3892 -0.3540  0.6495
  368TIP3    H222596   3.627   3.676  15.865 -0.9443  0.0829 -0.4911
  369TIP3   OH222597   6.109   4.698   2.974  0.1167 -0.1068  0.9280
  369TIP3    H122598   6.062   4.738   3.048  1.9036  0.0121  2.0815
  369TIP3    H222599   6.049   4.705   2.901 -1.0512  1.4436  1.9488
  370TIP3   OH222600   5.596   5.615   0.489  0.0820 -0.5412  0.5623
  370TIP3    H122601   5.687   5.643   0.494 -0.5751  2.0083  0.0860
  370TIP3    H222602   5.564   5.620   0.579  0.4414 -1.6192  0.7578
  371TIP3   OH222603   5.774   5.407  14.157 -0.1042  0.3700 -0.3269
  371TIP3    H122604   5.813   5.409  14.070  0.4478  1.8724 -0.0839
  371TIP3    H222605   5.681   5.427  14.142 -0.0636  0.3578 -0.5927
  372TIP3   OH222606   3.973   2.861   1.830 -0.3690  0.6055  0.4398
  372TIP3    H122607   4.042   2.872   1.765  1.3218 -0.9887  1.8508
  372TIP3    H222608   4.010   2.898   1.911 -1.4606  0.4015  1.0492
  373TIP3   OH222609   3.582   5.050  13.494  0.1410  0.1086  0.0169
  373TIP3    H122610   3.631   5.131  13.479 -0.2687  0.2709 -0.4730
  373TIP3    H222611   3.540   5.032  13.411  2.4431 -2.1433 -0.7765
  374TIP3   OH222612   6.813   3.170  12.720 -0.5215  0.3745  0.5414
  374TIP3    H122613   6.842   3.116  12.794  0.4015  0.5721  0.3372
  374TIP3    H222614   6.894   3.204  12.682 -1.0194  0.7491 -0.2066
  375TIP3   OH222615   2.020   2.443  15.415  0.2216  0.1783 -0.4119
  375TIP3    H122616   2.100   2.488  15.388 -0.8410  1.9823 -0.7024
  375TIP3    H222617   2.048   2.386  15.488  1.2679  3.0119  1.5774
  376TIP3   OH222618   4.941   0.043  13.778 -0.5858 -0.5280  0.1696
  376TIP3    H122619   4.871   0.023  13.716 -1.5448  0.4355  0.9192
  376TIP3    H222620   5.004   0.095  13.728 -0.1487 -1.7837 -0.6342
  377TIP3   OH222621   3.575   2.821  13.803  0.3550 -0.0892 -0.1626
  377TIP3    H122622   3.496   2.768  13.798 -1.6182  2.5397  0.8360
  377TIP3    H222623   3.633   2.772  13.861 -2.3083 -0.1567  2.6907
  378TIP3   OH222624   2.919   2.079  12.942  0.2068 -0.8728  0.5103
  378TIP3    H122625   2.964   2.005  12.901  2.0304 -0.2960  1.3847
  378TIP3    H222626   2.907   2.142  12.870 -0.4423 -1.5675 -0.0115
  379TIP3   OH222627   4.834   4.429  13.093  0.1025  0.6023  0.0738
  379TIP3    H122628   4.842   4.404  13.186  0.1548 -0.0444 -0.0954
  379TIP3    H222629   4.925   4.441  13.064  0.0533  1.6639  0.3202
  380TIP3   OH222630   4.309   4.912   6.229 -0.3989 -0.2390  0.5476
  380TIP3    H122631   4.376   4.949   6.285  0.4249  0.6345 -0.9714
  380TIP3    H222632   4.294   4.978   6.162 -0.9535 -1.4673 -0.5816
  381TIP3   OH222633   6.242   1.917  12.778 -0.9842 -0.0209 -0.4064
  381TIP3    H122634   6.332   1.885  12.772 -0.0342  2.3291  0.0820
  381TIP3    H222635   6.217   1.936  12.688  0.3207  2.4283 -0.3477
  382TIP3   OH222636   5.015   3.217   3.422 -0.2969 -0.3290 -0.2293
  382TIP3    H122637   5.091   3.187   3.372 -0.5000  0.2387 -0.8871
  382TIP3    H222638   5.011   3.311   3.407 -0.6217 -0.2193  0.5080
  383TIP3   OH222639   4.290   3.716  10.636 -0.3908 -0.1645 -0.3078
  383TIP3    H122640   4.354   3.778  10.602  0.5826 -1.1119 -0.2874
  383TIP3    H222641   4.278   3.741  10.728  0.1971 -0.1500 -0.2292
  384TIP3   OH222642   1.140   5.482  10.839  0.1789  0.1166  0.3412
  384TIP3    H122643   1.227   5.472  10.878  0.8151  2.2461 -0.4183
  384TIP3    H222644   1.145   5.431  10.758  1.4089  1.6923 -0.6320
  385TIP3   OH222645   0.466   0.415  14.835 -0.4479  0.4779  0.1495
  385TIP3    H122646   0.464   0.328  14.794  0.4903  0.5838 -0.1579
  385TIP3    H222647   0.439   0.399  14.926  0.7637 -0.3452  0.4050
  386TIP3   OH222648   0.196   1.138  14.606  0.0694  1.0201  0.6728
  386TIP3    H122649   0.254   1.182  14.544 -0.9160  3.1646  1.1725
  386TIP3    H222650   0.247   1.132  14.687  0.8580 -0.5087  0.0991
  387TIP3   OH222651   2.937   1.296   1.100 -0.5531 -0.0375 -1.1754
  387TIP3    H122652   2.933   1.210   1.142  0.5584 -0.3274 -1.6397
  387TIP3    H222653   2.877   1.351   1.152 -1.8035 -1.2402 -1.2838
  388TIP3   OH222654   5.821   4.195  12.853 -0.0213 -0.3434  0.0579
  388TIP3    H122655   5.733   4.162  12.868  0.3696 -1.0103  1.0122
  388TIP3    H222656   5.822   4.222  12.761 -0.9825 -1.0450 -0.1692
  389TIP3   OH222657   4.235   6.684  16.638 -0.6821 -0.5259  0.4843
  389TIP3    H122658   4.298   6.749  16.668 -0.2613 -0.7921  0.1938
  389TIP3    H222659   4.233   6.695  16.543 -1.2929 -0.3275  0.5112
  390TIP3   OH222660   6.331   0.233   6.374 -0.3331 -0.8661  0.2924
  390TIP3    H122661   6.243   0.196   6.366 -0.3690 -0.7025 -0.0504
  390TIP3    H222662   6.333   0.271   6.462  0.1974 -3.0009  1.2745
  391TIP3   OH222663   5.111   1.337   3.075 -0.8824  0.4650  0.0999
  391TIP3    H122664   5.032   1.329   3.128  0.0226 -0.1908  1.4046
  391TIP3    H222665   5.113   1.429   3.048 -1.3885  0.8116  1.1869
  392TIP3   OH222666   2.000   5.091  15.400 -0.1409  0.1354  0.1855
  392TIP3    H122667   2.091   5.063  15.398 -0.5653 -1.3712 -2.0254
  392TIP3    H222668   1.953   5.020  15.442 -0.9290 -1.7734 -3.5277
  393TIP3   OH222669   4.370   4.062   5.062  0.5657  0.1921  0.8635
  393TIP3    H122670   4.313   4.139   5.062  1.6955  1.1089 -1.1053
  393TIP3    H222671   4.310   3.988   5.069 -0.9645  1.1006 -1.4280
  394TIP3   OH222672   2.725   3.577  15.898  0.1810  0.6995 -0.1600
  394TIP3    H122673   2.693   3.541  15.815  0.6326  0.4645 -0.2330
  394TIP3    H222674   2.649   3.623  15.934 -0.0258  0.7962 -0.6963
  395TIP3   OH222675   5.370   1.998   3.694 -0.0502  0.1811 -0.6847
  395TIP3    H122676   5.367   1.965   3.605 -2.1532 -0.2755 -0.5139
  395TIP3    H222677   5.297   2.060   3.699 -0.8938 -0.8625  1.0512
  396TIP3   OH222678   1.566   0.054   5.491  0.3679  0.2475 -0.4041
  396TIP3    H122679   1.600   0.009   5.569  2.6988  1.3164 -0.7313
  396TIP3    H222680   1.480   0.086   5.519 -0.5086 -2.5077  0.4907
  397TIP3   OH222681   4.134   2.804  12.940  0.1017  0.3362  0.4210
  397TIP3    H122682   4.205   2.753  12.979  1.1142  0.7430 -0.8233
  397TIP3    H222683   4.161   2.895  12.951  1.0964  0.4481 -2.3366
  398TIP3   OH222684   0.930   1.053   0.006  0.1913  0.6384  0.0090
  398TIP3    H122685   0.957   1.125  -0.050  0.9348  1.2939  1.1601
  398TIP3    H222686   0.953   0.973  -0.042 -2.2204  1.0755 -2.0714
  399TIP3   OH222687   1.964   1.282  17.191  0.1753  0.1124 -0.2472
  399TIP3    H122688   1.941   1.360  17.242  0.4394  0.5481 -0.7768
  399TIP3    H222689   2.031   1.313  17.130 -1.8604  0.2428 -2.5880
  400TIP3   OH222690   0.375   3.964  15.810 -0.3433  0.1231  0.0445
  400TIP3    H122691   0.467   3.946  15.790 -0.1749 -0.0490  0.9456
  400TIP3    H222692   0.330   3.882  15.790 -0.2349  0.0728  0.0067
  401TIP3   OH222693   5.658   2.304  11.360 -0.0653  0.1669  0.2529
  401TIP3    H122694   5.723   2.293  11.290 -0.9278 -0.1262 -0.5212
  401TIP3    H222695   5.608   2.223  11.360 -0.1029  0.1738  1.2076
  402TIP3   OH222696   0.696   1.986  16.684 -0.4216 -0.5576 -0.1079
  402TIP3    H122697   0.719   1.910  16.632  2.3680 -1.1143  1.7518
  402TIP3    H222698   0.658   1.951  16.764 -1.5546  0.1698 -0.2865
  403TIP3   OH222699   0.464   3.568  14.200 -0.0002 -0.0885  0.3385
  403TIP3    H122700   0.397   3.623  14.241 -0.4975 -0.9861  0.7363
  403TIP3    H222701   0.440   3.566  14.108 -0.7027 -0.6460  0.5252
  404TIP3   OH222702   1.567   0.125  12.747  0.3735  0.7192  0.3270
  404TIP3    H122703   1.544   0.183  12.675 -0.1534  1.4069  1.0276
  404TIP3    H222704   1.495   0.135  12.810  1.9175  2.0191  2.0248
  405TIP3   OH222705   5.373   3.266   2.790  0.2313  0.3419 -0.0337
  405TIP3    H122706   5.464   3.281   2.814  0.4340  1.1696 -1.2342
  405TIP3    H222707   5.375   3.184   2.741  0.1323 -0.2508  0.9219
  406TIP3   OH222708   6.263   3.682   4.667  0.2465 -0.1239  0.2275
  406TIP3    H122709   6.274   3.615   4.599 -0.0294  2.1658 -2.2256
  406TIP3    H222710   6.313   3.757   4.635  0.7300  0.8507  2.9691
  407TIP3   OH222711   5.725   0.440  13.732  0.1298 -0.1797  0.1270
  407TIP3    H122712   5.720   0.466  13.640 -1.2257 -2.0406 -0.3750
  407TIP3    H222713   5.635   0.446  13.764  0.0363 -2.4634  0.4353
  408TIP3   OH222714   2.075   5.414  13.658 -0.4314  0.0142  0.4093
  408TIP3    H122715   2.022   5.338  13.638 -1.3987  0.6785  0.3994
  408TIP3    H222716   2.116   5.437  13.574  0.2920 -0.8001  0.5282
  409TIP3   OH222717   6.048   3.355  11.169 -0.4259  0.0818  0.4383
  409TIP3    H122718   6.079   3.276  11.126 -1.0677  0.0874 -0.0455
  409TIP3    H222719   6.081   3.348  11.259 -0.7708 -0.9071  0.4939
  410TIP3   OH222720   0.662   1.647   2.642 -0.6970  0.1385  0.3576
  410TIP3    H122721   0.713   1.704   2.584 -0.1516  1.6416  2.2105
  410TIP3    H222722   0.719   1.572   2.658 -0.3190  0.3438  0.0065
  411TIP3   OH222723   5.271   4.051  14.497  0.0468 -0.0033 -0.6110
  411TIP3    H122724   5.180   4.053  14.467 -1.1024  1.8448  2.5378
  411TIP3    H222725   5.313   4.123  14.450 -0.1618 -0.6143 -1.7855
  412TIP3   OH222726   2.972   4.526  16.457 -1.0507  0.3769 -0.0394
  412TIP3    H122727   2.987   4.502  16.366  1.5346 -0.7433  0.5928
  412TIP3    H222728   2.989   4.620  16.461 -1.1383  0.4213 -0.7118
  413TIP3   OH222729   2.331   5.765  12.565  0.6410 -0.2303  0.1821
  413TIP3    H122730   2.323   5.724  12.651 -0.3841  0.5368  0.4672
  413TIP3    H222731   2.372   5.850  12.583  0.2632  0.0049 -0.0637
  414TIP3   OH222732   0.953   3.452   2.695 -0.1912 -0.4276 -0.0557
  414TIP3    H122733   1.007   3.526   2.666 -2.9285  1.9611  0.4704
  414TIP3    H222734   0.902   3.428   2.618  1.0141 -2.1883 -0.3571
  415TIP3   OH222735   0.916   4.569   3.876  0.0086 -0.2699  0.1637
  415TIP3    H122736   0.946   4.503   3.938 -0.0315  0.3789  0.8923
  415TIP3    H222737   0.909   4.522   3.793 -0.6760 -1.3515  0.7938
  416TIP3   OH222738   0.084   3.894  16.825 -0.4848  0.1335 -0.3360
  416TIP3    H122739   0.039   3.880  16.908  1.0826 -3.0372  0.1392
  416TIP3    H222740   0.144   3.966  16.842 -2.6108  1.9285  0.1025
  417TIP3   OH222741   4.015   4.451  11.246 -0.4417  0.1444 -0.2336
  417TIP3    H122742   4.058   4.536  11.239  0.1876 -0.0047  1.3975
  417TIP3    H222743   4.063   4.395  11.184  0.7490  0.3846  0.4310
  418TIP3   OH222744   6.542   3.042  15.140 -0.6603  0.1456  0.3074
  418TIP3    H122745   6.483   2.967  15.154 -0.1763 -0.2064  0.4734
  418TIP3    H222746   6.579   3.059  15.226  1.2181 -1.0910 -0.1813
  419TIP3   OH222747   2.005   4.849  14.518  0.2196 -0.1684 -0.0670
  419TIP3    H122748   2.032   4.762  14.489 -0.4061 -0.6924  0.8702
  419TIP3    H222749   1.912   4.840  14.537  0.6021  0.1202  2.1530
  420TIP3   OH222750   0.715   0.420   6.808 -0.6276  0.5168 -0.4646
  420TIP3    H122751   0.756   0.367   6.740  0.1417 -1.7333  1.6025
  420TIP3    H222752   0.789   0.453   6.860 -1.1939  2.2111 -0.6612
  421TIP3   OH222753   5.383   6.017   0.882 -0.0560 -0.0124 -0.2546
  421TIP3    H122754   5.473   5.989   0.899 -0.1005  0.8195  1.5444
  421TIP3    H222755   5.387   6.112   0.878 -0.3647 -0.0180 -3.5218
  422TIP3   OH222756   0.960   0.771  12.955  0.4899 -0.2389  0.3141
  422TIP3    H122757   1.045   0.779  12.998 -0.1564  1.5606  1.3373
  422TIP3    H222758   0.973   0.813  12.870  0.5752  0.1862  0.5367
  423TIP3   OH222759   5.007   6.342   0.767  0.3495  0.7812  0.2043
  423TIP3    H122760   5.083   6.312   0.718  0.3467  0.1571  0.5709
  423TIP3    H222761   5.028   6.323   0.858 -1.2700 -1.8006  0.1282
  424TIP3   OH222762   6.746   4.707   5.185  0.5564 -0.8178 -0.4910
  424TIP3    H122763   6.674   4.736   5.242  0.9333 -0.9423  0.0586
  424TIP3    H222764   6.723   4.617   5.163  0.0371 -0.5318 -1.1440
  425TIP3   OH222765   1.063   1.486  14.633 -0.0165 -0.8535 -0.1536
  425TIP3    H122766   1.031   1.523  14.715 -0.3138 -0.1384 -0.5858
  425TIP3    H222767   0.988   1.438  14.597 -0.0576 -0.6887 -0.2873
  426TIP3   OH222768   0.592   6.660   0.716  0.3511  0.3096  0.2851
  426TIP3    H122769   0.618   6.588   0.773 -0.2963 -0.2753 -0.1487
  426TIP3    H222770   0.623   6.635   0.629  1.3946  1.2287  0.3604
  427TIP3   OH222771   5.773   0.451  11.478 -0.1696 -0.2177 -0.5833
  427TIP3    H122772   5.721   0.374  11.456  0.2219 -0.3557 -1.0373
  427TIP3    H222773   5.742   0.519  11.418 -1.2895  0.3088  0.5531
  428TIP3   OH222774   3.620   5.864  11.372 -0.0117 -0.1446 -0.0711
  428TIP3    H122775   3.650   5.898  11.456 -0.1227  0.3364 -0.2193
  428TIP3    H222776   3.629   5.769  11.379 -0.1573 -0.1162  0.5334
  429TIP3   OH222777   3.492   5.202  13.933 -0.5238 -0.3167  0.0868
  429TIP3    H122778   3.506   5.160  14.017 -1.0997  0.2025  0.4452
  429TIP3    H222779   3.526   5.139  13.869 -0.9080 -1.0978  0.6406
  430TIP3   OH222780   2.509   1.161   3.358  0.5822 -0.5750 -0.1778
  430TIP3    H122781   2.424   1.194   3.329 -0.1780 -0.9814  1.4386
  430TIP3    H222782   2.508   1.068   3.338  0.1713 -0.7996  0.8182
  431TIP3   OH222783   4.367   0.462   2.730 -0.0427 -0.0956  0.0509
  431TIP3    H122784   4.378   0.487   2.638  1.1789  0.1428  0.2528
  431TIP3    H222785   4.399   0.372   2.734  0.4732  0.0983  0.3551
  432TIP3   OH222786   0.192   3.259  14.625  0.2192  0.5450 -0.6639
  432TIP3    H122787   0.224   3.182  14.578 -0.8075  0.5941 -1.4646
  432TIP3    H222788   0.102   3.239  14.648  0.7941  0.3333  1.7560
  433TIP3   OH222789   3.898   0.375  12.623 -0.3337 -0.0863 -0.3654
  433TIP3    H122790   3.991   0.354  12.628 -0.2855 -0.4668 -2.1983
  433TIP3    H222791   3.853   0.296  12.652 -0.1044  0.0887  0.4959
  434TIP3   OH222792   3.037   6.344   4.317  1.0250  0.4086 -0.6046
  434TIP3    H122793   2.966   6.404   4.294 -1.0009 -1.7374 -0.3288
  434TIP3    H222794   3.035   6.341   4.413 -0.7456 -2.0370 -0.6334
  435TIP3   OH222795   0.529   4.974   1.100  0.2205 -0.0288  0.1774
  435TIP3    H122796   0.466   4.905   1.079  0.6242 -0.2145 -0.4828
  435TIP3    H222797   0.585   4.936   1.167  0.0302 -0.0949  0.3004
  436TIP3   OH222798   2.551   1.048   3.624 -0.2313 -0.3345 -0.3795
  436TIP3    H122799   2.517   0.959   3.638 -0.4446 -0.3947 -1.1892
  436TIP3    H222800   2.610   1.039   3.549  0.9861 -0.0811  0.5256
  437TIP3   OH222801   5.195   1.340   3.731  0.0038  0.5751  0.1433
  437TIP3    H122802   5.268   1.325   3.671  1.7289 -0.8879  2.4189
  437TIP3    H222803   5.229   1.404   3.794 -1.1245  0.7911  0.5495
  438TIP3   OH222804   3.688   0.026   5.177  0.2941  0.6450 -0.6892
  438TIP3    H122805   3.618  -0.032   5.146  0.7252 -0.3154  0.1065
  438TIP3    H222806   3.658   0.114   5.152 -1.3862  0.3029 -0.0396
  439TIP3   OH222807   5.059   1.432  15.445 -0.5975  0.4291  0.3082
  439TIP3    H122808   5.048   1.403  15.354 -0.1295  1.5353 -0.1224
  439TIP3    H222809   4.972   1.426  15.483 -0.7897 -0.0959 -0.1963
  440TIP3   OH222810   6.247   6.200  10.352  0.2451  0.2041  0.0535
  440TIP3    H122811   6.290   6.229  10.433  1.2724  1.2708 -0.8488
  440TIP3    H222812   6.160   6.241  10.355 -0.1921 -0.7256  1.1537
  441TIP3   OH222813   5.693   0.365   0.302 -0.0643 -0.0168 -0.2785
  441TIP3    H122814   5.624   0.389   0.364  0.7386 -0.0599  0.6593
  441TIP3    H222815   5.654   0.298   0.246 -1.5191  1.5913 -1.2714
  442TIP3   OH222816   4.052   1.738   3.743 -0.1374  0.0914 -0.5100
  442TIP3    H122817   4.044   1.761   3.650 -1.5626  1.0628 -0.1917
  442TIP3    H222818   3.975   1.778   3.784 -0.1774 -1.3289  0.9092
  443TIP3   OH222819   1.058   5.570  13.605 -0.2908  0.1696  0.5094
  443TIP3    H122820   1.028   5.631  13.538 -1.0920 -0.0594  0.6501
  443TIP3    H222821   1.140   5.535  13.571 -1.1463 -0.6525 -0.7972
  444TIP3   OH222822   4.360   2.482   3.750  0.7417  0.1783 -0.5546
  444TIP3    H122823   4.432   2.456   3.807 -0.8280  0.9353  1.9808
  444TIP3    H222824   4.340   2.572   3.777  0.0925  0.6923 -2.5711
  445TIP3   OH222825   3.931   5.501   4.591  0.0908 -0.2053 -0.1117
  445TIP3    H122826   4.018   5.492   4.554  0.3762 -0.1910  0.5304
  445TIP3    H222827   3.885   5.562   4.533  0.1687 -1.0010 -1.0251
  446TIP3   OH222828   4.492   1.103   1.628 -0.2689  0.4376 -0.0726
  446TIP3    H122829   4.533   1.167   1.570  0.5946 -1.6362 -1.8912
  446TIP3    H222830   4.442   1.047   1.569  0.8227 -1.9179  1.1252
  447TIP3   OH222831   5.007   1.062   1.208  0.1313  0.3983  0.4074
  447TIP3    H122832   4.927   1.067   1.156  1.7595 -1.5299 -2.6045
  447TIP3    H222833   4.990   0.992   1.271  0.2999 -2.4532 -2.3911
  448TIP3   OH222834   3.802   4.210   5.261 -0.1798  0.4968  0.2944
  448TIP3    H122835   3.775   4.300   5.278 -0.2458  0.5024  0.1591
  448TIP3    H222836   3.758   4.158   5.329 -0.5511  0.5030  0.0604
  449TIP3   OH222837   3.607   4.294   1.679 -0.1437  0.1625  0.3687
  449TIP3    H122838   3.541   4.323   1.741 -1.3790 -1.2595 -0.1937
  449TIP3    H222839   3.618   4.367   1.618 -1.8446  0.1524 -0.0021
  450TIP3   OH222840   1.558   1.307  12.290 -0.2090  0.3151  0.1897
  450TIP3    H122841   1.621   1.250  12.247 -0.1242  0.5865 -0.0526
  450TIP3    H222842   1.585   1.396  12.265 -0.5907  0.4403  0.2113
  451TIP3   OH222843   0.833   1.535   5.182  0.7631 -0.0402 -0.7023
  451TIP3    H122844   0.766   1.479   5.220  1.9913 -0.9165  0.2426
  451TIP3    H222845   0.784   1.599   5.129 -0.7032 -1.7000 -1.4501
  452TIP3   OH222846   0.242   2.787  16.464 -0.1849  0.5597 -0.4690
  452TIP3    H122847   0.234   2.863  16.407 -0.9688 -0.0110 -1.1395
  452TIP3    H222848   0.262   2.714  16.404  1.0347  0.3115  0.2083
  453TIP3   OH222849   5.056   1.750  14.154 -0.0992 -0.0787  0.3369
  453TIP3    H122850   5.140   1.793  14.141 -0.9686  2.5096  2.2334
  453TIP3    H222851   5.076   1.657  14.156  2.3677  0.3196 -1.2396
  454TIP3   OH222852   3.660   5.196  15.020 -0.0086  0.1090 -0.2535
  454TIP3    H122853   3.707   5.271  15.057  0.2759  0.9405 -2.1483
  454TIP3    H222854   3.628   5.147  15.096  0.4111  1.7650  1.0499
  455TIP3   OH222855   5.947   3.072  14.085  0.1984  0.0078 -0.2018
  455TIP3    H122856   5.974   3.157  14.122  0.4590  0.0131 -0.3993
  455TIP3    H222857   5.862   3.054  14.125 -1.2663  1.7378 -2.3005
  456TIP3   OH222858   0.688   4.768   2.794  0.1038 -0.2367  0.3846
  456TIP3    H122859   0.594   4.769   2.779  0.5731 -2.0589 -4.4693
  456TIP3    H222860   0.716   4.859   2.779 -0.6086 -0.2768 -1.3553
  457TIP3   OH222861   3.633   2.049  16.692  0.4468 -0.0575 -0.6688
  457TIP3    H122862   3.670   2.092  16.769 -0.0214 -0.5619 -0.1554
  457TIP3    H222863   3.685   1.969  16.682  0.0213 -0.3602 -0.4358
  458TIP3   OH222864   3.238   6.712  16.175  0.0976 -0.3777  0.5178
  458TIP3    H122865   3.327   6.688  16.198  1.8253  0.8093 -3.8356
  458TIP3    H222866   3.241   6.808  16.166 -2.0966 -0.1314  1.6444
  459TIP3   OH222867   3.491   3.069  12.568 -0.1070  0.0183  0.0073
  459TIP3    H122868   3.463   2.980  12.589  0.7312  0.1083  1.6718
  459TIP3    H222869   3.522   3.105  12.651 -0.7931  2.0205 -0.5456
  460TIP3   OH222870   0.476   2.853  13.446 -0.2791 -0.3244  1.0041
  460TIP3    H122871   0.484   2.947  13.428  0.9763 -0.4313  0.9326
  460TIP3    H222872   0.544   2.813  13.392  0.4487 -1.0946  2.4515
  461TIP3   OH222873   5.613   4.294  13.063 -0.0958 -0.2686 -0.0147
  461TIP3    H122874   5.692   4.299  13.117 -0.1637  2.8418 -0.0418
  461TIP3    H222875   5.612   4.204  13.031  2.1974 -1.0436  1.7953
  462TIP3   OH222876   2.732   4.180   2.117 -0.1892  0.5083  0.0890
  462TIP3    H122877   2.654   4.229   2.146 -0.6736  0.9351 -1.7461
  462TIP3    H222878   2.711   4.154   2.027  1.2887 -0.4965  0.0050
  463TIP3   OH222879   0.455   1.063  11.253 -0.6672 -0.8509 -0.1355
  463TIP3    H122880   0.527   1.016  11.210  0.5915  2.3905 -2.0515
  463TIP3    H222881   0.498   1.140  11.291 -2.9488  0.5064 -0.1603
  464TIP3   OH222882   2.116   1.910   2.320 -0.8505 -0.0722 -0.3063
  464TIP3    H122883   2.048   1.974   2.343 -1.9901 -1.7145  1.1805
  464TIP3    H222884   2.104   1.896   2.226 -2.8546 -0.5461 -0.0416
  465TIP3   OH222885   2.823   1.023   5.393 -0.3254  0.3083  0.5368
  465TIP3    H122886   2.742   1.067   5.418 -2.0737 -2.0759 -0.5027
  465TIP3    H222887   2.805   0.988   5.305  1.5301 -0.9770  0.6076
  466TIP3   OH222888   2.367   3.303   1.558 -0.0063 -0.4284  0.5877
  466TIP3    H122889   2.290   3.299   1.500  0.8067 -1.1830 -0.4853
  466TIP3    H222890   2.342   3.252   1.635 -0.7784 -0.1783  0.5097
  467TIP3   OH222891   1.477   4.475  15.594  0.0843 -0.2802  0.6047
  467TIP3    H122892   1.392   4.484  15.637  0.2815  2.2102  0.6083
  467TIP3    H222893   1.465   4.403  15.532 -0.9083 -2.3750  3.0754
  468TIP3   OH222894   1.569   1.683   2.637 -0.7626  0.0215  0.0643
  468TIP3    H122895   1.569   1.627   2.715 -0.2056  0.0081  0.0620
  468TIP3    H222896   1.545   1.770   2.670 -1.6459 -0.2109  0.0642
  469TIP3   OH222897   6.811   5.347   5.533  0.0170  0.2229  0.0065
  469TIP3    H122898   6.902   5.353   5.562 -0.3042 -0.5169  1.2298
  469TIP3    H222899   6.817   5.313   5.444  0.9030 -1.1288  0.5472
  470TIP3   OH222900   1.252   3.062   5.028 -0.0570 -0.2878 -0.1098
  470TIP3    H122901   1.206   2.980   5.043  0.1200 -0.0724  1.9861
  470TIP3    H222902   1.260   3.101   5.115 -1.9778  2.9892 -1.2244
  471TIP3   OH222903   5.503   2.878  15.995 -0.3123 -0.2409  0.4732
  471TIP3    H122904   5.566   2.807  16.009 -0.9056 -0.6412  1.2452
  471TIP3    H222905   5.529   2.918  15.913  0.9433 -0.3959  0.7790
  472TIP3   OH222906   4.922   4.156  14.593 -0.8304 -0.5090 -0.0599
  472TIP3    H122907   4.893   4.201  14.672  1.4057  0.5850  0.2201
  472TIP3    H222908   4.896   4.065  14.606 -1.4322 -0.1565  1.4455
  473TIP3   OH222909   5.577   6.606   4.335 -0.0365  0.0690 -0.0113
  473TIP3    H122910   5.573   6.613   4.240  1.5644 -0.5183 -0.1585
  473TIP3    H222911   5.663   6.566   4.353  0.0940  1.0081  1.7190
  474TIP3   OH222912   5.895   1.312   3.831  0.0854 -0.0954  0.5664
  474TIP3    H122913   5.808   1.304   3.870  0.2526 -0.7062  0.8222
  474TIP3    H222914   5.890   1.392   3.778 -0.7332 -0.2966  0.3210
  475TIP3   OH222915   3.319   3.125   0.979 -0.0600  0.1221 -0.2088
  475TIP3    H122916   3.356   3.039   0.999 -0.6412 -0.6464 -2.2086
  475TIP3    H222917   3.318   3.170   1.063 -0.8891 -2.2790  1.1837
  476TIP3   OH222918   3.840   3.050  10.370 -0.1814  0.4353  0.3531
  476TIP3    H122919   3.805   3.139  10.374  0.8826  0.9204 -0.6643
  476TIP3    H222920   3.910   3.049  10.435  2.5760  1.6717 -2.3672
  477TIP3   OH222921   2.979   3.893  16.303 -0.3864  0.1823 -0.3201
  477TIP3    H122922   3.065   3.867  16.269 -0.5785  1.1392 -1.6070
  477TIP3    H222923   2.929   3.811  16.308 -0.1714 -0.0865 -1.9042
  478TIP3   OH222924   0.217   6.361   4.067  0.8789 -0.6602 -0.3128
  478TIP3    H122925   0.222   6.443   4.117  0.9495 -0.4945 -0.5882
  478TIP3    H222926   0.144   6.374   4.006 -0.2075 -1.4499  0.7830
  479TIP3   OH222927   6.031   0.253  15.694 -0.4702 -0.2022 -0.1801
  479TIP3    H122928   5.959   0.290  15.644 -0.2313  0.4673 -0.0368
  479TIP3    H222929   6.055   0.173  15.647 -2.7301 -1.6680  0.9422
  480TIP3   OH222930   0.994   4.343   5.621  0.0008  0.1630  0.0485
  480TIP3    H122931   1.057   4.415   5.623  0.3916 -0.1142 -1.2219
  480TIP3    H222932   1.043   4.271   5.581 -0.3766 -0.8275  1.3005
  481TIP3   OH222933   2.259   3.861   6.392  0.0698  0.2581 -0.6550
  481TIP3    H122934   2.313   3.921   6.443 -1.3475 -1.0408  2.6563
  481TIP3    H222935   2.318   3.788   6.373  0.2275 -0.0146  0.7293
  482TIP3   OH222936   4.887   6.765  16.904  0.2298 -0.0151  0.2663
  482TIP3    H122937   4.933   6.684  16.884  0.7985  0.1397  0.8773
  482TIP3    H222938   4.914   6.785  16.994  0.8904  1.3544 -0.2032
  483TIP3   OH222939   4.031   4.164  11.296  0.5969 -0.6710 -0.3494
  483TIP3    H122940   3.943   4.142  11.325  0.6500  0.0011  0.3693
  483TIP3    H222941   4.074   4.199  11.375  0.8840  0.8685 -1.1533
  484TIP3   OH222942   3.553   1.115  15.971 -0.5182  0.4260  0.4868
  484TIP3    H122943   3.467   1.158  15.971  0.3879  2.3796 -1.3624
  484TIP3    H222944   3.586   1.128  16.060 -1.8972  0.0709  1.0878
  485TIP3   OH222945   2.913   6.526   2.484  0.5769 -0.1126 -0.2638
  485TIP3    H122946   2.979   6.559   2.546  1.4396 -0.0319 -1.1976
  485TIP3    H222947   2.901   6.598   2.422 -0.1535 -0.2614 -0.3048
  486TIP3   OH222948   6.219   2.750   5.110  0.3708  0.1652 -1.0014
  486TIP3    H122949   6.223   2.821   5.174  0.9093 -0.1781 -0.6483
  486TIP3    H222950   6.151   2.691   5.143 -0.4326  0.7631 -1.5592
  487TIP3   OH222951   5.249   2.442  12.015  0.2334  0.7390 -0.1280
  487TIP3    H122952   5.201   2.505  11.962 -0.8539 -0.8374 -1.1172
  487TIP3    H222953   5.198   2.435  12.096 -0.1737  0.4773 -0.3990
  488TIP3   OH222954   3.338   4.313  17.163  0.6782 -0.2462  0.6753
  488TIP3    H122955   3.267   4.368  17.195  0.6644  0.7046 -0.8953
  488TIP3    H222956   3.294   4.236  17.127  0.0065  1.7696 -3.3211
  489TIP3   OH222957   6.416   6.480  16.398 -0.0354 -0.1820  0.1800
  489TIP3    H122958   6.509   6.466  16.378 -0.2072 -1.8193  0.3768
  489TIP3    H222959   6.415   6.547  16.466  1.0969 -1.0151  1.0545
  490TIP3   OH222960   0.211   1.360   2.325  0.0081 -0.4583  0.0257
  490TIP3    H122961   0.207   1.455   2.310 -0.1764 -0.5173 -0.2995
  490TIP3    H222962   0.185   1.350   2.416 -1.5283 -0.3211 -0.3634
  491TIP3   OH222963   3.533   1.322   2.266 -0.4232 -0.0037 -0.4904
  491TIP3    H122964   3.609   1.281   2.224 -0.6824 -1.3298  0.2742
  491TIP3    H222965   3.506   1.391   2.206  1.0461  0.1251 -1.0397
  492TIP3   OH222966   5.160   1.040   5.677 -0.3922 -0.4144  0.0253
  492TIP3    H122967   5.068   1.024   5.697 -0.4710 -2.1885 -1.4870
  492TIP3    H222968   5.200   1.062   5.761 -2.1422  0.2189  0.7379
  493TIP3   OH222969   2.473   5.985  14.927  0.0094  0.2095  0.0567
  493TIP3    H122970   2.449   6.017  15.014  1.3343 -0.5835  0.7561
  493TIP3    H222971   2.544   6.042  14.899 -0.5153  0.5598 -0.5950
  494TIP3   OH222972   0.910   5.673  13.138  0.0546  0.5332  0.2711
  494TIP3    H122973   0.818   5.648  13.136  0.4900 -1.3167 -2.9438
  494TIP3    H222974   0.913   5.758  13.093 -0.0975  0.7093  0.5910
  495TIP3   OH222975   3.034   3.907  12.924 -0.0905  0.1559  0.0242
  495TIP3    H122976   2.992   3.954  12.853 -2.2162 -0.0664  1.0478
  495TIP3    H222977   3.023   3.964  13.000 -1.1841 -1.1818  0.9197
  496TIP3   OH222978   3.482   3.568   1.149  0.1258 -0.1453 -0.1252
  496TIP3    H122979   3.546   3.636   1.169  1.0455 -0.8683 -0.5613
  496TIP3    H222980   3.405   3.591   1.202  0.4571  1.1529 -0.1664
  497TIP3   OH222981   5.419   0.918   5.572  0.1080 -0.0095 -0.4398
  497TIP3    H122982   5.484   0.949   5.635 -0.0071 -0.1939 -0.2305
  497TIP3    H222983   5.340   0.968   5.592 -0.1868 -0.6924  0.1408
  498TIP3   OH222984   1.066   4.658  16.554 -0.1116  0.3077 -0.3679
  498TIP3    H122985   1.081   4.676  16.461 -0.7498 -0.2902 -0.5960
  498TIP3    H222986   1.040   4.743  16.590 -0.9396  0.3281 -0.9706
  499TIP3   OH222987   1.666   6.731  11.421 -0.5308 -0.5526 -0.0504
  499TIP3    H122988   1.651   6.771  11.335  2.0826 -0.2787 -0.4648
  499TIP3    H222989   1.718   6.653  11.402  1.9587  0.6491  1.3487
  500TIP3   OH222990   5.432   1.143   6.149 -0.1127  0.0849  0.5847
  500TIP3    H122991   5.481   1.216   6.185 -0.7044 -0.4830  2.7143
  500TIP3    H222992   5.499   1.083   6.115  0.3668  1.5900 -1.2667
  501TIP3   OH222993   0.641   3.921   6.043 -0.4586  0.4868 -0.6280
  501TIP3    H122994   0.565   3.888   5.994  0.2814  0.8052 -2.0210
  501TIP3    H222995   0.640   4.015   6.029  1.3524  0.3028 -2.4364
  502TIP3   OH222996   5.168   1.439  15.693 -0.2909 -0.3228  0.5426
  502TIP3    H122997   5.150   1.446  15.599  0.2660 -0.2636  0.4401
  502TIP3    H222998   5.200   1.350  15.706  1.1162  0.1443  0.4186
  503TIP3   OH222999   3.517   0.384   4.894  0.0008  0.3289 -0.0130
  503TIP3    H123000   3.547   0.304   4.850  0.5077 -0.2582  1.3548
  503TIP3    H223001   3.586   0.404   4.957 -1.1505  0.5761  1.2093
  504TIP3   OH223002   4.207   4.875   0.395 -0.0175  0.3339 -0.3525
  504TIP3    H123003   4.203   4.780   0.394  0.8845  0.2896 -0.9822
  504TIP3    H223004   4.160   4.901   0.474 -0.9910 -0.5918 -0.6122
  505TIP3   OH223005   5.778   5.129  12.409  0.5366 -0.1004  0.4979
  505TIP3    H123006   5.772   5.091  12.322  1.3840 -1.2234  0.9116
  505TIP3    H223007   5.713   5.200  12.409 -1.0693 -1.5045 -0.3077
  506TIP3   OH223008   0.223   2.274  16.028 -0.5262  0.1635 -0.7818
  506TIP3    H123009   0.194   2.335  16.097  1.1361  1.2138 -0.9648
  506TIP3    H223010   0.151   2.211  16.021 -0.3757 -0.6102  2.6263
  507TIP3   OH223011   6.759   0.386  15.467  0.0843 -0.1588 -0.5377
  507TIP3    H123012   6.741   0.471  15.428  0.2176 -0.0779 -0.4236
  507TIP3    H223013   6.810   0.406  15.546 -0.5286 -0.2886 -0.1045
  508TIP3   OH223014   1.530   0.704   5.037 -0.3390 -0.0607 -0.2411
  508TIP3    H123015   1.587   0.702   4.960  3.6632 -0.6954  2.4062
  508TIP3    H223016   1.527   0.797   5.060 -2.7676  0.3315 -1.8204
  509TIP3   OH223017   6.620   0.361   4.103  0.3786  0.9880 -0.6175
  509TIP3    H123018   6.616   0.295   4.173 -4.0019 -0.4191 -1.8551
  509TIP3    H223019   6.712   0.384   4.097  1.6187 -2.2058  2.4716
  510TIP3   OH223020   4.025   0.344  12.033  0.8594 -0.0708 -0.6750
  510TIP3    H123021   3.931   0.346  12.053  1.0949  0.2727  0.4859
  510TIP3    H223022   4.060   0.422  12.076  1.7596 -0.4981 -0.6050
  511TIP3   OH223023   5.380   3.449   4.873  0.3352  0.0598 -0.2905
  511TIP3    H123024   5.368   3.420   4.783  1.9149 -2.7726  0.2748
  511TIP3    H223025   5.404   3.541   4.866 -1.0357  0.3341 -2.5926
  512TIP3   OH223026   2.735   0.979  12.503 -0.3269  0.3610 -0.2677
  512TIP3    H123027   2.701   1.069  12.504 -0.1032  0.4860  1.9447
  512TIP3    H223028   2.822   0.987  12.464 -0.1212  1.2140  0.3205
  513TIP3   OH223029   1.860   6.668  16.214  0.1802 -0.1131  1.0029
  513TIP3    H123030   1.871   6.576  16.239  0.4166 -0.1070  0.9274
  513TIP3    H223031   1.946   6.694  16.181 -0.3259 -0.3593 -0.5860
  514TIP3   OH223032   0.840   6.552  16.683 -0.6430  0.3487  0.1232
  514TIP3    H123033   0.755   6.589  16.708 -0.1796  1.4714  0.0786
  514TIP3    H223034   0.823   6.508  16.600 -0.7811  2.3255 -0.9604
  515TIP3   OH223035   3.334   2.638  13.795 -0.0093 -0.2124 -0.3886
  515TIP3    H123036   3.276   2.648  13.720 -2.0199 -1.2575  0.9344
  515TIP3    H223037   3.288   2.578  13.853  1.0463  1.1907  2.0663
  516TIP3   OH223038   1.970   0.301   2.616  0.3933  0.0586  0.6656
  516TIP3    H123039   1.942   0.346   2.537 -0.9124 -0.4034  0.8423
  516TIP3    H223040   1.912   0.335   2.685  1.2431  0.1582  1.3481
  517TIP3   OH223041   5.523   2.858  11.590 -0.3618 -0.0560  0.3548
  517TIP3    H123042   5.496   2.914  11.663  0.8294  0.1899  0.6232
  517TIP3    H223043   5.441   2.833  11.548 -0.9448  3.2513 -0.8199
  518TIP3   OH223044   0.617   0.886   3.080 -0.2628  0.6244  0.1035
  518TIP3    H123045   0.592   0.805   3.036  3.2786 -1.0322  0.7438
  518TIP3    H223046   0.554   0.896   3.151 -1.2853 -1.0819 -0.5073
  519TIP3   OH223047   4.672   3.735  13.974 -0.1045 -0.1982  0.7116
  519TIP3    H123048   4.678   3.642  13.997  0.1839  0.0617  1.7219
  519TIP3    H223049   4.630   3.776  14.049  1.7679  0.8313  1.2631
  520TIP3   OH223050   4.836   2.845  15.177  0.5542  0.1922  0.2721
  520TIP3    H123051   4.925   2.857  15.144 -0.3767  2.5635 -1.6917
  520TIP3    H223052   4.797   2.780  15.120  0.8743 -0.5512  0.8833
  521TIP3   OH223053   6.354   2.275   5.819 -0.0374  0.3234  0.3073
  521TIP3    H123054   6.313   2.255   5.735 -2.6290 -0.6625  1.6930
  521TIP3    H223055   6.288   2.326   5.866  1.4078  0.9763  1.7370
  522TIP3   OH223056   3.912   6.816  14.900 -0.1523  0.4521 -0.6531
  522TIP3    H123057   3.842   6.868  14.861  0.8789  1.8747 -0.7047
  522TIP3    H223058   3.881   6.725  14.896 -1.8894  1.0293 -0.8249
  523TIP3   OH223059   0.674   1.808  17.145  0.1711  0.5252 -0.3323
  523TIP3    H123060   0.760   1.838  17.114 -0.5822  1.1493 -1.9441
  523TIP3    H223061   0.667   1.844  17.233  1.9033 -0.2733  0.1892
  524TIP3   OH223062   1.925   1.523   3.996  0.1354  0.2004  0.1193
  524TIP3    H123063   2.012   1.494   4.025 -0.0813 -0.2376  0.3532
  524TIP3    H223064   1.869   1.447   4.012 -0.0552  0.0434 -1.2071
  525TIP3   OH223065   3.945   3.619  11.995 -0.7143  0.0001 -0.0500
  525TIP3    H123066   4.037   3.626  12.022 -0.2280 -0.9511 -1.3541
  525TIP3    H223067   3.949   3.578  11.909 -2.4952 -2.3620  0.8971
  526TIP3   OH223068   5.192   5.773  10.963 -0.2864  0.1607 -0.3370
  526TIP3    H123069   5.127   5.843  10.966 -0.9151 -0.3798 -1.0159
  526TIP3    H223070   5.212   5.764  10.869 -1.0798 -1.3581 -0.3744
  527TIP3   OH223071   0.088   5.524  14.640  0.3794  0.0738 -0.6372
  527TIP3    H123072  -0.003   5.519  14.670  0.1271  0.4796 -1.3196
  527TIP3    H223073   0.095   5.611  14.600  1.5993  0.8718  1.1519
  528TIP3   OH223074   0.232   5.925   0.356 -0.1658 -0.2599  0.6005
  528TIP3    H123075   0.322   5.895   0.370  0.1761  0.5454  0.1531
  528TIP3    H223076   0.179   5.868   0.412  0.5333 -1.2780  0.2493
  529TIP3   OH223077   1.912   3.994   6.339  0.5902  0.1805  0.5530
  529TIP3    H123078   1.900   4.073   6.392  2.0442 -0.0382  1.2413
  529TIP3    H223079   1.879   4.018   6.253 -0.6660  0.9484  1.2184
  530TIP3   OH223080   1.255   5.189  13.914  0.2881  0.4301 -0.6847
  530TIP3    H123081   1.223   5.276  13.939  0.6972  0.2965  0.3724
  530TIP3    H223082   1.282   5.149  13.997  0.6954 -0.4661 -1.2361
  531TIP3   OH223083   2.700   0.911   2.486 -0.0122 -0.2017 -0.0491
  531TIP3    H123084   2.738   0.828   2.514 -0.9828 -0.4390  0.6549
  531TIP3    H223085   2.622   0.920   2.542  0.2413  1.3165  0.0833
  532TIP3   OH223086   6.710   4.754   2.878 -0.4143 -0.2166 -0.0237
  532TIP3    H123087   6.767   4.749   2.802  1.8008 -0.5541  1.5595
  532TIP3    H223088   6.769   4.772   2.951 -2.7860  4.6454  1.1418
  533TIP3   OH223089   2.295   2.394   0.869 -0.2577 -0.2173 -0.6351
  533TIP3    H123090   2.288   2.437   0.954  0.2086 -4.4660  1.8394
  533TIP3    H223091   2.210   2.351   0.857 -0.1408 -0.0767 -2.1683
  534TIP3   OH223092   6.110   2.199   4.336 -0.3943 -0.3570 -0.0962
  534TIP3    H123093   6.151   2.131   4.389  2.3111 -0.1256 -1.6934
  534TIP3    H223094   6.076   2.153   4.260  1.2040 -0.0464 -1.0497
  535TIP3   OH223095   4.102   4.530   3.097  0.8242 -0.1259 -0.2349
  535TIP3    H123096   4.151   4.521   3.179  1.4291  0.4747 -0.5191
  535TIP3    H223097   4.128   4.616   3.063  1.6654 -0.9338 -1.7494
  536TIP3   OH223098   3.543   5.719  14.669 -0.0879 -0.2248 -0.0765
  536TIP3    H123099   3.515   5.806  14.642 -0.5450  0.8579  3.3597
  536TIP3    H223100   3.638   5.719  14.656 -0.0998  0.7460 -0.2484
  537TIP3   OH223101   4.281   5.461   1.162 -0.3883 -0.0104 -0.6747
  537TIP3    H123102   4.364   5.436   1.122  0.4161 -1.3855  1.6593
  537TIP3    H223103   4.242   5.379   1.193 -1.2252  0.8780  0.7759
  538TIP3   OH223104   5.317   0.329  14.474 -0.7644  0.1743  0.0741
  538TIP3    H123105   5.240   0.363  14.520 -0.7833  0.4652 -0.1713
  538TIP3    H223106   5.359   0.271  14.538  0.1176  1.8123  1.0545
  539TIP3   OH223107   6.472   4.902   2.518  0.6092  0.6670  0.0041
  539TIP3    H123108   6.496   4.875   2.607  2.3262  0.1468 -0.5781
  539TIP3    H223109   6.438   4.822   2.477 -0.7573  1.0440  0.3425
  540TIP3   OH223110   3.271   1.660  11.911  0.3749 -0.3919  0.0178
  540TIP3    H123111   3.226   1.690  11.990 -2.0298 -0.8839 -1.0812
  540TIP3    H223112   3.319   1.737  11.880  0.0099  0.2750  1.0655
  541TIP3   OH223113   3.267   1.968  13.062 -0.5488  0.1971  0.5841
  541TIP3    H123114   3.337   2.016  13.018 -1.7747  1.5689 -0.0035
  541TIP3    H223115   3.205   2.036  13.088 -2.4708 -1.0619 -0.4335
  542TIP3   OH223116   1.893   3.180  11.505 -0.2789  0.1676  0.0178
  542TIP3    H123117   1.819   3.234  11.532  0.2370  1.5375 -1.1439
  542TIP3    H223118   1.969   3.223  11.545  0.0501 -0.3002 -0.0935
  543TIP3   OH223119   2.298   3.206  11.531  0.3026 -0.4602  0.5549
  543TIP3    H123120   2.253   3.132  11.490 -0.2682 -0.2610  0.8202
  543TIP3    H223121   2.301   3.273  11.462  1.0327 -0.8119  0.2383
  544TIP3   OH223122   2.948   0.897  12.849 -0.6106  0.0382 -0.6508
  544TIP3    H123123   2.983   0.969  12.902  0.8325 -2.0309  1.3947
  544TIP3    H223124   3.008   0.890  12.775  2.3729 -2.1329  1.7400
  545TIP3   OH223125   4.904   3.425  12.459  0.1487  0.2469 -0.7168
  545TIP3    H123126   4.933   3.340  12.425 -2.4413 -0.8202 -0.5261
  545TIP3    H223127   4.904   3.483  12.383  0.1396 -0.4732 -1.2738
  546TIP3   OH223128   6.559   0.447  13.978  0.1623  0.3102  0.2645
  546TIP3    H123129   6.635   0.506  13.980  1.5953 -1.3497 -1.2816
  546TIP3    H223130   6.543   0.426  14.070  1.4577  0.8760  0.6514
  547TIP3   OH223131   5.135   1.638  11.900  0.7034 -0.0322  0.0810
  547TIP3    H123132   5.073   1.609  11.967 -2.8300 -0.5579 -3.0842
  547TIP3    H223133   5.122   1.733  11.895  1.3845  0.0870  0.5037
  548TIP3   OH223134   0.095   1.710  14.885  0.2740 -0.1801  0.0709
  548TIP3    H123135   0.115   1.765  14.810 -0.5366  0.2491  0.1597
  548TIP3    H223136   0.121   1.762  14.961 -3.1189  1.4115  0.3485
  549TIP3   OH223137   5.898   1.512  12.978  0.2098  0.4092  0.2128
  549TIP3    H123138   5.892   1.572  13.052  0.2101  0.2628  0.3327
  549TIP3    H223139   5.979   1.463  12.993  0.7444  1.0815 -0.4197
  550TIP3   OH223140   0.353   5.854   1.483  0.6471 -0.2253 -0.1144
  550TIP3    H123141   0.361   5.828   1.392 -0.2861 -0.9021 -0.0168
  550TIP3    H223142   0.442   5.876   1.510  1.1351 -1.2836 -0.8123
  551TIP3   OH223143   5.689   1.216   4.189  0.7674 -0.7573  0.9455
  551TIP3    H123144   5.645   1.284   4.240  1.4572 -0.0961  0.6802
  551TIP3    H223145   5.633   1.139   4.198 -0.7450  0.2017  0.1617
  552TIP3   OH223146   5.782   4.523   5.807 -0.9751  0.1295 -0.1549
  552TIP3    H123147   5.797   4.500   5.715 -2.0690  0.9640 -0.5671
  552TIP3    H223148   5.753   4.442   5.848 -2.1303  0.1082 -0.9563
  553TIP3   OH223149   1.455   1.190   2.423  0.7260 -0.1129  0.1844
  553TIP3    H123150   1.396   1.265   2.427 -0.5249 -0.8216 -2.4118
  553TIP3    H223151   1.397   1.114   2.430  1.1516 -0.8291 -2.5847
  554TIP3   OH223152   0.345   2.130  14.556  0.3267 -0.0575  0.3875
  554TIP3    H123153   0.275   2.177  14.512  1.9565  0.3102 -2.0041
  554TIP3    H223154   0.338   2.155  14.648  1.1487  5.0786 -0.6582
  555TIP3   OH223155   6.818   2.068  10.751 -0.6955  0.0253  0.2964
  555TIP3    H123156   6.834   2.162  10.756 -0.4608  0.0866 -1.2005
  555TIP3    H223157   6.736   2.060  10.704 -0.0484 -0.5371 -0.7659
  556TIP3   OH223158   3.330   2.044  12.312 -0.3045  0.5696 -0.3531
  556TIP3    H123159   3.270   1.991  12.363  1.4040  0.6062  1.8735
  556TIP3    H223160   3.290   2.131  12.309 -0.3513  0.6182  1.1786
  557TIP3   OH223161   4.853   4.246  17.019  0.5821  0.3607 -0.0112
  557TIP3    H123162   4.935   4.292  17.004  0.5354 -0.2125 -2.4764
  557TIP3    H223163   4.847   4.183  16.947 -2.2482  0.7624 -0.2606
  558TIP3   OH223164   2.055   6.141  11.943  0.3254  0.2839 -0.1625
  558TIP3    H123165   2.116   6.171  12.011  0.6741 -0.3317 -0.1911
  558TIP3    H223166   1.994   6.084  11.990 -0.1481  0.7950 -0.1587
  559TIP3   OH223167   5.660   0.507  15.105 -0.8119  0.0964  0.5979
  559TIP3    H123168   5.601   0.487  15.032  0.0727  2.7996 -1.0238
  559TIP3    H223169   5.735   0.449  15.091 -1.2099 -0.3136  0.1125
  560TIP3   OH223170   1.573   2.597   3.117 -0.3988 -0.3239 -0.5007
  560TIP3    H123171   1.581   2.573   3.209  0.7759  1.2248 -0.1453
  560TIP3    H223172   1.480   2.587   3.097 -0.3909 -2.4310  0.3131
  561TIP3   OH223173   2.168   5.962   5.630  0.2127 -0.3336  0.1212
  561TIP3    H123174   2.078   5.943   5.658 -0.2874  0.1939 -1.0599
  561TIP3    H223175   2.180   6.055   5.651  1.2378 -0.8629  2.1712
  562TIP3   OH223176   3.898   3.664  15.453 -0.5998 -0.2530  0.5180
  562TIP3    H123177   3.929   3.734  15.511 -3.1075 -0.2412  1.9916
  562TIP3    H223178   3.929   3.583  15.494  1.4496 -0.1490 -0.6556
  563TIP3   OH223179   5.206   3.133   4.598  0.4710 -0.6763  0.0405
  563TIP3    H123180   5.169   3.220   4.611 -1.4608 -1.6221  1.3794
  563TIP3    H223181   5.291   3.149   4.557  0.1110  1.8082  0.0988
  564TIP3   OH223182   4.086   1.724   1.752  0.2482  0.4299  0.2241
  564TIP3    H123183   4.025   1.777   1.803  0.5136  1.2156 -0.2523
  564TIP3    H223184   4.065   1.745   1.661  1.1190  0.5906  0.0528
  565TIP3   OH223185   2.594   2.524  17.118  0.2223  0.0455  0.0281
  565TIP3    H123186   2.650   2.596  17.090 -0.8848  1.0350  0.2574
  565TIP3    H223187   2.589   2.533  17.213 -1.0473  0.5644 -0.0635
  566TIP3   OH223188   3.964   2.591  16.205 -0.0241  1.4731  0.1611
  566TIP3    H123189   4.056   2.602  16.229  0.3695 -0.3685 -0.3559
  566TIP3    H223190   3.941   2.504  16.239 -0.8558  0.8863 -1.7965
  567TIP3   OH223191   5.730   2.592   5.116  1.0733 -0.5370  0.0665
  567TIP3    H123192   5.690   2.512   5.081  0.0182 -0.1378  0.3330
  567TIP3    H223193   5.715   2.587   5.211 -0.9067  0.9590 -0.1015
  568TIP3   OH223194   1.795   3.030   2.861  0.9617  0.3594 -0.1082
  568TIP3    H123195   1.712   3.047   2.816  0.0521 -0.6750  1.0800
  568TIP3    H223196   1.778   2.951   2.913  1.7699  1.6654  2.3281
  569TIP3   OH223197   2.305   5.927  14.688  0.1198  0.3878  0.2034
  569TIP3    H123198   2.359   5.917  14.767  1.4893  1.4678 -0.5464
  569TIP3    H223199   2.223   5.964  14.719 -0.3088 -1.4510  1.4085
  570TIP3   OH223200   5.660   1.464   3.830  0.6074 -0.1511  0.8079
  570TIP3    H123201   5.594   1.404   3.865  0.2207 -0.6868 -0.7505
  570TIP3    H223202   5.674   1.434   3.740  1.3324  1.3304  0.4011
  571TIP3   OH223203   5.249   2.625   2.671  0.5277 -0.3966  0.1965
  571TIP3    H123204   5.262   2.643   2.764 -0.7293 -0.7490  0.4559
  571TIP3    H223205   5.273   2.707   2.628  0.5183 -0.0266  0.8781
  572TIP3   OH223206   1.730   0.237   3.841  0.2135  0.0997 -0.3654
  572TIP3    H123207   1.635   0.250   3.849 -0.2086 -2.8072  0.2835
  572TIP3    H223208   1.758   0.208   3.927  1.3074 -1.1251 -1.0915
  573TIP3   OH223209   4.162   2.851   2.885  0.1798  0.2027 -0.2894
  573TIP3    H123210   4.135   2.894   2.804  0.1429 -0.7729 -0.8102
  573TIP3    H223211   4.129   2.761   2.877 -1.3936  0.5374  1.5773
  574TIP3   OH223212   2.541   5.678   1.905  0.1396  0.1909  0.3110
  574TIP3    H123213   2.517   5.643   1.819 -1.8201  0.1912  0.8148
  574TIP3    H223214   2.476   5.642   1.965  0.1279  1.9423  1.4292
  575TIP3   OH223215   6.738   4.412   5.069  0.5007 -0.3071  0.3061
  575TIP3    H123216   6.812   4.395   5.011 -0.3419 -2.7600 -0.2116
  575TIP3    H223217   6.771   4.391   5.156  0.8126 -0.0069  0.2609
  576TIP3   OH223218   3.959   2.800   0.528 -0.0180  0.0679  0.5682
  576TIP3    H123219   3.992   2.848   0.452  0.2910  1.4655  1.5416
  576TIP3    H223220   3.871   2.772   0.503  0.4982 -0.4896 -0.7057
  577TIP3   OH223221   1.059   3.120   2.158  0.1503 -0.4819  0.3298
  577TIP3    H123222   1.053   3.135   2.252 -0.6452  1.8205 -0.0206
  577TIP3    H223223   1.061   3.025   2.148 -0.5735 -0.7806  2.6220
  578TIP3   OH223224   2.181   0.583  14.292 -0.7589 -0.4881 -0.1845
  578TIP3    H123225   2.238   0.537  14.231 -1.3443 -0.1275 -1.0225
  578TIP3    H223226   2.216   0.562  14.378 -0.7353 -2.1280 -0.5525
  579TIP3   OH223227   5.605   1.299   3.313  0.2142 -0.2287 -0.4979
  579TIP3    H123228   5.530   1.240   3.318 -1.0419  1.3179 -0.6254
  579TIP3    H223229   5.664   1.257   3.251  0.4803 -2.5268  1.1515
  580TIP3   OH223230   1.829   2.550   4.506  0.6595 -0.7069  0.4225
  580TIP3    H123231   1.876   2.623   4.465  0.3775 -0.2424  0.8951
  580TIP3    H223232   1.751   2.537   4.451  0.5822 -0.4795  0.4758
  581TIP3   OH223233   0.602   1.461   1.138 -0.2054 -0.6782  0.7805
  581TIP3    H123234   0.660   1.452   1.214 -1.6905 -0.2710  2.0247
  581TIP3    H223235   0.541   1.387   1.147 -0.8301 -0.2172  0.3718
  582TIP3   OH223236   3.134   6.247   3.681  0.4262 -0.3026  0.2662
  582TIP3    H123237   3.141   6.240   3.585 -0.3578 -0.0489  0.1836
  582TIP3    H223238   3.109   6.159   3.709  0.6518 -0.3760  0.2383
  583TIP3   OH223239   5.660   1.665   1.132 -0.0999 -0.2765  0.3898
  583TIP3    H123240   5.565   1.673   1.122 -0.1910 -0.8336  0.7681
  583TIP3    H223241   5.690   1.754   1.149 -0.6993 -0.2558  1.4432
  584TIP3   OH223242   0.164   3.595   2.849  0.4898 -0.3209 -0.2113
  584TIP3    H123243   0.123   3.681   2.844  2.4937  0.5936 -2.3640
  584TIP3    H223244   0.104   3.537   2.802  0.1056  0.2961 -0.4861
  585TIP3   OH223245   4.980   6.182   6.789 -0.6600 -0.3092 -0.3243
  585TIP3    H123246   5.070   6.216   6.793 -0.6566 -0.3491 -0.0037
  585TIP3    H223247   4.939   6.229   6.717 -0.5129  0.0241 -0.1889
  586TIP3   OH223248   1.160   2.188   6.312  0.0977 -0.5126  0.0750
  586TIP3    H123249   1.068   2.190   6.285 -0.4820 -0.8146  1.9232
  586TIP3    H223250   1.206   2.237   6.244 -1.6265  0.8424 -0.1663
  587TIP3   OH223251   3.290   2.442  16.667 -0.1561  0.1692 -0.2915
  587TIP3    H123252   3.195   2.437  16.677 -0.1994  0.0450 -0.7547
  587TIP3    H223253   3.325   2.388  16.739 -0.4426 -0.0417 -0.3080
  588TIP3   OH223254   0.290   6.200  13.902  0.5431  0.1891 -0.0568
  588TIP3    H123255   0.306   6.114  13.863  0.2605 -0.2729  0.8207
  588TIP3    H223256   0.194   6.204  13.912  0.6257  0.2024  0.7929
  589TIP3   OH223257   3.997   0.392  11.731 -0.0183 -0.4194  0.0739
  589TIP3    H123258   4.041   0.475  11.710  0.7877 -0.8162  0.1620
  589TIP3    H223259   3.967   0.403  11.821 -0.7825  0.1434 -0.2432
  590TIP3   OH223260   6.032   5.104   1.382  0.2900 -0.6222 -0.3150
  590TIP3    H123261   6.035   5.089   1.477  3.1230 -0.0845 -0.2139
  590TIP3    H223262   6.080   5.031   1.345  0.7599  0.0940 -1.1637
  591TIP3   OH223263   0.325   3.864  17.106  0.4001 -0.4710 -0.0209
  591TIP3    H123264   0.406   3.889  17.062  1.8583 -0.7577  2.3105
  591TIP3    H223265   0.270   3.828  17.037  2.0810  0.1556 -1.7612
  592TIP3   OH223266   2.150   1.498   1.891  0.2993 -0.9285 -0.0127
  592TIP3    H123267   2.069   1.479   1.938 -0.0323  0.7499  0.1337
  592TIP3    H223268   2.195   1.561   1.946  0.6496 -0.1285 -1.1914
  593TIP3   OH223269   2.030   3.108  13.130 -0.1588 -0.1317 -0.5282
  593TIP3    H123270   2.083   3.172  13.179 -1.8440  0.0268  1.1818
  593TIP3    H223271   1.991   3.160  13.059  0.8680  0.0349 -0.9983
  594TIP3   OH223272   2.692   4.493   5.631  0.7750 -0.5136 -0.0328
  594TIP3    H123273   2.761   4.473   5.694 -0.1899 -1.2035  0.8298
  594TIP3    H223274   2.677   4.410   5.585  0.5663 -0.3454 -0.2728
  595TIP3   OH223275   6.429   1.611  14.269 -0.2190 -0.2791  0.0264
  595TIP3    H123276   6.465   1.600  14.181  0.0768 -2.0975  0.3421
  595TIP3    H223277   6.446   1.528  14.312 -0.8732  0.3899  1.6321
  596TIP3   OH223278   4.482   0.301  15.666  0.1473 -0.2421  0.2431
  596TIP3    H123279   4.528   0.237  15.613  1.9415  1.1043  0.0622
  596TIP3    H223280   4.472   0.377  15.609 -0.7838  0.1099  0.8439
  597TIP3   OH223281   6.506   2.730   4.947 -0.2710  0.0934 -0.4652
  597TIP3    H123282   6.533   2.804   5.001  1.4524 -0.7055 -0.1591
  597TIP3    H223283   6.411   2.726   4.957 -0.1697  0.9899  1.1582
  598TIP3   OH223284   4.544   6.221  13.593  0.5974 -0.2120  0.1442
  598TIP3    H123285   4.585   6.283  13.654 -0.0206 -0.4330  0.7951
  598TIP3    H223286   4.553   6.262  13.507 -0.4700  1.1528  0.6546
  599TIP3   OH223287   1.561   3.593  14.818  0.0840 -0.0145 -0.0052
  599TIP3    H123288   1.612   3.590  14.737  2.0460  1.5797  1.0819
  599TIP3    H223289   1.579   3.680  14.854  0.6795 -1.2613  2.9852
  600TIP3   OH223290   0.066   0.631  11.651 -0.2725  0.1328  0.0782
  600TIP3    H123291   0.040   0.655  11.562  2.4044  0.1019 -0.8087
  600TIP3    H223292   0.155   0.596  11.641  0.2723  0.5240  2.8365
  601TIP3   OH223293   4.333   1.577   2.543 -1.1165 -0.2326  0.1168
  601TIP3    H123294   4.309   1.546   2.456 -2.3527  2.3274 -0.5469
  601TIP3    H223295   4.379   1.659   2.528 -1.4973  0.3396  1.8663
  602TIP3   OH223296   3.867   3.390  15.009 -0.2592  0.1563  0.3841
  602TIP3    H123297   3.872   3.337  15.088 -0.9322 -2.0616 -0.9632
  602TIP3    H223298   3.804   3.460  15.030 -0.1235 -0.1492  1.8999
  603TIP3   OH223299   5.807   2.943  16.996 -0.5232 -0.0696  0.0637
  603TIP3    H123300   5.866   2.991  17.054 -0.0557  1.3430 -1.4897
  603TIP3    H223301   5.865   2.898  16.935 -1.0192  0.0429 -0.5014
  604TIP3   OH223302   4.953   6.608  11.271 -0.6818  0.0377 -0.1524
  604TIP3    H123303   4.967   6.578  11.181 -2.4646 -1.1590 -0.1014
  604TIP3    H223304   4.968   6.702  11.268  3.1752 -0.4334 -0.7861
  605TIP3   OH223305   2.458   0.120  12.306  0.4519 -0.0175  0.1189
  605TIP3    H123306   2.478   0.151  12.218  0.8926 -2.0595 -0.5475
  605TIP3    H223307   2.494   0.031  12.309  2.1611  0.6248  2.9939
  606TIP3   OH223308   4.131   4.555   3.926  0.0523 -0.0744  0.3920
  606TIP3    H123309   4.131   4.587   4.016 -0.9276  0.0872  0.3469
  606TIP3    H223310   4.222   4.563   3.898  0.2076  0.7208  1.0718
  607TIP3   OH223311   6.160   4.385  16.173 -0.3087 -0.4973 -0.8842
  607TIP3    H123312   6.131   4.452  16.111 -1.1186 -1.5587 -1.6715
  607TIP3    H223313   6.250   4.411  16.195 -1.2058  1.9042  0.3116
  608TIP3   OH223314   4.499   4.457  14.316  0.8269  0.3089  0.7897
  608TIP3    H123315   4.493   4.520  14.388 -3.0407  1.3545 -0.2432
  608TIP3    H223316   4.429   4.394  14.332  0.7876 -0.2624 -1.3041
  609TIP3   OH223317   1.604   2.470   3.967 -0.9161 -0.6837 -0.0070
  609TIP3    H123318   1.544   2.436   3.900 -1.1586  0.3779 -0.3508
  609TIP3    H223319   1.606   2.401   4.034 -0.5681 -1.8344 -1.1466
  610TIP3   OH223320   0.373   1.782   5.572 -0.1392 -0.6330  0.3912
  610TIP3    H123321   0.302   1.759   5.632 -0.5934  0.5433  0.3460
  610TIP3    H223322   0.413   1.860   5.611  0.9458 -1.1199  0.2646
  611TIP3   OH223323   0.615   1.811   5.319 -0.2801 -0.5630  0.5758
  611TIP3    H123324   0.635   1.771   5.235 -3.3698  0.5091 -0.8462
  611TIP3    H223325   0.690   1.868   5.338  0.3794 -0.6030 -1.6256
  612TIP3   OH223326   6.705   6.321   3.427 -0.5904 -0.3283  0.3122
  612TIP3    H123327   6.614   6.293   3.417 -1.2494  1.4503  0.9076
  612TIP3    H223328   6.717   6.327   3.522  0.7338 -2.2356  0.3086
  613TIP3   OH223329   6.123   2.335   1.354  0.3389 -0.2017  0.0759
  613TIP3    H123330   6.069   2.308   1.279 -0.8479  0.8951  0.4781
  613TIP3    H223331   6.157   2.254   1.390 -2.6288 -1.2206  0.9331
  614TIP3   OH223332   5.205   5.566  14.599 -0.0604 -0.3470 -0.2139
  614TIP3    H123333   5.263   5.613  14.658 -1.4810  0.1212  0.8631
  614TIP3    H223334   5.139   5.630  14.573  0.5642 -0.5134 -2.4339
  615TIP3   OH223335   3.952   6.112  14.780  0.0488  0.1868  0.0104
  615TIP3    H123336   3.876   6.062  14.811  1.5107 -0.4759  2.8580
  615TIP3    H223337   3.936   6.201  14.812 -0.6153  0.6264 -1.4850
  616TIP3   OH223338   3.822   6.116  12.340 -0.1571 -0.2375 -0.0458
  616TIP3    H123339   3.779   6.202  12.343  0.4487  0.1085 -0.9096
  616TIP3    H223340   3.883   6.123  12.268  0.6163 -1.0751  0.5155
  617TIP3   OH223341   5.548   1.710   5.705  0.3518 -0.1658  0.0333
  617TIP3    H123342   5.517   1.620   5.703 -0.6128  0.1579 -1.5530
  617TIP3    H223343   5.509   1.748   5.784 -1.7399 -0.3371 -0.8629
  618TIP3   OH223344   3.245   4.030   3.657  0.7603  0.4857 -0.2709
  618TIP3    H123345   3.243   4.090   3.582  2.4674  0.7716 -0.1468
  618TIP3    H223346   3.336   4.035   3.688  0.6935 -1.4207  0.3573
  619TIP3   OH223347   5.518   4.951  16.670 -0.2525 -0.0041  0.3661
  619TIP3    H123348   5.534   5.045  16.681  2.6566 -0.3934  0.3623
  619TIP3    H223349   5.444   4.946  16.610 -1.3224  2.2495  1.3745
  620TIP3   OH223350   5.235   5.978   6.085  0.3266 -0.2115 -0.1050
  620TIP3    H123351   5.288   5.906   6.051  0.4768 -0.1565  0.0109
  620TIP3    H223352   5.184   6.008   6.010  0.5259 -0.2062 -0.2379
  621TIP3   OH223353   3.231   3.292   3.090  0.0109  0.2693 -0.0948
  621TIP3    H123354   3.304   3.246   3.050  0.2153 -0.4494  1.0870
  621TIP3    H223355   3.260   3.384   3.093  0.0934  0.3087 -1.3111
  622TIP3   OH223356   6.765   0.390  13.249 -0.2652  0.5914 -0.6255
  622TIP3    H123357   6.735   0.337  13.176  1.0638  0.9071 -1.4399
  622TIP3    H223358   6.837   0.341  13.288  0.0230  1.1183 -0.4746
  623TIP3   OH223359   4.408   6.197  15.119 -0.0333  0.2745 -0.1547
  623TIP3    H123360   4.324   6.193  15.165  0.0113 -0.0023 -0.0954
  623TIP3    H223361   4.474   6.185  15.188  0.1904  2.9790  0.2295
  624TIP3   OH223362   0.850   6.570   5.642 -0.0584  0.0318 -0.4834
  624TIP3    H123363   0.868   6.647   5.696 -0.5599 -0.6424  0.6962
  624TIP3    H223364   0.936   6.530   5.629 -0.0819 -0.6525  1.1952
  625TIP3   OH223365   3.081   0.578  14.076 -0.1097  0.3372 -0.2403
  625TIP3    H123366   3.162   0.626  14.090  0.6531 -1.1866  0.7868
  625TIP3    H223367   3.070   0.577  13.981  1.2998  0.2168 -0.4264
  626TIP3   OH223368   0.816   5.773  15.616 -0.1090  0.4278 -0.0142
  626TIP3    H123369   0.879   5.806  15.680 -0.9389  0.3414  0.8778
  626TIP3    H223370   0.775   5.851  15.578 -0.0976  0.4687  0.0594
  627TIP3   OH223371   1.475   6.721  16.581 -0.4083 -0.9285  0.4229
  627TIP3    H123372   1.440   6.666  16.651  1.1901 -1.3563  0.9374
  627TIP3    H223373   1.428   6.694  16.503 -0.1645 -2.5448  0.8098
  628TIP3   OH223374   5.185   4.361  15.722  0.2055  0.2131  0.1853
  628TIP3    H123375   5.181   4.383  15.629 -0.6188  0.2584  0.2251
  628TIP3    H223376   5.266   4.402  15.753  0.4910  0.1895 -0.5118
  629TIP3   OH223377   1.855   3.405  14.724 -0.1574  0.0553 -0.5965
  629TIP3    H123378   1.836   3.369  14.810 -1.9322 -0.1003 -1.0065
  629TIP3    H223379   1.857   3.329  14.666  2.7712 -0.0547 -0.5021
  630TIP3   OH223380   5.151   0.132  11.371  0.6496 -0.1801  0.5146
  630TIP3    H123381   5.121   0.221  11.348  1.3579 -0.2932 -0.9993
  630TIP3    H223382   5.151   0.131  11.467 -3.0156  0.1850  0.6592
  631TIP3   OH223383   5.143   4.745   5.649 -0.1321  0.4564 -0.0835
  631TIP3    H123384   5.162   4.688   5.723 -0.9840 -0.9606 -0.8850
  631TIP3    H223385   5.126   4.684   5.577 -1.4092  1.7271 -0.9060
  632TIP3   OH223386   5.204   0.915  15.123 -0.7400 -0.3156  0.3565
  632TIP3    H123387   5.139   0.845  15.125 -1.0904  0.0174  0.7659
  632TIP3    H223388   5.212   0.944  15.214 -0.2593 -0.1367  0.2608
  633TIP3   OH223389   3.124   2.097  14.454 -0.4599  0.2039  1.0963
  633TIP3    H123390   3.197   2.038  14.474 -0.4029  0.1771  0.8165
  633TIP3    H223391   3.154   2.146  14.377 -0.6712  0.3091  1.0817
  634TIP3   OH223392   3.395   5.073  12.576  0.2403  0.4279 -0.0499
  634TIP3    H123393   3.402   5.023  12.657  0.0892 -1.8110 -1.3303
  634TIP3    H223394   3.479   5.118  12.567  0.2949  0.6031  1.2470
  635TIP3   OH223395   6.704   6.470   3.948  0.0109 -0.9133 -0.3672
  635TIP3    H123396   6.684   6.553   3.991  0.9456 -0.3222 -1.0255
  635TIP3    H223397   6.634   6.459   3.883 -0.7345 -1.2131  0.4745
  636TIP3   OH223398   0.523   5.593  14.819  0.0198 -0.4372  0.2728
  636TIP3    H123399   0.520   5.689  14.824  3.1504 -0.2885  1.0161
  636TIP3    H223400   0.464   5.563  14.889  0.7617  0.9850  1.5592
  637TIP3   OH223401   4.220   5.593   4.248  0.3361  0.0184 -0.1991
  637TIP3    H123402   4.216   5.497   4.246 -1.7653  0.0227  0.7520
  637TIP3    H223403   4.222   5.618   4.155 -1.2081 -0.9526 -0.5404
  638TIP3   OH223404   6.717   1.796   3.880 -0.1656  0.3419 -0.1496
  638TIP3    H123405   6.774   1.870   3.900 -0.0053  0.4308 -0.8952
  638TIP3    H223406   6.768   1.719   3.906  0.0310  0.4543 -0.1954
  639TIP3   OH223407   6.310   4.583   1.187  0.3899  0.0521 -0.4227
  639TIP3    H123408   6.406   4.593   1.186  0.2984  1.8419  1.4173
  639TIP3    H223409   6.296   4.490   1.206  1.8660  0.2640  2.1312
  640TIP3   OH223410   4.015   3.872   3.410  0.3645  0.5067  0.2013
  640TIP3    H123411   4.073   3.888   3.484  0.4769  0.4481  0.1256
  640TIP3    H223412   3.975   3.787   3.429  0.1374  0.6499  0.3616
  641TIP3   OH223413   5.965   3.414  13.672 -0.3189 -0.1941 -0.0966
  641TIP3    H123414   6.038   3.354  13.661 -0.4536 -0.4005  0.1258
  641TIP3    H223415   5.998   3.482  13.731 -0.5976 -0.7950  0.7816
  642TIP3   OH223416   5.847   4.219   6.380  0.0095  0.2434 -0.1016
  642TIP3    H123417   5.830   4.154   6.312 -0.5620  1.6594 -1.3777
  642TIP3    H223418   5.763   4.230   6.424 -1.0007  2.7171 -2.3353
  643TIP3   OH223419   2.145   0.877  17.102  0.7468 -0.0229  0.5613
  643TIP3    H123420   2.201   0.933  17.049  0.3089 -0.2873 -0.2077
  643TIP3    H223421   2.129   0.927  17.182 -0.4204  1.3936 -0.4975
  644TIP3   OH223422   6.429   4.740  17.072  0.1057  0.1232 -0.1808
  644TIP3    H123423   6.505   4.794  17.052 -1.8485  2.9680 -0.5663
  644TIP3    H223424   6.398   4.772  17.156 -0.3860 -1.3710  0.2375
  645TIP3   OH223425   0.537   4.026   2.904  0.2678  0.1596  0.4110
  645TIP3    H123426   0.450   4.020   2.943  0.3804 -0.8024  0.5339
  645TIP3    H223427   0.523   4.068   2.819 -0.8043 -2.8238 -0.9877
  646TIP3   OH223428   0.947   6.017   3.578 -0.6494  0.2378 -0.2327
  646TIP3    H123429   0.894   5.984   3.505 -0.6922  1.0463 -0.5845
  646TIP3    H223430   0.985   5.939   3.617  0.2341 -0.1775 -1.7979
  647TIP3   OH223431   0.605   0.299   0.562 -0.3478  0.0629  0.0190
  647TIP3    H123432   0.554   0.366   0.606 -1.0446 -1.3817  1.5235
  647TIP3    H223433   0.567   0.216   0.590  2.3753 -1.0875  0.7052
  648TIP3   OH223434   4.806   5.711   2.667 -0.5163  0.0788 -0.1668
  648TIP3    H123435   4.889   5.748   2.695  0.5200 -1.5224 -0.9735
  648TIP3    H223436   4.740   5.775   2.696  1.0590  1.9743 -0.5760
  649TIP3   OH223437   3.655   4.249   0.157 -0.5226 -0.1907  0.4564
  649TIP3    H123438   3.634   4.160   0.128  0.6007 -0.3644  0.1068
  649TIP3    H223439   3.572   4.296   0.154 -0.8887 -0.8821 -0.6275
  650TIP3   OH223440   3.428   0.052   1.665 -0.0435  0.4972  0.3490
  650TIP3    H123441   3.477  -0.026   1.639 -0.7151 -0.4606  1.8146
  650TIP3    H223442   3.484   0.095   1.729  0.7011  1.7274 -1.0661
  651TIP3   OH223443   2.662   5.181   0.472  0.0986  0.5340  0.8529
  651TIP3    H123444   2.658   5.217   0.383  1.3739 -1.0320  0.1233
  651TIP3    H223445   2.610   5.101   0.468  0.3278  0.3515  1.4868
  652TIP3   OH223446   6.068   1.906  15.210  0.2380 -0.0121 -0.3664
  652TIP3    H123447   6.039   1.948  15.291 -1.0158 -0.5891 -0.4877
  652TIP3    H223448   6.163   1.917  15.209  0.1497  0.9738  0.6273
  653TIP3   OH223449   2.490   0.576  12.208 -0.2219  0.4851 -0.3363
  653TIP3    H123450   2.560   0.624  12.253  0.1078  0.1126 -0.4495
  653TIP3    H223451   2.494   0.607  12.117  0.7779 -0.6108 -0.6961
  654TIP3   OH223452   1.127   5.286  10.665  0.3323 -0.0949  0.0108
  654TIP3    H123453   1.078   5.247  10.592  1.6955 -0.7824 -0.5715
  654TIP3    H223454   1.163   5.212  10.713 -1.6033  0.2936  2.2077
  655TIP3   OH223455   6.146   6.523   1.664 -0.4855  0.2092 -0.0664
  655TIP3    H123456   6.083   6.584   1.626 -0.5476  0.0113 -0.2889
  655TIP3    H223457   6.176   6.470   1.589  0.4408  0.7382 -0.0851
  656TIP3   OH223458   6.801   1.140   2.931 -0.1737  0.3998  0.0119
  656TIP3    H123459   6.897   1.148   2.930  0.0328 -1.2797 -2.3494
  656TIP3    H223460   6.783   1.069   2.870 -2.8347 -1.0508  2.2791
  657TIP3   OH223461   4.431   3.838  13.432  0.2638 -0.1026  0.1505
  657TIP3    H123462   4.394   3.913  13.386  0.0051  0.2190  0.8768
  657TIP3    H223463   4.517   3.868  13.461  1.5713 -1.1333 -2.3243
  658TIP3   OH223464   3.380   6.201  12.440 -0.2594  0.0805 -0.4384
  658TIP3    H123465   3.472   6.175  12.428 -1.2384 -3.4367 -1.7492
  658TIP3    H223466   3.358   6.174  12.529 -0.2051  0.2471 -0.3751
  659TIP3   OH223467   3.682   4.419   0.405  0.4485 -0.0467  0.0632
  659TIP3    H123468   3.596   4.396   0.369  0.4507  0.3290 -0.1867
  659TIP3    H223469   3.745   4.377   0.347  0.4774  1.3544 -0.9719
  660TIP3   OH223470   5.959   6.736   5.700  0.0507  0.4071 -0.0119
  660TIP3    H123471   6.018   6.668   5.668  1.3005  1.3283  0.2705
  660TIP3    H223472   5.872   6.707   5.671  0.5207 -1.3614  0.2171
  661TIP3   OH223473   5.895   5.499   1.844  0.0533 -0.3108  0.0952
  661TIP3    H123474   5.881   5.593   1.831  0.1365  0.1838  2.9218
  661TIP3    H223475   5.947   5.494   1.924 -3.0856 -2.8295  2.2269
  662TIP3   OH223476   1.471   1.698   2.094 -1.2161 -0.4057  0.4387
  662TIP3    H123477   1.469   1.786   2.056 -0.8198 -0.5531  0.0726
  662TIP3    H223478   1.379   1.672   2.098 -1.2419 -0.6008 -0.9223
  663TIP3   OH223479   2.817   1.780  15.465 -0.1376  0.6380  0.0512
  663TIP3    H123480   2.832   1.854  15.406  0.2819 -0.6160 -1.4777
  663TIP3    H223481   2.724   1.759  15.455  0.1438 -0.2098 -0.9899
  664TIP3   OH223482   5.690   0.749  16.687 -0.4650 -0.4632 -0.1176
  664TIP3    H123483   5.628   0.821  16.675 -0.3257 -0.4488 -0.7456
  664TIP3    H223484   5.763   0.788  16.736 -0.1344 -0.0291 -0.9393
  665TIP3   OH223485   4.919   4.437  13.348 -0.8651 -0.0751 -0.2908
  665TIP3    H123486   4.883   4.487  13.422  0.4996  0.0885  0.2863
  665TIP3    H223487   5.005   4.408  13.378 -1.5939 -2.8083 -0.6031
  666TIP3   OH223488   2.379   6.631   2.827 -0.2186 -0.3220  0.2629
  666TIP3    H123489   2.307   6.600   2.881  1.4646 -0.9223  2.2906
  666TIP3    H223490   2.380   6.726   2.839  1.5008 -0.6098  3.2639
  667TIP3   OH223491   6.255   1.103  16.883  0.1505 -0.0129 -0.0217
  667TIP3    H123492   6.283   1.153  16.807 -1.5577  0.4721 -0.3802
  667TIP3    H223493   6.320   1.123  16.950  1.4044 -0.0513 -1.1848
  668TIP3   OH223494   3.060   0.949  11.765  0.3980  0.0631  0.4813
  668TIP3    H123495   3.050   1.005  11.688  1.5901  0.0674  0.3086
  668TIP3    H223496   3.114   1.000  11.825  3.2994 -1.6158 -0.5073
  669TIP3   OH223497   4.504   2.864  16.752  0.3648  0.0844 -0.0007
  669TIP3    H123498   4.488   2.954  16.724  0.7670  0.1589  0.0107
  669TIP3    H223499   4.416   2.828  16.767  0.2094  0.5346  0.1865
  670TIP3   OH223500   3.649   4.720  16.522 -0.8103 -0.1176  0.0014
  670TIP3    H123501   3.652   4.813  16.501  0.1550 -0.2325 -0.4237
  670TIP3    H223502   3.689   4.714  16.609 -2.5699  0.0616  0.8795
  671TIP3   OH223503   4.174   1.461  15.621 -0.3329  0.1393 -0.4016
  671TIP3    H123504   4.103   1.430  15.565  1.1232 -1.4510 -1.4866
  671TIP3    H223505   4.223   1.382  15.644  0.9554  1.1453  0.4864
  672TIP3   OH223506   2.266   6.671  10.715 -0.6373  0.0071  0.0857
  672TIP3    H123507   2.325   6.641  10.647  0.3504 -1.3559  1.4942
  672TIP3    H223508   2.206   6.597  10.730 -0.7982  0.2574  0.7328
  673TIP3   OH223509   2.270   2.577   4.425  0.1928 -0.5520 -0.1884
  673TIP3    H123510   2.244   2.545   4.339  3.6247 -2.1577 -0.8404
  673TIP3    H223511   2.206   2.539   4.486 -2.3906  0.7522 -1.9475
  674TIP3   OH223512   1.785   4.648   2.425  0.8481 -0.3613 -0.5181
  674TIP3    H123513   1.773   4.554   2.413  0.3789 -0.1950 -1.4105
  674TIP3    H223514   1.862   4.655   2.482  1.4819 -1.2654 -1.2429
  675TIP3   OH223515   0.342   2.699   3.973 -0.0312  0.0842 -0.5476
  675TIP3    H123516   0.257   2.657   3.978  0.6399 -1.6043 -2.2589
  675TIP3    H223517   0.323   2.792   3.985 -2.2448 -0.1346 -1.7915
  676TIP3   OH223518   4.616   6.333   0.228 -0.3207  0.2091 -0.6278
  676TIP3    H123519   4.687   6.393   0.251  0.3668 -0.8061 -0.0568
  676TIP3    H223520   4.554   6.340   0.300 -0.5135  0.6189 -0.8243
  677TIP3   OH223521   4.108   6.826  15.346 -0.4226 -0.0398  0.1681
  677TIP3    H123522   4.015   6.816  15.327 -0.2822  0.1018 -0.6153
  677TIP3    H223523   4.152   6.807  15.263  0.2604 -0.2938  0.5795
  678TIP3   OH223524   5.963   1.703   6.449 -0.1239  0.0141 -0.7160
  678TIP3    H123525   6.025   1.770   6.474 -0.0800 -0.9526  2.0959
  678TIP3    H223526   5.903   1.746   6.388  1.1697  1.9501 -0.6733
  679TIP3   OH223527   2.733   0.312  13.191  0.3350  0.4314  0.4165
  679TIP3    H123528   2.776   0.276  13.113 -1.8850 -0.4093 -0.5223
  679TIP3    H223529   2.714   0.403  13.167  0.4650  0.4337  0.3206
  680TIP3   OH223530   0.345   5.640  10.246 -0.3521 -0.8592  0.4633
  680TIP3    H123531   0.412   5.703  10.218  0.8888 -2.5893 -0.6061
  680TIP3    H223532   0.363   5.626  10.339  0.6545 -1.1637  0.2298
  681TIP3   OH223533   4.061   0.038   3.358  0.0694 -0.3697  0.0045
  681TIP3    H123534   4.086   0.066   3.270 -0.2644 -1.2164 -0.3766
  681TIP3    H223535   4.142   0.008   3.398 -0.0976 -1.9453 -0.7796
  682TIP3   OH223536   4.389   3.149  16.934  0.0056  0.5229  0.4085
  682TIP3    H123537   4.398   3.240  16.962  1.1908  0.4224  0.4073
  682TIP3    H223538   4.304   3.121  16.969  0.4707  1.0507  2.0137
  683TIP3   OH223539   3.270   5.963  13.471  0.3242  0.3882  0.3527
  683TIP3    H123540   3.216   5.896  13.428  0.2337  1.7336 -1.8009
  683TIP3    H223541   3.344   5.914  13.507  0.5980 -0.8529 -1.6866
  684TIP3   OH223542   1.875   5.789   1.421 -0.2177 -0.0171 -0.2602
  684TIP3    H123543   1.810   5.829   1.479 -2.8630 -0.6224 -2.5928
  684TIP3    H223544   1.932   5.861   1.395 -0.2403  0.6473  1.4162
  685TIP3   OH223545   4.367   5.131  16.457 -0.3485 -0.0091 -0.0751
  685TIP3    H123546   4.337   5.050  16.416 -0.6647  0.1782 -0.2162
  685TIP3    H223547   4.384   5.106  16.548  2.4962 -0.9716 -0.7617
  686TIP3   OH223548   3.212   4.485  15.971 -0.5826  0.2188  0.1241
  686TIP3    H123549   3.294   4.511  15.929 -0.4610 -0.5930 -0.1608
  686TIP3    H223550   3.195   4.397  15.937 -1.6103  0.4047  0.1248
  687TIP3   OH223551   2.637   3.677  16.794  0.3123  0.2260  0.2904
  687TIP3    H123552   2.558   3.658  16.844 -1.7983  0.2095 -2.7553
  687TIP3    H223553   2.707   3.631  16.841 -1.9413 -2.0384  1.6885
  688TIP3   OH223554   2.182   6.657   2.615  0.5883  0.1590 -0.0525
  688TIP3    H123555   2.251   6.636   2.678 -0.4075 -0.8361  0.7523
  688TIP3    H223556   2.197   6.749   2.593  1.4600  0.2898  1.0007
  689TIP3   OH223557   5.482   3.572  14.187  0.0462  0.1356 -0.3923
  689TIP3    H123558   5.404   3.526  14.157  0.9357 -2.0595  0.4533
  689TIP3    H223559   5.547   3.503  14.201  1.7594  1.7587  0.1131
  690TIP3   OH223560   4.596   5.086  15.815  0.2527 -0.1885 -0.2641
  690TIP3    H123561   4.649   5.092  15.894  1.3908 -1.4241 -0.8999
  690TIP3    H223562   4.575   4.993  15.807  1.1094 -0.2691 -1.9890
  691TIP3   OH223563   4.821   5.436  16.181  0.3542  0.2378 -0.9720
  691TIP3    H123564   4.739   5.482  16.198  0.2558 -0.4669  0.7133
  691TIP3    H223565   4.872   5.496  16.128 -0.2161  1.8182  0.1909
  692TIP3   OH223566   6.266   3.548   0.621 -0.2955  0.1656 -0.3306
  692TIP3    H123567   6.313   3.612   0.675  0.1556  0.5944 -1.1991
  692TIP3    H223568   6.330   3.522   0.554  0.0710 -2.4527  0.9480
  693TIP3   OH223569   2.417   2.481   3.537  0.4394  0.3823 -0.1005
  693TIP3    H123570   2.348   2.509   3.476 -1.3020 -2.0488  0.5967
  693TIP3    H223571   2.487   2.450   3.479 -0.4517 -0.2203 -0.9091
  694TIP3   OH223572   3.008   5.998   0.775 -0.1255 -0.0856  0.0067
  694TIP3    H123573   2.966   6.064   0.829 -0.3493 -0.1603 -0.0769
  694TIP3    H223574   2.937   5.955   0.728  0.0533 -0.1213 -0.2360
  695TIP3   OH223575   4.580   5.456  16.554  0.7053  0.3536  0.3460
  695TIP3    H123576   4.513   5.493  16.496  1.1411 -2.1238 -1.9501
  695TIP3    H223577   4.663   5.487  16.518  0.9391 -0.3465  0.2601
  696TIP3   OH223578   6.524   6.175  14.783  0.0449  0.2684 -0.2903
  696TIP3    H123579   6.459   6.113  14.818  0.3086 -0.5911 -1.2664
  696TIP3    H223580   6.522   6.248  14.844 -2.2838  0.5566 -0.6009
  697TIP3   OH223581   1.562   3.678   2.351 -0.2101  0.2184 -0.6261
  697TIP3    H123582   1.531   3.701   2.263  0.2778 -2.6219 -1.6504
  697TIP3    H223583   1.515   3.597   2.373 -0.3445  0.8672  1.7928
  698TIP3   OH223584   6.755   3.620   5.639  0.0381  0.9369  0.1404
  698TIP3    H123585   6.667   3.640   5.606  0.4713  1.5677 -0.6840
  698TIP3    H223586   6.792   3.706   5.661  0.4048  0.6692  0.5802
  699TIP3   OH223587   4.808   6.192  12.658 -0.2503 -0.8978 -0.5556
  699TIP3    H123588   4.790   6.110  12.612 -1.4572 -0.6281 -0.6073
  699TIP3    H223589   4.721   6.229  12.676  0.2138 -0.4679  0.9947
  700TIP3   OH223590   1.443   6.157   4.666  0.5158  0.5492  0.0275
  700TIP3    H123591   1.367   6.211   4.684  0.3896  0.2709  0.3422
  700TIP3    H223592   1.458   6.167   4.572  0.0382  0.5346 -0.0525
  701TIP3   OH223593   3.615   1.467   3.092  0.1029  0.0757 -0.8152
  701TIP3    H123594   3.524   1.485   3.067  0.3392  0.9243 -1.0656
  701TIP3    H223595   3.618   1.371   3.101 -1.1626  0.1168  0.5587
  702TIP3   OH223596   4.725   6.765   2.018  0.2382  0.2887 -0.0055
  702TIP3    H123597   4.687   6.798   2.100  1.7678  2.7512 -0.1757
  702TIP3    H223598   4.820   6.772   2.032  0.5533 -0.7204 -1.4476
  703TIP3   OH223599   6.629   3.370  10.725 -0.1412  0.3523  0.3065
  703TIP3    H123600   6.672   3.369  10.639  3.5205  0.4865  1.9326
  703TIP3    H223601   6.575   3.449  10.724 -0.4225  0.1875 -1.9354
  704TIP3   OH223602   5.505   3.565   2.347  0.0892  0.7299 -0.8230
  704TIP3    H123603   5.553   3.605   2.419  0.0758 -0.8783  0.1272
  704TIP3    H223604   5.551   3.594   2.268  1.9620  0.1447  0.0082
  705TIP3   OH223605   3.951   3.622  12.263  0.7263  0.4935  0.0793
  705TIP3    H123606   3.915   3.541  12.299  2.2416 -0.1116  0.3200
  705TIP3    H223607   3.915   3.627  12.175 -0.9082  0.5872  0.7249
  706TIP3   OH223608   0.715   4.499  16.640  0.6056  0.5075  0.0016
  706TIP3    H123609   0.744   4.548  16.563  1.1890 -0.5843 -0.4918
  706TIP3    H223610   0.794   4.460  16.675 -0.0248 -1.3555 -0.5415
  707TIP3   OH223611   4.806   5.795  10.024 -0.1249 -0.4199 -0.3216
  707TIP3    H123612   4.777   5.807   9.934  0.8035 -0.5324 -0.6496
  707TIP3    H223613   4.732   5.753  10.067 -1.7059  2.1826 -0.2735
  708TIP3   OH223614   0.429   6.797   3.494  0.3078 -0.2186  0.9239
  708TIP3    H123615   0.447   6.891   3.502 -2.2705  0.7267 -2.1290
  708TIP3    H223616   0.498   6.764   3.437  0.2595  0.2357  0.5944
  709TIP3   OH223617   6.525   3.717  11.271 -0.0519 -0.2375  0.4237
  709TIP3    H123618   6.595   3.705  11.207  0.1677 -0.2889  0.6704
  709TIP3    H223619   6.571   3.732  11.354 -0.3164 -1.5812  0.8498
  710TIP3   OH223620   4.649   3.286  14.829 -0.1928  0.1399  0.3738
  710TIP3    H123621   4.683   3.201  14.856  2.8443  0.5622 -1.6655
  710TIP3    H223622   4.575   3.266  14.773 -0.3168 -1.0823  0.9455
  711TIP3   OH223623   0.824   1.987  14.598 -0.3618  0.2135  0.0150
  711TIP3    H123624   0.729   1.982  14.610 -0.2597 -1.0606  0.4334
  711TIP3    H223625   0.857   2.014  14.684 -0.1283 -2.5722  0.8903
  712TIP3   OH223626   0.331   1.186   5.092  0.2160 -0.4340  0.3601
  712TIP3    H123627   0.279   1.126   5.039 -2.2049  1.1790  0.7447
  712TIP3    H223628   0.354   1.135   5.170 -0.5795 -1.2843  0.0630
  713TIP3   OH223629   4.719   6.835  13.126 -0.6714  0.0111  0.5043
  713TIP3    H123630   4.719   6.930  13.114  0.0315 -0.0186  0.2474
  713TIP3    H223631   4.795   6.818  13.181 -0.1443 -0.5037 -0.3526
  714TIP3   OH223632   1.942   0.303  12.047 -0.1661 -0.1139 -0.5044
  714TIP3    H123633   1.871   0.362  12.072 -1.0081 -0.9314 -0.8737
  714TIP3    H223634   2.018   0.359  12.037 -0.8899  0.8677 -0.6221
  715TIP3   OH223635   6.533   5.046  15.218  0.1630  0.2962  0.6849
  715TIP3    H123636   6.441   5.057  15.193  1.1112  0.8296 -3.2193
  715TIP3    H223637   6.541   4.952  15.238 -0.4810 -0.8393 -3.4303
  716TIP3   OH223638   4.206   4.980   1.879 -0.3193  0.7036 -0.5508
  716TIP3    H123639   4.136   5.040   1.854  0.7185  1.3948 -1.9577
  716TIP3    H223640   4.266   5.035   1.930  1.1057  1.1775 -2.6273
  717TIP3   OH223641   3.779   2.319  12.391  0.0967  0.3258 -0.0411
  717TIP3    H123642   3.824   2.239  12.418  0.0512  0.9898  2.2136
  717TIP3    H223643   3.849   2.382  12.378  0.0081  1.0515  2.4041
  718TIP3   OH223644   4.625   4.080   3.603  0.2876 -0.4579 -0.0553
  718TIP3    H123645   4.664   4.020   3.539  1.1170 -1.3144  1.2169
  718TIP3    H223646   4.637   4.037   3.688 -0.6508  0.7201  0.7194
  719TIP3   OH223647   1.218   1.261   1.862  0.2384  0.2100  0.4546
  719TIP3    H123648   1.287   1.218   1.810  0.4381 -1.7266  2.1576
  719TIP3    H223649   1.137   1.240   1.816  0.4655 -0.9625  0.5452
  720TIP3   OH223650   2.341   1.266  11.438 -0.3866 -0.2726  0.5758
  720TIP3    H123651   2.393   1.279  11.517 -1.0525 -1.2665  1.2025
  720TIP3    H223652   2.388   1.315  11.370  0.5617  0.0428  1.4256
  721TIP3   OH223653   0.933   5.754   5.631  0.0593  0.7889  0.9647
  721TIP3    H123654   1.006   5.785   5.577 -0.6863  0.9603  0.0361
  721TIP3    H223655   0.875   5.830   5.639 -0.5948  0.3311  0.7067
  722TIP3   OH223656   4.542   0.845   2.311  0.1042  0.1624 -0.2833
  722TIP3    H123657   4.634   0.858   2.337 -0.1460  2.7128 -0.4211
  722TIP3    H223658   4.493   0.856   2.392 -0.1898  0.4519 -0.5014
  723TIP3   OH223659   1.327   1.033   6.268  0.3898 -0.0421 -0.8389
  723TIP3    H123660   1.420   1.027   6.288  0.0711  0.2898  0.9280
  723TIP3    H223661   1.322   1.086   6.189  1.7404 -1.0419 -1.6407
  724TIP3   OH223662   1.348   0.122  14.874 -0.3447 -0.0270  0.6656
  724TIP3    H123663   1.308   0.104  14.960 -1.1836  1.0214  0.5076
  724TIP3    H223664   1.302   0.198  14.841  0.7583  0.2836 -0.2279
  725TIP3   OH223665   4.502   0.515   0.947 -0.0990 -0.7412  0.1126
  725TIP3    H123666   4.527   0.601   0.980  1.3509 -1.3522  0.6780
  725TIP3    H223667   4.540   0.510   0.859 -2.0819  0.0248 -0.8449
  726TIP3   OH223668   5.496   2.837  15.336 -0.3742  0.0464  0.2258
  726TIP3    H123669   5.507   2.766  15.400 -0.6618 -1.1885 -1.0425
  726TIP3    H223670   5.459   2.794  15.259 -0.8803  1.6564 -0.4682
  727TIP3   OH223671   4.799   0.016  16.470 -0.7492 -0.1518 -0.2300
  727TIP3    H123672   4.838  -0.071  16.485  0.6009  0.5484  0.5153
  727TIP3    H223673   4.767   0.042  16.556  2.6466  1.8166  0.6440
  728TIP3   OH223674   6.791   6.507  11.331  0.2327 -0.4347  0.3864
  728TIP3    H123675   6.804   6.566  11.405  0.6172 -2.9202  2.4338
  728TIP3    H223676   6.802   6.419  11.368  0.9756 -1.7955 -2.7345
  729TIP3   OH223677   3.910   1.392  14.317 -0.4699  0.1755 -0.1716
  729TIP3    H123678   3.884   1.300  14.310 -1.1439  0.3338  0.1810
  729TIP3    H223679   4.006   1.388  14.327 -0.3663 -0.4248 -1.2041
  730TIP3   OH223680   1.816   3.762  11.189 -0.1870  0.2748 -0.4606
  730TIP3    H123681   1.882   3.830  11.203 -0.2138  1.4043 -4.4377
  730TIP3    H223682   1.733   3.807  11.206 -0.0931  0.2945 -0.0529
  731TIP3   OH223683   4.922   6.018  16.098  0.1888 -0.2813  0.5258
  731TIP3    H123684   4.975   6.096  16.082 -1.2247  1.0794  2.0523
  731TIP3    H223685   4.861   6.015  16.024  0.4806 -0.1765  0.2769
  732TIP3   OH223686   3.469   3.104   1.842 -0.0631 -0.2718  0.0984
  732TIP3    H123687   3.498   3.147   1.761  0.1837  0.1298  0.3945
  732TIP3    H223688   3.537   3.040   1.860  0.3077  0.2040  0.4262
  733TIP3   OH223689   0.718   4.274   3.515 -0.1430 -0.0778  0.3316
  733TIP3    H123690   0.636   4.291   3.562  0.0873 -0.5092  0.9127
  733TIP3    H223691   0.735   4.181   3.530 -1.0881 -0.7427 -2.3040
  734TIP3   OH223692   0.910   6.815   6.407 -0.1098  0.1199 -0.3665
  734TIP3    H123693   0.973   6.763   6.457  0.3434 -0.9470 -1.9830
  734TIP3    H223694   0.828   6.766   6.413 -0.0031 -0.1182 -0.8343
  735TIP3   OH223695   5.942   4.117   3.401  0.5615 -0.4024  0.0829
  735TIP3    H123696   5.857   4.120   3.445  0.1695  1.7056 -0.7185
  735TIP3    H223697   5.940   4.037   3.350  0.4150 -2.1208  2.5807
  736TIP3   OH223698   3.904   0.101  11.866  0.1773  0.1412  0.3907
  736TIP3    H123699   3.933   0.014  11.893  1.4479  0.5411  0.3591
  736TIP3    H223700   3.983   0.145  11.836 -0.7873  0.5282 -1.8425
  737TIP3   OH223701   4.784   2.483  12.098  0.0293 -0.5222  0.5905
  737TIP3    H123702   4.839   2.514  12.026  0.9878 -1.2803  0.9639
  737TIP3    H223703   4.775   2.559  12.156  1.2007 -0.5287  0.8152
  738TIP3   OH223704   5.295   4.411  14.836 -0.3833 -0.4051 -0.4162
  738TIP3    H123705   5.265   4.321  14.821 -0.8631 -0.3583  0.2085
  738TIP3    H223706   5.337   4.408  14.922 -0.3349 -0.0465 -0.4261
  739TIP3   OH223707   0.864   0.701   4.458  0.1514  0.2974 -0.3111
  739TIP3    H123708   0.834   0.695   4.367 -1.0094 -0.0910  0.0736
  739TIP3    H223709   0.824   0.626   4.501  0.2388  0.7767  0.6365
  740TIP3   OH223710   0.630   3.452  16.657  0.0263  0.2853  0.1762
  740TIP3    H123711   0.694   3.382  16.672  0.7953  0.8587 -0.3761
  740TIP3    H223712   0.563   3.411  16.604 -0.0609 -0.3151  0.7306
  741TIP3   OH223713   0.352   0.584   1.401  0.0562  0.2108  0.0626
  741TIP3    H123714   0.412   0.519   1.364  1.5730  1.4534  0.2163
  741TIP3    H223715   0.268   0.539   1.407  0.8526 -1.4491 -0.6226
  742TIP3   OH223716   4.706   3.135  11.928 -0.3270  0.3984  0.0811
  742TIP3    H123717   4.735   3.226  11.923 -0.8977  0.5780 -0.1060
  742TIP3    H223718   4.787   3.084  11.933  0.0487  0.8391 -1.0928
  743TIP3   OH223719   3.161   1.455   1.035 -0.3219 -0.9004 -0.4069
  743TIP3    H123720   3.092   1.407   1.081 -0.6838  0.3611  0.3937
  743TIP3    H223721   3.242   1.420   1.073 -0.6070  1.3128  2.6162
  744TIP3   OH223722   3.339   3.190   6.427 -0.4518  0.3113  0.0797
  744TIP3    H123723   3.340   3.118   6.490  0.1297 -1.3705 -1.7222
  744TIP3    H223724   3.263   3.171   6.372  0.2916  0.4781 -1.0364
  745TIP3   OH223725   0.849   5.085   5.801 -0.5254 -0.1653  0.0668
  745TIP3    H123726   0.849   5.004   5.749 -1.2586 -1.0748  1.4236
  745TIP3    H223727   0.887   5.060   5.885 -2.2236  0.4804  1.0915
  746TIP3   OH223728   1.807   3.944  10.691  0.3683  0.0887 -0.2590
  746TIP3    H123729   1.771   3.855  10.690  2.2148 -0.7374  0.5104
  746TIP3    H223730   1.829   3.962  10.599 -0.3667 -0.0958 -0.4729
  747TIP3   OH223731   6.669   1.926   4.796 -0.4238 -0.1382  0.2561
  747TIP3    H123732   6.660   1.920   4.701 -0.9229  0.4650  0.2544
  747TIP3    H223733   6.628   1.846   4.830  0.1030 -0.5391 -0.0498
  748TIP3   OH223734   6.763   0.814   2.519 -0.3676 -0.0952  0.2086
  748TIP3    H123735   6.723   0.811   2.606 -0.2866  0.3424  0.2636
  748TIP3    H223736   6.719   0.744   2.470 -0.8842  0.0869  0.4035
  749TIP3   OH223737   6.014   3.527   0.479  0.0587 -0.2595 -0.2774
  749TIP3    H123738   6.086   3.561   0.533 -0.2887 -0.0109  0.0318
  749TIP3    H223739   6.056   3.463   0.422  0.6393  0.3086 -0.5110
  750TIP3   OH223740   1.127   3.183  15.112  0.1371 -0.2084  0.4482
  750TIP3    H123741   1.036   3.155  15.104 -1.0923  2.6621  2.6635
  750TIP3    H223742   1.162   3.132  15.185 -0.1803 -0.2456  0.5773
  751TIP3   OH223743   3.984   2.002  11.324 -1.1025 -0.0728  0.4597
  751TIP3    H123744   3.916   2.061  11.289 -0.7829 -0.6024 -1.1127
  751TIP3    H223745   3.994   1.935  11.257  1.1321  0.0968  0.5730
  752TIP3   OH223746   6.802   2.106   1.644 -0.1647 -0.3934 -0.7164
  752TIP3    H123747   6.746   2.174   1.607 -0.7132  0.3726  1.3658
  752TIP3    H223748   6.811   2.042   1.574 -1.0086  1.0003 -2.1890
  753TIP3   OH223749   2.734   2.756   0.928 -0.3016  0.6054  0.0205
  753TIP3    H123750   2.792   2.686   0.956 -0.2298  0.6469 -0.0256
  753TIP3    H223751   2.774   2.836   0.963  0.1887  0.7393 -0.8311
  754TIP3   OH223752   6.640   0.636   2.354 -0.1836 -0.7303  0.2804
  754TIP3    H123753   6.551   0.602   2.361 -0.3402 -0.3967 -0.0211
  754TIP3    H223754   6.688   0.569   2.306 -0.4717 -0.5699 -0.2428
  755TIP3   OH223755   0.787   2.635   6.438  0.0583  0.3357  0.2548
  755TIP3    H123756   0.785   2.711   6.496  3.4446  0.6900  0.1375
  755TIP3    H223757   0.700   2.633   6.398 -0.2793  4.0118  0.4145
  756TIP3   OH223758   0.221   4.037   1.049 -0.0457 -0.2230 -0.6369
  756TIP3    H123759   0.258   4.001   0.968 -0.6264 -0.0498 -0.9870
  756TIP3    H223760   0.285   4.016   1.116  0.4044 -0.4486 -1.1295
  757TIP3   OH223761   5.803   3.729  17.177  0.3826 -0.2524 -0.6841
  757TIP3    H123762   5.829   3.819  17.199  0.7841 -0.1295 -1.6194
  757TIP3    H223763   5.719   3.738  17.134  1.5160 -0.0350 -3.0238
  758TIP3   OH223764   1.923   5.800   3.478 -0.2252  0.3659 -0.2203
  758TIP3    H123765   1.880   5.730   3.527  1.2971 -0.1880  0.3915
  758TIP3    H223766   2.000   5.758   3.439  0.6201  1.6371  0.0061
  759TIP3   OH223767   1.454   4.267  16.417 -0.5258 -0.2180 -0.0406
  759TIP3    H123768   1.400   4.345  16.430 -0.4814 -0.1161 -0.4663
  759TIP3    H223769   1.484   4.273  16.326 -0.0699 -0.4479  0.0938
  760TIP3   OH223770   2.475   3.038   0.172  0.4486  0.6095  0.2678
  760TIP3    H123771   2.406   3.007   0.114  1.2598  1.5746 -1.2750
  760TIP3    H223772   2.535   2.964   0.179 -0.8890 -0.4116  2.0070
  761TIP3   OH223773   3.168   0.807  12.170 -0.0157 -0.0457 -0.0986
  761TIP3    H123774   3.102   0.824  12.103 -1.4025 -0.5283  1.0935
  761TIP3    H223775   3.249   0.842  12.133 -1.0938  1.3888 -1.2405
  762TIP3   OH223776   5.851   3.895  16.031 -0.2845  0.1767  0.3440
  762TIP3    H123777   5.865   3.854  15.946 -1.5134 -1.5125  0.8880
  762TIP3    H223778   5.931   3.876  16.080 -0.1642 -0.1379  0.0359
  763TIP3   OH223779   2.121   1.985   6.203 -0.4772 -0.7642  0.1091
  763TIP3    H123780   2.120   2.002   6.297 -2.1030 -2.0327  0.3551
  763TIP3    H223781   2.030   1.964   6.180  0.0518 -1.4966 -1.5422
  764TIP3   OH223782   0.785   1.005   6.568 -0.1805 -0.2752  0.2203
  764TIP3    H123783   0.788   0.966   6.655 -0.0967 -1.2010 -0.1851
  764TIP3    H223784   0.717   0.956   6.522 -1.5836  1.4775  0.3425
  765TIP3   OH223785   2.422   4.986   0.150  0.3669 -0.0080  0.3856
  765TIP3    H123786   2.398   5.059   0.093  0.8946 -0.3207 -0.2520
  765TIP3    H223787   2.356   4.988   0.220  1.0171  1.7708  1.0150
  766TIP3   OH223788   0.460   1.580  13.744 -0.5932  0.3291 -0.3063
  766TIP3    H123789   0.535   1.621  13.786  0.3176 -0.8281 -0.7385
  766TIP3    H223790   0.470   1.487  13.762 -0.6667 -0.1055 -2.2368
  767TIP3   OH223791   3.919   0.970   1.471 -0.3095 -0.7110  0.4983
  767TIP3    H123792   3.844   1.022   1.499  0.5296  1.1735 -0.5339
  767TIP3    H223793   3.993   1.009   1.517  0.2779 -1.3862  0.1473
  768TIP3   OH223794   4.352   5.879   1.897 -0.5556 -0.6679  0.1894
  768TIP3    H123795   4.424   5.862   1.958  0.3276  0.5345 -0.4907
  768TIP3    H223796   4.332   5.793   1.860  0.8360 -0.9654  0.0709
  769TIP3   OH223797   4.732   3.241   5.439 -0.2945  0.3173  0.0625
  769TIP3    H123798   4.701   3.324   5.473 -0.1312 -0.8009  3.3037
  769TIP3    H223799   4.659   3.180   5.452 -0.2472 -0.2002 -1.8049
  770TIP3   OH223800   4.918   4.460   3.932 -0.2452 -0.3046 -0.3694
  770TIP3    H123801   4.851   4.527   3.916  0.8886  0.7086 -1.0267
  770TIP3    H223802   4.882   4.381   3.892 -0.7953  0.3699 -1.2575
  771TIP3   OH223803   3.594   0.525   4.179  0.0986 -0.2704 -0.0131
  771TIP3    H123804   3.649   0.564   4.247 -0.0884 -0.5944  0.3304
  771TIP3    H223805   3.505   0.544   4.207  0.0288  1.1363 -1.0943
  772TIP3   OH223806   5.110   5.926   3.873 -0.0719 -0.0379  0.0703
  772TIP3    H123807   5.184   5.876   3.909 -0.3874  0.3243  1.2702
  772TIP3    H223808   5.051   5.859   3.839  1.0135 -0.3181 -1.3804
  773TIP3   OH223809   0.301   4.853  15.387 -0.0151  0.1373 -0.1935
  773TIP3    H123810   0.374   4.912  15.405  0.7828 -0.0327 -2.4411
  773TIP3    H223811   0.237   4.907  15.341 -0.6401 -0.0761  0.4117
  774TIP3   OH223812   0.571   6.577   4.713  0.4803 -0.4525  0.3536
  774TIP3    H123813   0.588   6.589   4.806  0.8095 -1.0114  0.3676
  774TIP3    H223814   0.601   6.488   4.694 -0.3355 -0.6334 -0.1142
  775TIP3   OH223815   2.743   1.316  16.061  0.1158 -0.6451  0.2134
  775TIP3    H123816   2.665   1.312  16.116 -0.2068  3.2476  0.2858
  775TIP3    H223817   2.799   1.381  16.103  0.7889  0.9789 -2.9170
  776TIP3   OH223818   4.307   2.830  10.759  0.2010 -0.5878 -0.3329
  776TIP3    H123819   4.315   2.740  10.728  2.5003 -1.0667  1.3018
  776TIP3    H223820   4.215   2.852  10.749 -0.1835 -2.6790 -1.9183
  777TIP3   OH223821   4.263   4.309  11.349  0.5977  0.2902  0.0342
  777TIP3    H123822   4.281   4.303  11.443  0.6572  0.7903  0.0577
  777TIP3    H223823   4.173   4.341  11.343  0.8809  1.1160 -0.0667
  778TIP3   OH223824   4.217   5.171   5.523 -0.6516 -0.1945  0.3375
  778TIP3    H123825   4.250   5.176   5.613  0.2787  0.1047 -0.0133
  778TIP3    H223826   4.128   5.137   5.533 -0.8941  0.6775  1.4507
  779TIP3   OH223827   4.723   0.468   0.341  0.0479  0.0460  0.5258
  779TIP3    H123828   4.810   0.442   0.311  0.4801 -0.5966  2.2244
  779TIP3    H223829   4.738   0.550   0.389 -0.4201  0.3811  0.1051
  780TIP3   OH223830   6.657   3.242   3.159  0.5328 -0.1625 -0.7252
  780TIP3    H123831   6.635   3.225   3.068 -0.3061 -0.8659 -0.4031
  780TIP3    H223832   6.618   3.169   3.208  1.5308 -0.1455  0.1296
  781TIP3   OH223833   0.268   3.765   3.238  0.1729 -0.2229 -0.6924
  781TIP3    H123834   0.332   3.736   3.303  0.5763  0.3198 -0.8373
  781TIP3    H223835   0.185   3.730   3.269  0.5571 -1.0366 -0.5623
  782TIP3   OH223836   1.264   2.019  14.469  0.2220  0.3933  0.4537
  782TIP3    H123837   1.172   2.043  14.456  0.1574 -0.3263 -0.5188
  782TIP3    H223838   1.264   1.923  14.472  0.5661  0.3982  3.4926
  783TIP3   OH223839   0.935   4.537  13.258 -0.2944  0.0131 -0.5994
  783TIP3    H123840   0.902   4.448  13.247  0.9563 -0.5487 -0.0746
  783TIP3    H223841   0.948   4.546  13.352 -1.7180  1.2713 -0.4990
  784TIP3   OH223842   5.671   3.613   1.112 -0.3030 -0.1212  0.2373
  784TIP3    H123843   5.585   3.589   1.145 -1.6974  2.1797 -1.4430
  784TIP3    H223844   5.707   3.532   1.076 -2.1154 -0.9805  0.2566
  785TIP3   OH223845   3.376   2.892  15.529 -0.0473 -0.3155 -0.3349
  785TIP3    H123846   3.472   2.896  15.526 -0.0185 -1.1884 -1.0169
  785TIP3    H223847   3.354   2.914  15.620  0.8350 -0.6391 -0.0310
  786TIP3   OH223848   1.053   6.722  16.534 -0.0674 -0.1724  0.3613
  786TIP3    H123849   1.054   6.806  16.580 -0.7497 -0.3061  0.6222
  786TIP3    H223850   1.025   6.659  16.599 -0.7468 -0.4125 -0.1551
  787TIP3   OH223851   3.406   2.374   3.094  0.2746  0.6059 -0.1291
  787TIP3    H123852   3.406   2.314   3.169  0.2188  0.5446 -0.1777
  787TIP3    H223853   3.326   2.353   3.047  0.5167  0.3530 -0.4372
  788TIP3   OH223854   2.371   3.610  16.855  1.0009  0.4112 -0.2095
  788TIP3    H123855   2.343   3.695  16.889 -0.5045 -0.4849  0.9220
  788TIP3    H223856   2.380   3.624  16.761  0.2812  1.6929 -0.1106
  789TIP3   OH223857   0.179   2.249  14.357 -0.0224 -0.7534  0.5880
  789TIP3    H123858   0.250   2.308  14.331 -0.7736  0.5600  1.4034
  789TIP3    H223859   0.101   2.288  14.318 -0.3995 -1.8064  0.2784
  790TIP3   OH223860   5.251   4.669   4.770  0.3837 -0.2017 -0.2084
  790TIP3    H123861   5.200   4.652   4.849  0.4187  0.0340 -0.1341
  790TIP3    H223862   5.266   4.583   4.732 -0.2866 -0.2501 -0.3661
  791TIP3   OH223863   2.798   1.745  11.193  0.3112 -0.2790 -0.1370
  791TIP3    H123864   2.784   1.652  11.174 -2.8513 -0.1277  0.9412
  791TIP3    H223865   2.764   1.791  11.116  0.0331  0.0133  0.1577
  792TIP3   OH223866   5.590   0.868  15.373 -0.2990 -0.2020 -0.2746
  792TIP3    H123867   5.606   0.916  15.291 -0.1738  1.1525  0.5081
  792TIP3    H223868   5.677   0.842  15.402 -0.0709  1.4363  0.6314
  793TIP3   OH223869   6.495   2.612   5.540  0.2567 -0.3473  0.1633
  793TIP3    H123870   6.506   2.528   5.586 -0.8266 -0.4345  0.2734
  793TIP3    H223871   6.583   2.649   5.538  0.7746 -1.5351  0.0294
  794TIP3   OH223872   5.967   5.288  14.723  0.4681  0.1242  0.2524
  794TIP3    H123873   5.877   5.318  14.712  0.0205 -1.5527 -1.0709
  794TIP3    H223874   6.000   5.338  14.798 -1.2652  1.3940  0.2321
  795TIP3   OH223875   5.357   1.495   4.015 -0.0960  0.5489  0.3868
  795TIP3    H123876   5.430   1.550   4.043 -0.7102  0.1590  3.0182
  795TIP3    H223877   5.319   1.541   3.940  0.5845  2.7109  1.2970
  796TIP3   OH223878   0.854   3.927  11.110 -0.4158 -0.3888  0.1205
  796TIP3    H123879   0.891   3.840  11.128 -2.2060 -1.0522  0.8801
  796TIP3    H223880   0.781   3.935  11.171 -0.2927  1.6856  0.0680
  797TIP3   OH223881   3.911   6.349  14.599 -0.1872 -0.2275 -0.1153
  797TIP3    H123882   3.963   6.355  14.679 -1.1577 -1.8176  0.6775
  797TIP3    H223883   3.919   6.258  14.572 -0.9116 -0.0123 -1.1041
  798TIP3   OH223884   0.591   0.330   1.069  0.3654 -0.4823 -0.6505
  798TIP3    H123885   0.524   0.324   1.137  0.8127 -1.0999 -0.2503
  798TIP3    H223886   0.545   0.365   0.992 -0.0893  0.5185  0.0488
  799TIP3   OH223887   0.261   6.109   0.828 -0.2710 -0.0047  0.0369
  799TIP3    H123888   0.262   6.204   0.841 -0.6273 -0.0034  0.0660
  799TIP3    H223889   0.353   6.083   0.835 -0.1371  0.3776 -0.2890
  800TIP3   OH223890   1.579   0.692  12.350 -0.0563 -0.8038  0.1519
  800TIP3    H123891   1.642   0.763  12.338 -1.4320  0.3041 -0.8526
  800TIP3    H223892   1.507   0.715  12.292 -0.6452 -2.9259 -0.0246
  801TIP3   OH223893   4.005   1.133  15.494 -0.1925  0.1174 -0.3564
  801TIP3    H123894   3.924   1.109  15.448  0.7735  0.7461 -2.5543
  801TIP3    H223895   3.978   1.199  15.558 -2.0358 -2.7938  2.1192
  802TIP3   OH223896   4.237   0.231   3.831 -0.2186  0.5309 -0.1664
  802TIP3    H123897   4.147   0.251   3.808 -0.5699 -0.1359  0.5728
  802TIP3    H223898   4.279   0.316   3.841 -0.1603  0.8586 -2.6862
  803TIP3   OH223899   5.035   6.836  10.864  0.1533 -0.4894  0.2430
  803TIP3    H123900   5.115   6.841  10.810 -1.5082  1.9802 -2.2817
  803TIP3    H223901   5.051   6.896  10.936  1.2672 -1.5186  0.8900
  804TIP3   OH223902   5.531   0.731   5.881 -0.4391 -0.1924  0.2352
  804TIP3    H123903   5.530   0.776   5.797  2.0592 -0.0882  0.1886
  804TIP3    H223904   5.619   0.695   5.888 -0.9992 -1.3295  2.2309
  805TIP3   OH223905   4.817   0.308  14.792 -0.0001  0.4779  0.3317
  805TIP3    H123906   4.826   0.337  14.701 -1.1177  0.0107  0.0501
  805TIP3    H223907   4.749   0.240  14.788 -0.2509  0.6458  1.5493
  806TIP3   OH223908   1.842   1.626  14.955  0.1182  0.0957 -0.3199
  806TIP3    H123909   1.814   1.535  14.967 -1.0023  0.4655  0.0007
  806TIP3    H223910   1.937   1.623  14.964  0.3568 -1.3722 -2.4141
  807TIP3   OH223911   3.875   3.460  15.823  0.1810  0.2294  0.5873
  807TIP3    H123912   3.941   3.445  15.755 -0.4658 -0.0189  0.0058
  807TIP3    H223913   3.920   3.439  15.905  0.5579 -0.8706  0.1243
  808TIP3   OH223914   3.769   2.168   2.761 -0.5729  0.1599  0.3691
  808TIP3    H123915   3.814   2.104   2.706 -0.3859 -0.4089  1.1606
  808TIP3    H223916   3.802   2.152   2.849 -1.3250  0.6326  0.7565
  809TIP3   OH223917   0.781   2.736  12.503  0.1537 -0.2219 -0.0778
  809TIP3    H123918   0.761   2.746  12.596 -0.6304 -0.6227 -0.1973
  809TIP3    H223919   0.700   2.704  12.464  0.8511 -1.3040 -0.6889
  810TIP3   OH223920   5.620   1.177  15.647  0.1937 -0.7422 -0.4789
  810TIP3    H123921   5.621   1.195  15.553  2.3593  1.4073 -0.1457
  810TIP3    H223922   5.693   1.116  15.660 -0.6025 -1.6707 -0.2585
  811TIP3   OH223923   1.012   4.247  14.733  0.1830  0.3756 -0.0222
  811TIP3    H123924   0.950   4.177  14.712 -0.8556  1.3987 -0.5555
  811TIP3    H223925   0.961   4.327  14.721  0.9958  1.1998  1.6654
  812TIP3   OH223926   6.001   0.636  17.174  0.5088  0.4236 -0.2364
  812TIP3    H123927   5.953   0.582  17.111 -0.0454 -0.7781  1.1660
  812TIP3    H223928   5.945   0.713  17.187 -0.5005 -0.4065  0.4857
  813TIP3   OH223929   6.367   4.089   0.607 -0.0230  0.3593  0.2402
  813TIP3    H123930   6.358   4.099   0.512 -0.9273  1.4066  0.4167
  813TIP3    H223931   6.279   4.064   0.636 -0.0522  1.2047  0.9199
  814TIP3   OH223932   0.225   3.641   5.503  0.2245  0.5921  0.1355
  814TIP3    H123933   0.283   3.653   5.578  0.5237  1.4735 -0.2250
  814TIP3    H223934   0.159   3.709   5.512  0.7346  1.2490 -0.8183
  815TIP3   OH223935   2.142   2.507   4.175 -0.2783 -0.2074  0.7070
  815TIP3    H123936   2.111   2.471   4.091 -0.8542  1.0397  0.3688
  815TIP3    H223937   2.063   2.542   4.217  0.4215  1.8371  0.4306
  816TIP3   OH223938   3.837   0.147   5.803  0.6698  0.1295 -0.5373
  816TIP3    H123939   3.781   0.175   5.875  0.3832  0.9109 -1.0527
  816TIP3    H223940   3.776   0.117   5.736  0.9628 -1.5336 -0.1011
  817TIP3   OH223941   5.304   5.461  13.674  0.1896 -0.0044 -0.2094
  817TIP3    H123942   5.280   5.488  13.763 -0.8554 -0.9677 -0.1678
  817TIP3    H223943   5.354   5.534  13.639  0.5116  0.4479  1.1284
  818TIP3   OH223944   6.379   2.817  14.508 -0.5136  0.0632 -0.2813
  818TIP3    H123945   6.408   2.871  14.435  1.0252  1.2542  1.1347
  818TIP3    H223946   6.285   2.834  14.514 -0.7119 -0.1657 -2.0154
  819TIP3   OH223947   4.679   2.472  16.261 -0.5988 -0.4682  0.0318
  819TIP3    H123948   4.752   2.427  16.219  0.3980  2.3193 -1.4810
  819TIP3    H223949   4.602   2.447  16.209 -0.2594 -1.2364 -0.1122
  820TIP3   OH223950   5.503   5.181  10.956 -0.2819 -0.1289  0.0596
  820TIP3    H123951   5.584   5.206  11.000  0.1184 -0.3525 -0.5254
  820TIP3    H223952   5.433   5.223  11.006  0.2676  0.9216 -0.0343
  821TIP3   OH223953   0.066   2.134  13.073  0.1081  0.3548  0.0776
  821TIP3    H123954   0.059   2.050  13.118 -2.1368  0.1646 -0.5318
  821TIP3    H223955   0.148   2.172  13.107  0.0777 -1.1167  1.9814
  822TIP3   OH223956   5.831   4.199  15.968  0.4338  0.2325 -0.3704
  822TIP3    H123957   5.882   4.207  16.048 -0.7925  1.7230  0.3267
  822TIP3    H223958   5.784   4.116  15.977  0.8535  0.0494  0.1273
  823TIP3   OH223959   0.599   4.293   0.993  0.3010 -0.1668  0.1478
  823TIP3    H123960   0.511   4.270   0.962  0.0341  0.0131  0.7589
  823TIP3    H223961   0.607   4.246   1.076  0.4358  0.5308  0.5310
  824TIP3   OH223962   4.716   5.964  11.098 -0.6104  0.4085 -0.0900
  824TIP3    H123963   4.642   6.021  11.076 -1.0791  0.3642  1.2376
  824TIP3    H223964   4.752   6.002  11.179 -0.6261 -0.8779  0.5458
  825TIP3   OH223965   0.901   3.932   5.974  0.3273 -0.1671  0.4247
  825TIP3    H123966   0.938   3.860   5.923 -0.3112 -1.7509  2.0853
  825TIP3    H223967   0.821   3.896   6.012  0.1152  1.3434  1.5295
  826TIP3   OH223968   4.554   4.008   6.118  0.3816  0.2899 -0.4094
  826TIP3    H123969   4.585   3.917   6.124  0.4843  0.3951  0.7763
  826TIP3    H223970   4.507   4.023   6.200 -0.7445  0.9099 -1.1510
  827TIP3   OH223971   5.989   2.428   2.888  0.2084  0.3268 -0.1777
  827TIP3    H123972   5.957   2.470   2.808  0.6168 -1.0188 -1.1044
  827TIP3    H223973   5.948   2.342   2.887  0.3373  0.2413  0.9998
  828TIP3   OH223974   0.851   5.063   5.489  0.2105 -0.1990 -0.0891
  828TIP3    H123975   0.852   5.127   5.560 -0.6030  2.4572 -2.3021
  828TIP3    H223976   0.802   4.988   5.524  0.5958  0.6302  2.3705
  829TIP3   OH223977   2.299   3.062   2.676 -0.5178  0.2280 -0.2906
  829TIP3    H123978   2.268   3.149   2.648 -0.7162 -0.0057 -0.8076
  829TIP3    H223979   2.275   3.057   2.769  1.3146  1.5372  0.3147
  830TIP3   OH223980   5.647   5.902  11.147  0.3486  0.1204 -0.5416
  830TIP3    H123981   5.681   5.983  11.109 -0.4097  0.2646 -0.9394
  830TIP3    H223982   5.670   5.834  11.084  2.3855 -0.2651  0.5306
  831TIP3   OH223983   2.139   0.636  16.992 -0.4633  0.1212  0.0317
  831TIP3    H123984   2.201   0.664  16.924 -1.4972  0.5447 -0.7753
  831TIP3    H223985   2.121   0.716  17.043  0.7674 -0.3267  1.2088
  832TIP3   OH223986   1.291   4.810  13.417 -0.1882 -1.0881 -0.1563
  832TIP3    H123987   1.240   4.774  13.344 -1.0862  0.2450 -0.2073
  832TIP3    H223988   1.371   4.757  13.418 -1.7783 -3.6145  0.2896
  833TIP3   OH223989   5.778   1.557  14.386  0.1618 -0.1831  0.7987
  833TIP3    H123990   5.791   1.648  14.360  2.1799 -0.6129  0.1404
  833TIP3    H223991   5.690   1.555  14.424 -0.5721  1.6849 -0.6775
  834TIP3   OH223992   5.900   2.990   1.826 -0.0883  0.3798  0.6065
  834TIP3    H123993   5.949   2.959   1.750  0.8612 -1.6198  1.9522
  834TIP3    H223994   5.963   3.040   1.878 -0.2769  0.3360  0.8824
  835TIP3   OH223995   5.154   0.755   4.677  0.8057  0.0623 -0.2599
  835TIP3    H123996   5.216   0.822   4.706  0.6265  0.4428 -0.7552
  835TIP3    H223997   5.163   0.753   4.582  0.0998  0.0757 -0.3278
  836TIP3   OH223998   4.045   3.370  13.425  0.8829  0.3551  1.0664
  836TIP3    H123999   4.134   3.352  13.393  0.5628  0.0144  0.3338
  836TIP3    H224000   3.990   3.305  13.381  0.2422  0.6942  1.3528
  837TIP3   OH224001   5.691   6.648   2.007  0.0748 -0.3705  0.5567
  837TIP3    H124002   5.645   6.567   1.985  1.7884 -1.1148 -0.5433
  837TIP3    H224003   5.773   6.643   1.958  1.0424  1.1852  1.8918
  838TIP3   OH224004   1.700   2.511  12.634  0.6617  0.2725  0.5096
  838TIP3    H124005   1.702   2.598  12.672 -1.0232  0.6067 -0.0770
  838TIP3    H224006   1.615   2.475  12.660  0.4021 -0.3418 -1.0380
  839TIP3   OH224007   0.081   4.867  13.725  0.0342 -0.3468  0.4004
  839TIP3    H124008   0.145   4.933  13.755  1.1200 -2.1651  2.4169
  839TIP3    H224009   0.109   4.786  13.769 -2.6834 -1.6090 -0.0296
  840TIP3   OH224010   5.017   1.237   1.690  0.4439 -0.5438 -0.4262
  840TIP3    H124011   4.992   1.307   1.631 -1.9870  0.1865  1.3008
  840TIP3    H224012   4.934   1.203   1.724  1.5350 -4.0020 -0.8373
  841TIP3   OH224013   4.274   3.715  15.592 -0.3334 -0.0062  0.2879
  841TIP3    H124014   4.305   3.777  15.526  1.7943 -1.0278  0.2450
  841TIP3    H224015   4.288   3.759  15.675 -0.2077  0.1179  0.1999
  842TIP3   OH224016   6.517   0.338  14.527 -0.3566  0.3134  0.1662
  842TIP3    H124017   6.504   0.326  14.621 -0.9061 -0.2374  0.0271
  842TIP3    H224018   6.570   0.262  14.501 -1.5295 -0.3989 -0.2347
  843TIP3   OH224019   6.662   0.360   2.028  0.0886 -0.1037 -0.6056
  843TIP3    H124020   6.669   0.388   1.937 -0.3708  0.2043 -0.5506
  843TIP3    H224021   6.734   0.404   2.073 -0.4520  0.7656 -0.5758
  844TIP3   OH224022   3.476   1.943   3.837 -0.0355  0.5331  0.1467
  844TIP3    H124023   3.422   1.990   3.901  1.1051  1.1551  0.6777
  844TIP3    H224024   3.543   1.899   3.890  0.1937  0.0512 -0.5290
  845TIP3   OH224025   0.244   4.383  13.744  0.0486 -0.2834 -0.7267
  845TIP3    H124026   0.288   4.390  13.829 -0.2278 -1.4682 -0.4691
  845TIP3    H224027   0.153   4.407  13.762  0.4095  1.5367 -1.1335
  846TIP3   OH224028   4.466   6.468   4.508 -0.2223  0.3277  0.5824
  846TIP3    H124029   4.526   6.462   4.583  1.4650  0.0493 -0.7248
  846TIP3    H224030   4.466   6.561   4.485  0.6916  0.1671 -0.1402
  847TIP3   OH224031   0.392   4.846   2.192 -0.0428 -0.0515 -0.4554
  847TIP3    H124032   0.438   4.929   2.205  1.2882 -0.9147  0.6148
  847TIP3    H224033   0.421   4.816   2.106 -0.0384  0.2797 -0.5722
  848TIP3   OH224034   6.176   2.388   5.082 -0.1034 -0.4620  0.5263
  848TIP3    H124035   6.157   2.481   5.096  0.9178  0.1281 -1.6304
  848TIP3    H224036   6.260   2.374   5.128  0.4013  0.0313 -0.2248
  849TIP3   OH224037   2.014   6.732   0.935  0.1515  0.1872 -0.5782
  849TIP3    H124038   2.045   6.695   0.852 -0.0305  0.1599 -0.6342
  849TIP3    H224039   1.938   6.785   0.911 -0.5648 -0.6875 -0.2919
  850TIP3   OH224040   1.414   6.412   5.294 -0.4158  0.6809  0.5044
  850TIP3    H124041   1.339   6.419   5.235 -1.1204 -0.0356  1.2852
  850TIP3    H224042   1.470   6.487   5.272  0.6037 -0.8359 -2.7842
  851TIP3   OH224043   5.708   5.027   0.676 -0.4627 -0.0683  0.2558
  851TIP3    H124044   5.677   4.971   0.605 -1.8538  0.5506  0.3378
  851TIP3    H224045   5.729   5.110   0.634 -0.6355  0.0831  0.4680
  852TIP3   OH224046   0.707   3.066   5.035 -0.2061  0.3112 -0.0450
  852TIP3    H124047   0.795   3.029   5.037 -0.7721 -1.5274 -3.0215
  852TIP3    H224048   0.667   3.037   5.118  1.7454  0.6990  1.0833
  853TIP3   OH224049   4.922   3.924   3.286  0.4060 -0.5989 -0.1532
  853TIP3    H124050   4.928   3.917   3.382  1.5146  0.5078 -0.1191
  853TIP3    H224051   4.845   3.873   3.263 -2.4489  2.4652  1.7445
  854TIP3   OH224052   0.958   6.097  15.220  0.1892  0.6565 -0.0091
  854TIP3    H124053   1.047   6.117  15.247 -0.0850  1.0203  0.6421
  854TIP3    H224054   0.965   6.013  15.175  0.8345  0.6216  0.1462
  855TIP3   OH224055   4.078   0.005   1.875 -0.4050  0.2690 -0.1568
  855TIP3    H124056   4.035  -0.079   1.864  0.9802 -0.3186 -1.4547
  855TIP3    H224057   4.131   0.016   1.797 -1.2082  2.7868 -0.4575
  856TIP3   OH224058   4.368   5.759   5.041 -1.0116 -0.2168 -0.1958
  856TIP3    H124059   4.442   5.700   5.028 -0.8533 -0.2629  0.8360
  856TIP3    H224060   4.297   5.719   4.990 -0.3258 -0.1248 -1.2585
  857TIP3   OH224061   0.644   3.268   3.854  0.4648  0.7442 -0.1792
  857TIP3    H124062   0.573   3.234   3.800 -0.7164  2.8192 -0.0235
  857TIP3    H224063   0.709   3.300   3.792  0.1649  1.0132 -0.3576
  858TIP3   OH224064   5.265   3.137   4.903  0.0387  0.1420 -0.0138
  858TIP3    H124065   5.338   3.193   4.930 -0.6733  1.0626  0.0462
  858TIP3    H224066   5.276   3.128   4.808 -0.4477  1.2926 -0.1919
  859TIP3   OH224067   5.266   5.303  12.118  0.3136 -0.5423  0.0133
  859TIP3    H124068   5.274   5.373  12.183  0.9951 -0.5207 -0.0909
  859TIP3    H224069   5.349   5.305  12.070 -0.5675  0.1170 -1.5637
  860TIP3   OH224070   0.817   1.657   3.359  0.4390 -0.3734  0.1532
  860TIP3    H124071   0.906   1.643   3.390  0.5576 -1.0228 -0.4581
  860TIP3    H224072   0.824   1.656   3.263 -0.3184 -1.2100  0.0886
  861TIP3   OH224073   5.163   4.896  14.001  0.2853  0.5676  0.7346
  861TIP3    H124074   5.095   4.894  13.934 -0.1132 -2.2579  1.0771
  861TIP3    H224075   5.116   4.879  14.083  1.2579 -0.6669  1.0719
  862TIP3   OH224076   0.781   5.542   1.130 -0.6483  0.1972 -0.3113
  862TIP3    H124077   0.811   5.544   1.039  0.3704 -0.8808 -0.0204
  862TIP3    H224078   0.835   5.607   1.175  0.5001 -0.9135 -0.0280
  863TIP3   OH224079   3.794   4.008  17.047 -0.3868 -0.5484  0.0585
  863TIP3    H124080   3.797   4.103  17.033 -1.0918 -0.1014  2.4014
  863TIP3    H224081   3.723   3.978  16.990 -0.5215  0.4277 -0.3103
  864TIP3   OH224082   1.962   2.555  13.242 -0.2127  0.6187 -0.3619
  864TIP3    H124083   2.037   2.561  13.183 -0.1220  3.6179 -0.0834
  864TIP3    H224084   1.910   2.633  13.223 -1.7917  0.0707  1.4001
  865TIP3   OH224085   0.151   0.417  13.650 -0.0387 -0.0451  0.1363
  865TIP3    H124086   0.131   0.332  13.688  0.2091  0.0330  0.4502
  865TIP3    H224087   0.184   0.396  13.563 -1.1258 -0.1898 -0.2526
  866TIP3   OH224088   2.181   4.608   1.182  0.2355 -0.0432  0.9577
  866TIP3    H124089   2.127   4.578   1.109  2.9767  1.9633 -2.2498
  866TIP3    H224090   2.225   4.530   1.214  1.2927 -0.7247 -1.8157
  867TIP3   OH224091   0.265   4.056  10.470  0.0168 -0.0624  0.0960
  867TIP3    H124092   0.216   4.029  10.548  0.2937  0.5165  0.4746
  867TIP3    H224093   0.246   4.150  10.461  3.0211  0.8337  1.7342
  868TIP3   OH224094   2.673   1.012  11.257  0.0333  0.3688  0.6685
  868TIP3    H124095   2.744   0.949  11.269 -0.3114 -0.4725 -1.3233
  868TIP3    H224096   2.707   1.073  11.191 -1.4199 -0.6815 -1.1361
  869TIP3   OH224097   1.777   4.160   0.654  0.0046 -0.0035  0.5463
  869TIP3    H124098   1.846   4.120   0.601  0.3788  0.6912  0.5006
  869TIP3    H224099   1.766   4.248   0.617  1.0308  0.9088  2.2632
  870TIP3   OH224100   4.600   4.755   3.652 -0.3711  0.1535 -0.0313
  870TIP3    H124101   4.598   4.819   3.581  0.1795  2.3619  1.8130
  870TIP3    H224102   4.508   4.733   3.668 -0.8551  2.6671  1.0709
  871TIP3   OH224103   0.960   3.512  16.916  0.2516 -0.2477  0.0495
  871TIP3    H124104   0.984   3.482  17.003  0.1253  1.8317  0.8584
  871TIP3    H224105   0.866   3.525  16.920  0.4297  1.2349  0.1089
  872TIP3   OH224106   0.043   3.831   0.452  0.1347  0.2053 -0.4095
  872TIP3    H124107   0.097   3.878   0.516 -1.8918  1.3739  0.5121
  872TIP3    H224108   0.045   3.886   0.373  0.5776  0.0500 -0.5101
  873TIP3   OH224109   3.050   6.436  11.327  0.1994  0.2182 -0.2311
  873TIP3    H124110   3.135   6.450  11.368  1.1328 -1.6198 -1.4201
  873TIP3    H224111   3.035   6.516  11.276  1.2533  0.5272 -0.0844
  874TIP3   OH224112   1.288   2.780   4.834  0.2154  0.1697  0.0027
  874TIP3    H124113   1.254   2.770   4.923  0.4956 -0.3168  0.0602
  874TIP3    H224114   1.217   2.749   4.778 -0.0344  0.6586  0.0459
  875TIP3   OH224115   0.112   0.682  13.457 -0.2385  0.5574  0.1270
  875TIP3    H124116   0.096   0.776  13.468 -0.3824  0.4301  1.0253
  875TIP3    H224117   0.034   0.640  13.493 -0.2652  0.0902 -0.4612
  876TIP3   OH224118   5.916   2.929  10.728  0.1085  0.4434 -0.7979
  876TIP3    H124119   5.827   2.909  10.700 -0.2240 -1.1957  1.2146
  876TIP3    H224120   5.971   2.896  10.656 -0.7547 -2.6627 -0.1820
  877TIP3   OH224121   2.567   4.936   5.792 -0.1236  0.1701  0.0060
  877TIP3    H124122   2.531   4.994   5.859  0.8096  1.5638 -0.6515
  877TIP3    H224123   2.498   4.872   5.776 -0.9680  0.7466  1.1641
  878TIP3   OH224124   5.699   0.823   2.317  0.4388  0.2394  0.4382
  878TIP3    H124125   5.713   0.862   2.403  1.8247  0.6378  0.0626
  878TIP3    H224126   5.730   0.890   2.256 -1.1982  0.2601 -0.4178
  879TIP3   OH224127   3.469   2.195   5.545  0.4353 -0.0596 -0.2668
  879TIP3    H124128   3.375   2.209   5.554  0.2118 -0.3596 -1.7534
  879TIP3    H224129   3.509   2.281   5.560 -0.0207 -0.0443  0.8932
  880TIP3   OH224130   0.654   0.360  13.391 -0.5236  0.1642  0.0101
  880TIP3    H124131   0.628   0.366  13.299  1.4905  0.2125 -0.6081
  880TIP3    H224132   0.719   0.289  13.392 -0.2275  0.4349  1.3255
  881TIP3   OH224133   6.426   5.939   5.677 -0.2591 -0.4068 -0.0742
  881TIP3    H124134   6.487   5.873   5.644 -0.5609 -2.2565  2.7278
  881TIP3    H224135   6.451   6.019   5.632  2.8989 -1.5331 -0.5780
  882TIP3   OH224136   1.072   1.848   3.018  0.0092 -0.0959 -0.4176
  882TIP3    H124137   1.114   1.875   3.100  1.1181  0.7270 -1.2325
  882TIP3    H224138   0.997   1.907   3.009 -0.1779 -0.2524  0.0252
  883TIP3   OH224139   5.507   0.498  17.114  0.2816  0.1531 -0.3607
  883TIP3    H124140   5.539   0.563  17.175 -0.0352  1.6749 -1.7478
  883TIP3    H224141   5.530   0.532  17.028  1.5755 -2.3714 -1.1240
  884TIP3   OH224142   3.806   2.512  12.134 -0.0417 -0.5686  0.2872
  884TIP3    H124143   3.875   2.476  12.190  0.1927 -0.8762 -0.1921
  884TIP3    H224144   3.787   2.598  12.172  1.1062 -0.1725  0.0099
  885TIP3   OH224145   6.389   2.421   2.785 -0.0623 -0.5976  0.6205
  885TIP3    H124146   6.347   2.499   2.749  1.2803 -0.0040  0.2568
  885TIP3    H224147   6.447   2.454   2.853 -0.0363 -1.3658  0.9781
  886TIP3   OH224148   2.118   3.748   6.624 -0.5264 -0.5385 -0.2512
  886TIP3    H124149   2.166   3.781   6.547  1.1120 -0.8041  0.6090
  886TIP3    H224150   2.106   3.826   6.679 -1.9550 -0.2912 -0.8579
  887TIP3   OH224151   1.733   1.352  14.938 -0.2028  0.1527 -0.3063
  887TIP3    H124152   1.664   1.322  14.879  0.8564  0.0536 -1.5275
  887TIP3    H224153   1.814   1.345  14.887  0.9064 -0.9663  1.5029
  888TIP3   OH224154   5.490   6.113  14.170  0.5413  0.6610  0.3575
  888TIP3    H124155   5.552   6.146  14.235  0.8885  0.8671 -0.0764
  888TIP3    H224156   5.424   6.066  14.222  0.5922  1.1658  0.8915
  889TIP3   OH224157   5.045   3.208  14.469  0.0244  0.0737 -1.0128
  889TIP3    H124158   5.050   3.175  14.379  0.4057  0.6627 -1.2183
  889TIP3    H224159   4.961   3.252  14.473  0.1390  0.3103 -1.1765
  890TIP3   OH224160   3.836   5.072   3.942 -0.4843  0.4184 -0.4841
  890TIP3    H124161   3.869   5.091   4.030 -0.7057 -0.8010 -0.1243
  890TIP3    H224162   3.766   5.008   3.956  1.5984 -2.3470 -1.7373
  891TIP3   OH224163   0.563   1.666   4.576 -0.0193  0.4018 -0.1601
  891TIP3    H124164   0.487   1.688   4.522 -1.5185 -0.0169  1.6876
  891TIP3    H224165   0.554   1.572   4.592  0.6327  0.4373  0.4642
  892TIP3   OH224166   0.338   4.525  15.317 -0.3249 -0.3222 -0.1255
  892TIP3    H124167   0.338   4.439  15.276 -2.3258 -0.3151 -0.2551
  892TIP3    H224168   0.354   4.586  15.245 -2.5947 -0.3900 -0.7641
  893TIP3   OH224169   2.678   5.380  17.196 -0.1640  0.7595 -0.1254
  893TIP3    H124170   2.657   5.473  17.203 -0.0633  0.9393 -1.7628
  893TIP3    H224171   2.661   5.358  17.104  2.4277 -0.1630 -0.4686
  894TIP3   OH224172   3.154   5.189  12.625 -0.0944 -0.4339  0.1911
  894TIP3    H124173   3.194   5.209  12.709 -0.4765 -1.5027  0.6343
  894TIP3    H224174   3.228   5.178  12.565  0.1740  0.4275  0.3420
  895TIP3   OH224175   0.358   3.124  15.916 -0.0242  0.0118 -0.6979
  895TIP3    H124176   0.306   3.184  15.863 -0.2374  0.8191  0.3926
  895TIP3    H224177   0.410   3.181  15.973 -0.1143 -0.8243  0.2603
  896TIP3   OH224178   2.138   0.456   3.111  0.5262  0.5747 -0.0039
  896TIP3    H124179   2.075   0.491   3.048  0.3354  0.7169  0.2598
  896TIP3    H224180   2.120   0.505   3.192  0.1486 -0.2276  0.4151
  897TIP3   OH224181   0.288   5.852  10.720  0.1640  0.2986 -0.6621
  897TIP3    H124182   0.251   5.860  10.632  0.9838  0.6270 -0.9879
  897TIP3    H224183   0.372   5.806  10.707  0.1502  0.0771 -0.0142
  898TIP3   OH224184   2.165   5.340   5.176 -0.2751  0.3791  0.1931
  898TIP3    H124185   2.102   5.327   5.247 -0.5792 -0.8315 -0.2830
  898TIP3    H224186   2.161   5.433   5.157  0.2270  0.8526  2.1460
  899TIP3   OH224187   3.220   4.847   2.993 -0.2263 -0.3145 -0.5616
  899TIP3    H124188   3.169   4.900   3.054  1.4877 -0.1481  0.8010
  899TIP3    H224189   3.230   4.902   2.915  1.4966  1.4458  0.8051
  900TIP3   OH224190   5.726   1.947  10.888 -0.4553 -0.3558  0.3957
  900TIP3    H124191   5.636   1.971  10.913  0.1760  1.4848  1.1118
  900TIP3    H224192   5.765   2.029  10.858  1.0255 -1.0955  0.2003
  901TIP3   OH224193   6.460   1.132  15.426  0.0281 -0.1090 -0.0599
  901TIP3    H124194   6.490   1.044  15.403  1.9634  0.5403 -0.2448
  901TIP3    H224195   6.422   1.122  15.513 -0.1135 -1.1925 -0.2342
  902TIP3   OH224196   3.345   5.103   4.350  0.2532  0.6368  0.0339
  902TIP3    H124197   3.346   5.164   4.277  0.4847  0.2005 -0.3300
  902TIP3    H224198   3.402   5.031   4.323 -0.6787 -0.1502  0.1048
  903TIP3   OH224199   5.751   0.112   1.040 -0.1269  0.0009 -0.3911
  903TIP3    H124200   5.762   0.137   0.948  1.6981  1.3755  0.1290
  903TIP3    H224201   5.819   0.046   1.055 -0.3511 -0.1433  0.0069
  904TIP3   OH224202   0.733   1.469  14.049  0.0673  0.3991  0.0081
  904TIP3    H124203   0.788   1.476  14.127 -0.5961 -0.4662  0.5703
  904TIP3    H224204   0.695   1.556  14.039 -0.8461  0.1975  1.4183
  905TIP3   OH224205   2.065   4.597   4.192 -0.2340  0.3300 -0.0818
  905TIP3    H124206   2.083   4.636   4.106  0.0016 -3.3559 -1.9123
  905TIP3    H224207   2.148   4.606   4.240  0.1733  0.9411 -0.8743
  906TIP3   OH224208   1.490   0.258   5.156 -0.0640 -0.0310  0.5948
  906TIP3    H124209   1.431   0.333   5.163  1.3106  1.1507  0.0313
  906TIP3    H224210   1.569   0.286   5.203  1.2027 -0.3263 -1.2721
  907TIP3   OH224211   4.320   3.057  14.721  0.2495 -0.3597  0.9625
  907TIP3    H124212   4.400   3.108  14.709 -0.6479  1.2904  1.7810
  907TIP3    H224213   4.296   3.030  14.632  1.5190 -0.5953  0.6711
  908TIP3   OH224214   2.853   1.880  11.672  0.3592 -0.0658  0.2788
  908TIP3    H124215   2.887   1.863  11.760 -0.4522 -0.9184  0.4458
  908TIP3    H224216   2.857   1.975  11.662  2.4027 -0.0882  0.4271
  909TIP3   OH224217   1.242   6.333  16.483 -0.3697  0.0232 -0.5497
  909TIP3    H124218   1.236   6.318  16.578 -0.9590 -1.1208 -0.7558
  909TIP3    H224219   1.310   6.273  16.454  0.9475  1.4988 -0.6424
  910TIP3   OH224220   5.900   0.373  15.057 -0.3773 -0.1755  0.0539
  910TIP3    H124221   5.953   0.300  15.024  0.0806  0.3106 -0.3229
  910TIP3    H224222   5.950   0.451  15.032 -0.7198  0.2548  0.6939
  911TIP3   OH224223   2.660   4.401  14.141 -0.4568 -0.3922 -0.6723
  911TIP3    H124224   2.708   4.484  14.144  0.7051 -1.0631 -0.3601
  911TIP3    H224225   2.719   4.340  14.098 -1.0422 -1.2292 -0.3096
  912TIP3   OH224226   4.200   2.064   0.127 -0.3271  0.0578  0.3760
  912TIP3    H124227   4.149   1.990   0.160  0.1338 -0.1764  0.5753
  912TIP3    H224228   4.271   2.074   0.191  0.5344 -0.3548 -0.4893
  913TIP3   OH224229   4.804   1.817   3.439 -0.3791 -0.2689 -0.4377
  913TIP3    H124230   4.895   1.791   3.452 -0.3250 -1.0708 -2.1683
  913TIP3    H224231   4.808   1.888   3.375 -0.9540  0.1311 -0.0517
  914TIP3   OH224232   4.339   3.999  11.329  0.4242  0.1345 -0.1830
  914TIP3    H124233   4.342   4.004  11.424 -1.7482  2.4026 -0.1352
  914TIP3    H224234   4.343   4.090  11.299 -1.4494 -0.3123 -2.0858
  915TIP3   OH224235   3.050   4.065  15.341  0.1226  0.0973 -0.5575
  915TIP3    H124236   2.985   4.119  15.295  0.4329 -0.4953 -1.7340
  915TIP3    H224237   3.007   4.038  15.422 -0.0070  2.1881  0.1271
  916TIP3   OH224238   5.404   5.420   3.411 -0.1076 -0.4135  0.6503
  916TIP3    H124239   5.335   5.477   3.445 -1.0489 -0.7785 -0.5712
  916TIP3    H224240   5.432   5.463   3.330  0.3585 -0.8200  0.5966
  917TIP3   OH224241   3.821   5.305  11.098  0.0332  0.5341 -0.0062
  917TIP3    H124242   3.793   5.305  11.006 -3.5723 -0.9619  0.9297
  917TIP3    H224243   3.805   5.395  11.128 -0.4553  0.5821 -0.4005
  918TIP3   OH224244   2.468   4.144  12.669 -0.3996  0.2439 -0.5312
  918TIP3    H124245   2.424   4.063  12.642 -0.3529  0.2411 -0.5996
  918TIP3    H224246   2.397   4.205  12.687 -0.4876 -0.2533  0.9471
  919TIP3   OH224247   3.213   4.968  13.527 -0.1221 -0.1128 -0.1151
  919TIP3    H124248   3.256   4.884  13.539 -0.9256 -0.6907 -1.1613
  919TIP3    H224249   3.195   4.998  13.617 -2.8130 -2.6471  0.3500
  920TIP3   OH224250   4.208   6.383   3.498 -0.1233 -0.3265 -0.8740
  920TIP3    H124251   4.137   6.444   3.521  0.9298  0.8887 -0.7498
  920TIP3    H224252   4.173   6.334   3.424 -1.9906 -1.4039  0.6174
  921TIP3   OH224253   6.129   1.643  11.675 -0.5080 -0.1323  0.3823
  921TIP3    H124254   6.070   1.711  11.706 -0.5487 -0.3219  0.7238
  921TIP3    H224255   6.192   1.689  11.620 -0.9432  0.0791  0.0557
  922TIP3   OH224256   6.584   5.260  13.883  0.1520 -0.6291 -0.2417
  922TIP3    H124257   6.508   5.244  13.939  0.3847  2.0019  0.9889
  922TIP3    H224258   6.552   5.319  13.816  0.3326 -2.3156 -1.8979
  923TIP3   OH224259   6.425   3.577  15.706 -0.3809 -0.4984  0.2814
  923TIP3    H124260   6.373   3.518  15.761 -0.1854 -0.6332  0.3237
  923TIP3    H224261   6.364   3.647  15.681 -0.5247 -0.5438  0.5029
  924TIP3   OH224262   4.501   5.837  10.378 -0.0749 -0.0002 -0.4311
  924TIP3    H124263   4.510   5.921  10.423 -1.9989 -1.0258  2.1383
  924TIP3    H224264   4.413   5.840  10.339 -0.1729 -0.8133 -0.2886
  925TIP3   OH224265   3.957   3.551  14.162  0.1767  0.3765  0.4239
  925TIP3    H124266   4.046   3.543  14.198 -0.0488  0.8085  1.0842
  925TIP3    H224267   3.948   3.645  14.143 -0.4792  0.4844  1.2440
  926TIP3   OH224268   4.909   2.931   4.366 -0.8634  0.0781 -0.2139
  926TIP3    H124269   4.962   2.981   4.304  0.6157 -1.9023 -0.6259
  926TIP3    H224270   4.910   2.842   4.332 -1.3634 -0.7378  1.7850
  927TIP3   OH224271   2.880   5.039  15.710 -0.0458  0.2815 -0.0694
  927TIP3    H124272   2.939   4.963  15.716 -0.0208  0.1727 -1.3891
  927TIP3    H224273   2.919   5.104  15.768 -0.7952 -1.1518  2.1539
  928TIP3   OH224274   0.719   5.660  15.387 -0.4611 -0.3650  0.4200
  928TIP3    H124275   0.724   5.730  15.322 -0.5509 -0.9833 -0.2538
  928TIP3    H224276   0.758   5.698  15.466  0.3172  0.1419 -0.2049
  929TIP3   OH224277   4.826   3.228   5.030 -0.2792  0.2672  0.1258
  929TIP3    H124278   4.860   3.164   4.966 -2.3197 -0.9834  0.2001
  929TIP3    H224279   4.763   3.280   4.981  1.0838  2.0414  0.1732
  930TIP3   OH224280   1.542   1.199   0.424 -0.2086  0.0343  0.6037
  930TIP3    H124281   1.611   1.153   0.471  0.8888  1.6832  0.6711
  930TIP3    H224282   1.463   1.149   0.443  0.9826 -2.0994  0.2592
  931TIP3   OH224283   2.507   1.320  11.232  0.5469  0.0310  0.1723
  931TIP3    H124284   2.541   1.397  11.187 -0.8310 -0.4805 -1.8815
  931TIP3    H224285   2.582   1.285  11.280  1.6101  1.6817 -0.2204
  932TIP3   OH224286   5.756   5.206   0.334  0.3849  0.7367  0.0907
  932TIP3    H124287   5.756   5.300   0.317 -0.9931  0.6628 -0.4703
  932TIP3    H224288   5.665   5.179   0.322  0.6022 -0.5355  1.0517
  933TIP3   OH224289   1.896   1.644  12.599 -0.0355 -0.2935  0.7530
  933TIP3    H124290   1.894   1.739  12.593  3.3710 -0.0767  1.0674
  933TIP3    H224291   1.895   1.625  12.693  0.7946 -0.4316  0.7471
  934TIP3   OH224292   1.653   2.164  12.359  0.1072  0.6327 -0.0341
  934TIP3    H124293   1.574   2.214  12.341 -0.4038 -0.1936 -0.1137
  934TIP3    H224294   1.627   2.099  12.425  0.6648  0.2310 -0.1984
  935TIP3   OH224295   3.590   1.806  12.897  0.1262 -0.0047 -0.0886
  935TIP3    H124296   3.547   1.885  12.930 -0.7387 -1.7387  3.4250
  935TIP3    H224297   3.525   1.737  12.910  2.4533 -2.0435  1.4203
  936TIP3   OH224298   1.560   3.482   5.608  0.1086  0.3832 -0.1592
  936TIP3    H124299   1.656   3.480   5.603  0.0656 -0.7305 -0.6382
  936TIP3    H224300   1.540   3.452   5.697  0.1428 -2.5868 -1.0385
  937TIP3   OH224301   2.228   0.435  11.794  0.2961  0.4833 -0.0802
  937TIP3    H124302   2.317   0.423  11.761 -0.4461  0.3549 -2.1770
  937TIP3    H224303   2.179   0.472  11.720 -1.4509  0.3570  0.9417
  938TIP3   OH224304   0.197   6.814   1.218 -0.0286 -0.3750  0.3236
  938TIP3    H124305   0.272   6.833   1.273 -0.3486 -0.9635  0.9780
  938TIP3    H224306   0.132   6.778   1.278 -0.2347 -1.4082 -0.4985
  939TIP3   OH224307   4.914   1.400  15.844  0.3042 -0.2251  0.7554
  939TIP3    H124308   4.847   1.467  15.832  0.7216 -0.0825 -0.9462
  939TIP3    H224309   4.986   1.426  15.786  0.5047 -2.1051  0.0970
  940TIP3   OH224310   0.620   2.277  11.580 -0.4401  0.0178  0.0975
  940TIP3    H124311   0.526   2.258  11.582 -0.6555  1.0095  0.0661
  940TIP3    H224312   0.662   2.193  11.597 -1.2673 -0.8648 -1.9807
  941TIP3   OH224313   0.146   1.676   1.364  0.0423 -0.4243 -0.2143
  941TIP3    H124314   0.076   1.648   1.305 -0.0288  0.9339 -0.8256
  941TIP3    H224315   0.226   1.671   1.312  0.5605 -2.6330  0.6890
  942TIP3   OH224316   5.161   1.099   2.801  0.0996 -0.1164  0.9893
  942TIP3    H124317   5.100   1.143   2.741  3.1615 -2.0885 -4.2761
  942TIP3    H224318   5.130   1.009   2.805 -0.1929  0.0273  2.8116
  943TIP3   OH224319   6.289   3.933   5.232  0.3266  0.0886  0.3233
  943TIP3    H124320   6.355   3.864   5.230  1.1628  0.8985 -1.7409
  943TIP3    H224321   6.319   3.998   5.169 -1.5991  1.2788  0.5518
  944TIP3   OH224322   5.572   4.093  13.337 -0.1499 -0.8741 -0.4441
  944TIP3    H124323   5.619   4.038  13.273 -1.1631 -1.2595 -0.8768
  944TIP3    H224324   5.554   4.034  13.410 -0.9177 -1.0232 -0.7512
  945TIP3   OH224325   1.954   3.166  12.803 -0.3151  0.1073 -0.2769
  945TIP3    H124326   2.048   3.154  12.785 -0.6492 -0.5685 -1.7028
  945TIP3    H224327   1.948   3.254  12.839  0.6717  0.8369 -1.7968
  946TIP3   OH224328   5.897   2.562   6.029  0.0232 -0.3447 -0.3116
  946TIP3    H124329   5.822   2.512   5.997 -0.0977  0.4187 -1.2502
  946TIP3    H224330   5.878   2.577   6.122 -1.4421  0.6306 -0.7397
  947TIP3   OH224331   6.663   6.264   4.719  0.1032 -0.2808 -0.0119
  947TIP3    H124332   6.637   6.296   4.633  0.5561  0.3603  0.0846
  947TIP3    H224333   6.635   6.334   4.779 -0.3546 -0.7944  0.3809
  948TIP3   OH224334   6.175   5.436   0.674  0.1930  0.3321 -0.5314
  948TIP3    H124335   6.091   5.392   0.679  0.3362  0.1278  0.1306
  948TIP3    H224336   6.154   5.529   0.669 -0.0994  0.2280 -1.5194
  949TIP3   OH224337   4.770   0.146  16.748  0.4232  0.7835  0.5796
  949TIP3    H124338   4.803   0.063  16.782  0.9739  0.7597  0.0112
  949TIP3    H224339   4.829   0.212  16.785  1.7245  0.6628 -1.1582
  950TIP3   OH224340   1.288   4.014  16.955  0.3117 -0.1185 -0.0858
  950TIP3    H124341   1.219   4.025  16.890  1.7118  0.2044 -1.5896
  950TIP3    H224342   1.297   4.101  16.995 -0.9292 -0.4518  0.9895
  951TIP3   OH224343   1.656   0.404  16.406 -0.1852  0.2066  0.5011
  951TIP3    H124344   1.701   0.321  16.420  1.6338  1.2327  1.2472
  951TIP3    H224345   1.563   0.382  16.405  0.2502 -2.3831 -3.2766
  952TIP3   OH224346   1.281   2.325   3.676 -0.3177 -0.4731  0.4192
  952TIP3    H124347   1.238   2.293   3.597 -1.8185 -0.8516  1.3437
  952TIP3    H224348   1.314   2.411   3.652  0.2898 -1.0516 -0.9432
  953TIP3   OH224349   4.968   2.872  16.539  0.0208 -0.0013  0.0242
  953TIP3    H124350   4.906   2.832  16.600 -0.1961 -1.3793 -1.0385
  953TIP3    H224351   5.027   2.923  16.595 -0.5123 -0.7395  1.3143
  954TIP3   OH224352   2.137   6.746   1.887 -0.5465  0.0207  0.3705
  954TIP3    H124353   2.131   6.713   1.976  0.4994 -1.1707  0.0365
  954TIP3    H224354   2.055   6.719   1.845 -0.0163 -1.6057  0.3080
  955TIP3   OH224355   0.153   3.955  15.526  1.0463 -0.1201  0.4263
  955TIP3    H124356   0.076   3.926  15.478 -0.3609  1.3523  1.6659
  955TIP3    H224357   0.225   3.948  15.463  0.0756 -2.2281 -0.5365
  956TIP3   OH224358   3.816   3.830  15.186 -0.5312 -0.7202 -0.3007
  956TIP3    H124359   3.789   3.864  15.271  2.2486  0.1630  0.3249
  956TIP3    H224360   3.893   3.777  15.204 -0.4793 -1.3666 -2.1646
  957TIP3   OH224361   4.499   1.582   2.044  0.3884 -0.7673 -0.2419
  957TIP3    H124362   4.483   1.606   1.953 -2.1652 -0.1203  0.3106
  957TIP3    H224363   4.532   1.492   2.040  0.6638 -0.6239 -1.7932
  958TIP3   OH224364   2.462   3.894   5.481  0.2960 -0.7640 -0.0654
  958TIP3    H124365   2.507   3.893   5.565  0.3923  1.6138 -0.0308
  958TIP3    H224366   2.521   3.848   5.421  1.0825 -0.8273  0.7466
  959TIP3   OH224367   3.489   3.271  14.050 -0.0302 -0.7070  0.1816
  959TIP3    H124368   3.544   3.350  14.046  0.1072 -0.8075  0.0892
  959TIP3    H224369   3.498   3.231  13.963 -3.0537  1.1597 -1.1940
  960TIP3   OH224370   4.815   1.315  12.842  0.0807 -0.6644  0.1231
  960TIP3    H124371   4.798   1.384  12.905 -0.5747 -0.8661  0.1680
  960TIP3    H224372   4.911   1.312  12.835  0.1114  1.6270 -1.4057
  961TIP3   OH224373   1.225   0.548  15.895 -0.2819 -0.1536 -0.2622
  961TIP3    H124374   1.151   0.504  15.853 -0.4341  1.5678 -1.9145
  961TIP3    H224375   1.276   0.584  15.823 -0.0660  2.1867  0.9789
  962TIP3   OH224376   6.320   3.631   4.913 -0.4043 -0.0243  0.5881
  962TIP3    H124377   6.281   3.644   4.826  2.9691  0.4404 -1.0528
  962TIP3    H224378   6.387   3.699   4.918 -0.2446 -0.3049  3.4554
  963TIP3   OH224379   5.066   3.178   2.059 -0.1220 -0.1023 -0.7656
  963TIP3    H124380   5.137   3.117   2.038 -0.1505 -0.1892 -0.6105
  963TIP3    H224381   5.052   3.227   1.978  2.1014  1.9956  0.0054
  964TIP3   OH224382   2.916   5.599  12.550 -0.0451 -0.4112  0.2595
  964TIP3    H124383   2.976   5.584  12.478  1.0109  0.7251  0.8623
  964TIP3    H224384   2.972   5.623  12.624 -1.2245  0.7267  0.8339
  965TIP3   OH224385   4.588   0.932   3.893 -0.0264 -0.5882  0.1810
  965TIP3    H124386   4.654   0.996   3.919  0.7898 -1.2334 -0.2687
  965TIP3    H224387   4.556   0.963   3.808 -2.4671  1.3453  1.6742
  966TIP3   OH224388   0.250   0.135  10.926 -0.2557  0.7645  0.5753
  966TIP3    H124389   0.242   0.047  10.963  2.2581 -0.6454 -1.8216
  966TIP3    H224390   0.189   0.136  10.853 -1.4633  1.6535  1.5693
  967TIP3   OH224391   1.702   5.813   1.642  0.1625 -0.8643  0.0418
  967TIP3    H124392   1.670   5.774   1.724 -0.0890  1.6246  1.2190
  967TIP3    H224393   1.629   5.803   1.581 -1.2643  0.7935  1.3786
  968TIP3   OH224394   5.235   1.156  11.123  0.7184  0.0327 -0.3405
  968TIP3    H124395   5.161   1.216  11.131  1.3500  0.8912 -0.8235
  968TIP3    H224396   5.252   1.152  11.029  1.5815  0.2034 -0.1946
  969TIP3   OH224397   1.890   1.246  13.046 -0.0719 -0.1321  0.1131
  969TIP3    H124398   1.848   1.175  12.996  0.1865  0.0179 -0.3210
  969TIP3    H224399   1.947   1.201  13.108  1.4075 -0.3018 -1.2959
  970TIP3   OH224400   1.872   2.485   5.839 -0.2256  0.1030  0.0110
  970TIP3    H124401   1.958   2.528   5.843  0.6100 -1.5203  0.4585
  970TIP3    H224402   1.876   2.416   5.906 -1.3424 -0.9268 -0.9326
  971TIP3   OH224403   5.777   0.366  13.139  0.4916  0.2172 -0.1649
  971TIP3    H124404   5.828   0.349  13.060 -0.7812  1.3588 -1.2929
  971TIP3    H224405   5.836   0.345  13.211  1.4711 -1.5355 -1.3958
  972TIP3   OH224406   6.259   2.537   5.421 -0.0738 -0.2770 -0.3118
  972TIP3    H124407   6.332   2.592   5.449 -0.2689 -0.5354  0.7495
  972TIP3    H224408   6.182   2.594   5.426 -0.0634 -0.2230 -0.6938
  973TIP3   OH224409   3.893   5.990   3.520  0.0214  0.1538  1.0132
  973TIP3    H124410   3.922   5.967   3.608  1.0776 -2.4850  0.0938
  973TIP3    H224411   3.890   5.906   3.474 -0.6030  1.4363 -1.4402
  974TIP3   OH224412   5.847   3.975  14.502  0.0828 -0.3543 -0.0075
  974TIP3    H124413   5.852   3.961  14.596 -0.9741 -0.3556  0.0671
  974TIP3    H224414   5.866   3.889  14.464  1.0565 -0.2276  0.1763
  975TIP3   OH224415   6.225   3.479  16.232 -0.1496 -0.1786  0.0357
  975TIP3    H124416   6.286   3.445  16.166  3.4098  0.8994  2.4825
  975TIP3    H224417   6.195   3.402  16.280  0.5615 -0.6067 -0.2063
  976TIP3   OH224418   4.893   4.076  12.960 -0.2501  0.0729  0.4448
  976TIP3    H124419   4.904   3.988  12.924 -0.5504  0.0073  0.5087
  976TIP3    H224420   4.934   4.072  13.046 -0.0105  0.0784  0.3335
  977TIP3   OH224421   5.934   0.882  16.771 -0.2440 -0.5550 -0.1765
  977TIP3    H124422   5.937   0.977  16.759 -1.4333 -0.6303 -1.3200
  977TIP3    H224423   6.013   0.862  16.822 -0.1488  1.0750  0.3832
  978TIP3   OH224424   4.697   1.669  11.630  0.0039  0.4211  0.0851
  978TIP3    H124425   4.775   1.613  11.633  1.0624  1.6047 -2.1063
  978TIP3    H224426   4.653   1.643  11.549 -0.6990  1.2248  0.2063
  979TIP3   OH224427   5.830   5.722   5.683  0.1657  0.4946 -0.1174
  979TIP3    H124428   5.853   5.761   5.599  0.3857 -1.3159 -0.9259
  979TIP3    H224429   5.776   5.646   5.661  2.9003 -2.0085  1.1068
  980TIP3   OH224430   5.075   3.479   1.164 -0.2048  0.0098 -0.1383
  980TIP3    H124431   5.115   3.401   1.126 -1.7649 -0.1839 -1.5165
  980TIP3    H224432   5.149   3.533   1.192  0.9207 -1.5974  0.1329
  981TIP3   OH224433   6.769   6.323  13.115 -0.2333  0.1995  0.2527
  981TIP3    H124434   6.857   6.343  13.086  0.4692 -0.2547  1.9515
  981TIP3    H224435   6.745   6.396  13.172 -0.6993  0.0010  0.3162
  982TIP3   OH224436   0.630   5.600   2.851  0.1528  0.4261  0.2255
  982TIP3    H124437   0.541   5.636   2.847  0.0039  0.0541  0.0591
  982TIP3    H224438   0.618   5.513   2.890  0.4266  0.3180  0.0672
  983TIP3   OH224439   0.698   3.492   2.486 -0.1577 -0.0444  0.2259
  983TIP3    H124440   0.719   3.466   2.396  1.3114  1.5435  0.0558
  983TIP3    H224441   0.608   3.524   2.482 -0.0695  0.1056 -0.7148
  984TIP3   OH224442   2.390   0.427  15.367 -0.2373 -0.7428 -0.1487
  984TIP3    H124443   2.477   0.386  15.364  0.3709  0.4875 -0.4547
  984TIP3    H224444   2.350   0.394  15.447 -0.6360 -3.4803 -1.3742
  985TIP3   OH224445   3.653   5.083   2.622  0.1204  0.2115  0.2360
  985TIP3    H124446   3.724   5.053   2.566  0.7355 -0.4170  1.3248
  985TIP3    H224447   3.602   5.004   2.640  1.6472 -0.2778  2.9793
  986TIP3   OH224448   1.369   6.370   1.839 -0.1202 -0.6597  0.4913
  986TIP3    H124449   1.339   6.296   1.787 -1.0756  1.0695 -1.5842
  986TIP3    H224450   1.457   6.387   1.807 -0.2254 -0.3849  0.3440
  987TIP3   OH224451   2.571   2.395   6.519  0.2679  0.2830 -0.2211
  987TIP3    H124452   2.479   2.398   6.545  0.3062 -2.1058  0.3866
  987TIP3    H224453   2.572   2.341   6.440  1.1111  0.6045 -0.4424
  988TIP3   OH224454   4.916   2.907  14.322 -0.3636  0.1422 -0.1061
  988TIP3    H124455   4.826   2.934  14.341 -0.8007 -0.5343 -1.0923
  988TIP3    H224456   4.912   2.876  14.231  0.6518 -0.8240  0.1643
  989TIP3   OH224457   5.173   2.528  13.511  0.3307 -0.2970 -0.2477
  989TIP3    H124458   5.212   2.484  13.586 -0.2846  1.1348  0.9617
  989TIP3    H224459   5.121   2.461  13.468  0.6243 -1.1183  0.6545
  990TIP3   OH224460   0.965   2.504   3.270 -0.7813  0.3784  0.0869
  990TIP3    H124461   0.968   2.556   3.190 -1.9331  0.7647  0.2835
  990TIP3    H224462   1.022   2.550   3.331  0.3332 -0.0680 -0.5663
  991TIP3   OH224463   5.810   1.133  12.840 -0.6824  0.5729 -0.2408
  991TIP3    H124464   5.858   1.212  12.814 -1.0168  1.4287  1.6040
  991TIP3    H224465   5.748   1.163  12.906 -0.7637 -1.2550  0.5686
  992TIP3   OH224466   6.176   1.598  10.963 -0.4096 -0.3175 -0.8244
  992TIP3    H124467   6.251   1.650  10.993 -1.0105 -0.3498  0.8252
  992TIP3    H224468   6.215   1.517  10.930  0.2496 -0.7849  0.9965
  993TIP3   OH224469   5.176   4.157   5.746 -0.1030  0.5518  0.5846
  993TIP3    H124470   5.179   4.113   5.831 -1.6877  0.6734  0.7205
  993TIP3    H224471   5.194   4.088   5.682 -0.9947  0.0272  0.8953
  994TIP3   OH224472   4.167   0.954  17.040  0.6307  0.2873 -0.8066
  994TIP3    H124473   4.179   0.918  17.128 -0.7155  1.7550  0.0372
  994TIP3    H224474   4.172   0.878  16.982  0.2498 -0.9092  0.6652
  995TIP3   OH224475   5.488   4.333   5.694  0.0206  0.2787 -0.2785
  995TIP3    H124476   5.486   4.354   5.787 -0.3878  0.5593 -0.3457
  995TIP3    H224477   5.399   4.351   5.664  0.3359  0.9120 -0.8749
  996TIP3   OH224478   4.715   4.689   0.819 -0.3171  0.0452  0.4536
  996TIP3    H124479   4.783   4.660   0.758 -1.1546 -1.0984  0.0155
  996TIP3    H224480   4.729   4.635   0.897  0.2865  0.9764  1.0078
  997TIP3   OH224481   4.514   5.748  14.970 -0.1176 -0.2294  0.0104
  997TIP3    H124482   4.497   5.656  14.951 -2.6389 -0.0029  0.7851
  997TIP3    H224483   4.533   5.750  15.064 -0.6531  0.0946  0.1151
  998TIP3   OH224484   6.186   1.233   5.022 -0.0387 -0.0496  0.0133
  998TIP3    H124485   6.140   1.317   5.023 -0.5080 -0.2825 -0.9954
  998TIP3    H224486   6.126   1.172   4.979  0.2425 -0.9494  0.8262
  999TIP3   OH224487   3.637   2.058  13.853  0.4836 -0.4419  0.4628
  999TIP3    H124488   3.684   2.134  13.817 -1.5215  2.8773  3.9904
  999TIP3    H224489   3.580   2.029  13.782  1.9241  0.8096 -1.2904
 1000TIP3   OH224490   5.318   3.050   2.407 -0.1847 -0.3269  0.8727
 1000TIP3    H124491   5.224   3.047   2.390  0.0919 -0.4449 -0.8223
 1000TIP3    H224492   5.359   3.029   2.323  1.3751  0.8884  1.2624
 1001TIP3   OH224493   1.282   1.308  12.294 -0.1997 -0.7490 -0.3439
 1001TIP3    H124494   1.288   1.306  12.389  1.0170  2.4952 -0.2345
 1001TIP3    H224495   1.370   1.285  12.264  1.0739  3.3224 -0.3431
 1002TIP3   OH224496   1.719   5.194   5.149 -0.5625 -0.5377  0.3023
 1002TIP3    H124497   1.785   5.252   5.111 -0.7463 -0.4182  0.1621
 1002TIP3    H224498   1.687   5.242   5.225  0.1541 -0.9916  0.8957
 1003TIP3   OH224499   1.802   1.980   5.223  0.0297 -0.3430 -0.7900
 1003TIP3    H124500   1.828   2.057   5.273 -0.9930 -2.5682  3.7615
 1003TIP3    H224501   1.707   1.989   5.212  0.3104  0.3907 -3.0773
 1004TIP3   OH224502   0.629   1.887  12.308  0.6742  0.2540 -0.2871
 1004TIP3    H124503   0.693   1.847  12.367 -0.4621 -0.8944  0.1894
 1004TIP3    H224504   0.673   1.888  12.223  0.3586 -3.2059 -0.6261
 1005TIP3   OH224505   3.400   3.523  12.083  0.2704  0.0476  0.1033
 1005TIP3    H124506   3.325   3.522  12.143  1.0187 -2.5244  1.1615
 1005TIP3    H224507   3.361   3.524  11.996 -0.9354  0.6355  0.6251
 1006TIP3   OH224508   6.250   6.815  16.351 -0.8020 -0.0982  0.2879
 1006TIP3    H124509   6.327   6.861  16.320 -0.7308 -0.9327 -0.8408
 1006TIP3    H224510   6.270   6.792  16.442  0.9601 -1.6940 -0.4516
 1007TIP3   OH224511   0.011   2.257   0.405 -0.4477 -0.4145  0.1060
 1007TIP3    H124512  -0.075   2.290   0.429  0.0180 -0.5150  2.0471
 1007TIP3    H224513   0.054   2.330   0.360 -0.4843  0.6643  1.7710
 1008TIP3   OH224514   0.887   3.470   4.132  0.4037 -0.1755 -0.4349
 1008TIP3    H124515   0.973   3.436   4.158  0.9819  1.2939 -0.3091
 1008TIP3    H224516   0.887   3.463   4.036  1.0338  0.5823 -0.5067
 1009TIP3   OH224517   2.098   1.710  11.931  0.0614  0.1232  0.5585
 1009TIP3    H124518   2.041   1.670  11.865  0.1055 -0.3182  0.7835
 1009TIP3    H224519   2.048   1.704  12.012  0.0143  0.6497  0.5759
 1010TIP3   OH224520   0.848   3.784   0.581 -0.3666 -0.0386  0.2811
 1010TIP3    H124521   0.877   3.827   0.661 -1.4551  2.3951 -0.5319
 1010TIP3    H224522   0.925   3.789   0.523  0.4215 -1.8078  1.1193
 1011TIP3   OH224523   2.948   1.773  13.612 -0.0288 -0.0425  0.1924
 1011TIP3    H124524   2.881   1.841  13.600  0.1843  0.2490  0.6160
 1011TIP3    H224525   2.899   1.695  13.637 -0.2934 -0.0979 -0.4605
 1012TIP3   OH224526   3.931   4.773   2.761 -0.4408  0.4341 -0.2783
 1012TIP3    H124527   3.896   4.705   2.819 -0.6095  1.8790  1.3949
 1012TIP3    H224528   3.881   4.852   2.783  1.0615  1.5713 -0.7815
 1013TIP3   OH224529   1.200   0.818  13.058  0.3794  0.3511 -0.5341
 1013TIP3    H124530   1.226   0.900  13.101  1.9439 -0.2497 -0.2493
 1013TIP3    H224531   1.282   0.786  13.019 -0.6186 -0.0482 -2.4121
 1014TIP3   OH224532   0.164   1.957   1.930  0.0700  0.2730 -0.4426
 1014TIP3    H124533   0.139   1.923   1.844 -1.6659 -0.1716  0.2110
 1014TIP3    H224534   0.251   1.994   1.916  0.2662 -0.7247 -2.1459
 1015TIP3   OH224535   1.019   1.560  11.565  0.3562 -0.1955  0.2889
 1015TIP3    H124536   1.045   1.532  11.652  0.1058 -1.2564  0.0334
 1015TIP3    H224537   0.924   1.548  11.563  0.0237  1.9104  0.5940
 1016TIP3   OH224538   5.472   6.338  13.581  0.1761  0.2997  0.2027
 1016TIP3    H124539   5.401   6.273  13.577 -0.0875  0.5205  1.1333
 1016TIP3    H224540   5.507   6.330  13.670  0.4956  1.0595  0.1514
 1017TIP3   OH224541   4.547   1.471  12.371  0.6840 -0.2362  0.0253
 1017TIP3    H124542   4.557   1.441  12.462  1.6634  2.2959  0.8427
 1017TIP3    H224543   4.457   1.505  12.368  1.0803  0.9182  0.5032
 1018TIP3   OH224544   4.893   2.957   3.648 -0.0965  0.0125  0.0814
 1018TIP3    H124545   4.903   2.866   3.621 -1.1948  0.1144 -0.7240
 1018TIP3    H224546   4.979   2.996   3.630 -0.0993 -0.4852 -1.1166
 1019TIP3   OH224547   1.790   1.476  15.688 -0.1849  0.1985 -0.3021
 1019TIP3    H124548   1.806   1.559  15.643  1.4397  0.1928  0.1861
 1019TIP3    H224549   1.765   1.415  15.618  0.7068  0.5883 -0.9793
 1020TIP3   OH224550   1.233   5.509   0.099  0.2323 -0.3330 -0.4282
 1020TIP3    H124551   1.175   5.463   0.039  0.7828  0.0616 -1.2823
 1020TIP3    H224552   1.230   5.600   0.070 -0.8434  0.2089  1.2428
 1021TIP3   OH224553   6.485   1.356   3.409  0.9003  0.0998 -0.5616
 1021TIP3    H124554   6.533   1.278   3.381  1.4916  0.8046 -1.5836
 1021TIP3    H224555   6.533   1.387   3.486 -0.0087 -1.1533  0.5609
 1022TIP3   OH224556   0.153   4.435  14.826  0.0627  0.8014 -0.6523
 1022TIP3    H124557   0.141   4.486  14.746 -2.2373  0.8605 -0.3371
 1022TIP3    H224558   0.090   4.471  14.888 -0.2709 -1.1405  0.2284
 1023TIP3   OH224559   3.731   1.081   1.633  0.8710 -0.0651  0.2520
 1023TIP3    H124560   3.754   1.169   1.663  3.6484 -0.6485  0.1060
 1023TIP3    H224561   3.673   1.046   1.700  1.2732  1.2121  1.2958
 1024TIP3   OH224562   3.156   0.726  15.706 -0.8014  0.0351  0.4684
 1024TIP3    H124563   3.192   0.797  15.653 -0.2901  0.5860  1.5190
 1024TIP3    H224564   3.109   0.671  15.643  2.7073 -1.3523 -1.2222
 1025TIP3   OH224565   0.070   6.075   2.564  0.0238 -0.4735 -0.7055
 1025TIP3    H124566   0.113   6.019   2.629  1.3261  0.6662 -0.5332
 1025TIP3    H224567  -0.000   6.021   2.529 -0.6777 -1.1852  1.5778
 1026TIP3   OH224568   2.160   0.900  15.406 -0.2943  0.6802 -0.5126
 1026TIP3    H124569   2.177   0.806  15.404 -0.1488  0.5220  2.9400
 1026TIP3    H224570   2.247   0.939  15.419 -0.2617  1.4156 -2.5849
 1027TIP3   OH224571   6.528   1.821   4.557  0.0786 -0.5991 -0.2919
 1027TIP3    H124572   6.571   1.844   4.475 -0.3735 -0.6713 -0.5476
 1027TIP3    H224573   6.455   1.882   4.565  1.3149  0.7874  1.0847
 1028TIP3   OH224574   4.537   2.535  15.519 -0.9205  1.0549  0.0797
 1028TIP3    H124575   4.467   2.506  15.461 -1.9848  1.5326  1.0815
 1028TIP3    H224576   4.576   2.610  15.474 -0.3114  0.1267 -0.9875
 1029TIP3   OH224577   5.889   3.221  15.816  0.5323  0.4802  0.4865
 1029TIP3    H124578   5.910   3.164  15.891  0.8124  0.7331  0.6031
 1029TIP3    H224579   5.969   3.271  15.801  0.3659  0.6727  0.2312
 1030TIP3   OH224580   3.517   1.846  11.174  0.5889 -0.0021 -0.1519
 1030TIP3    H124581   3.464   1.806  11.105  0.6545  0.7581 -0.6700
 1030TIP3    H224582   3.458   1.855  11.248  0.8254 -1.8806  0.3116
 1031TIP3   OH224583   2.468   1.241  17.066  0.2311  0.0208 -0.6240
 1031TIP3    H124584   2.497   1.159  17.106  0.7071  0.6518  0.3585
 1031TIP3    H224585   2.386   1.219  17.022  0.8181 -1.1870 -1.1665
 1032TIP3   OH224586   4.024   4.894   0.958 -0.6120  0.5202 -0.0111
 1032TIP3    H124587   4.043   4.847   1.039  1.9126  0.5487 -0.5137
 1032TIP3    H224588   4.083   4.969   0.959  0.9178 -0.5234 -2.7164
 1033TIP3   OH224589   2.586   4.552   3.386 -0.9462 -0.2116  0.4142
 1033TIP3    H124590   2.612   4.510   3.467 -0.4106  0.6517  0.6950
 1033TIP3    H224591   2.592   4.646   3.404 -0.1758 -0.0025 -0.8154
 1034TIP3   OH224592   1.928   5.026   3.245 -0.2614 -0.0099  0.2563
 1034TIP3    H124593   1.918   4.936   3.276 -1.1289 -0.0123 -0.0020
 1034TIP3    H224594   1.926   5.019   3.150  1.1161  0.1376  0.2049
 1035TIP3   OH224595   5.133   4.311   2.972 -0.3450  0.1025 -0.9504
 1035TIP3    H124596   5.090   4.289   3.054 -1.4920  0.1830 -1.5046
 1035TIP3    H224597   5.097   4.249   2.909 -0.1868  0.6433 -1.5863
 1036TIP3   OH224598   3.328   4.430  15.397  0.4755 -0.1305  0.2268
 1036TIP3    H124599   3.363   4.519  15.397  2.1743 -0.7351 -1.1769
 1036TIP3    H224600   3.252   4.434  15.454  0.2990  2.3003 -0.0765
 1037TIP3   OH224601   1.107   2.617  11.698  0.5540  0.1603  0.3456
 1037TIP3    H124602   1.023   2.614  11.744 -0.7596  0.1022 -1.9127
 1037TIP3    H224603   1.146   2.700  11.725 -0.2506  0.2103  1.4023
 1038TIP3   OH224604   6.404   0.422  11.443 -0.0959 -0.1323  0.3748
 1038TIP3    H124605   6.459   0.346  11.422 -1.7461 -1.4825  0.7084
 1038TIP3    H224606   6.415   0.433  11.537 -1.4131 -1.3000  0.6988
 1039TIP3   OH224607   1.324   4.794  11.506  0.3143 -0.0838 -0.1126
 1039TIP3    H124608   1.410   4.758  11.524  0.4830 -0.1286 -0.9420
 1039TIP3    H224609   1.331   4.828  11.417  0.1053  1.8793  0.5898
 1040TIP3   OH224610   4.305   2.032  12.686 -0.2100  0.3298  0.7509
 1040TIP3    H124611   4.244   1.990  12.745 -0.5258  0.8104  0.7766
 1040TIP3    H224612   4.337   1.962  12.630 -0.5453  0.0200  0.9453
 1041TIP3   OH224613   2.616   1.901   4.005 -0.4237 -0.3298  0.2447
 1041TIP3    H124614   2.552   1.829   3.998 -0.1178 -0.6504  0.7063
 1041TIP3    H224615   2.624   1.934   3.915 -0.8130 -0.6608  0.0838
 1042TIP3   OH224616   1.725   4.950  12.890  0.3115  0.0047  0.2645
 1042TIP3    H124617   1.638   4.913  12.906  0.8270 -0.6906  1.5669
 1042TIP3    H224618   1.730   4.960  12.794 -0.9879 -0.4325  0.1353
 1043TIP3   OH224619   1.133   4.172   4.467  0.1030 -0.5296  0.2257
 1043TIP3    H124620   1.207   4.224   4.436 -0.4626  0.6522  0.7740
 1043TIP3    H224621   1.130   4.188   4.561 -3.1286  2.7029 -0.1666
 1044TIP3   OH224622   4.209   6.318  13.405  0.6017  0.1772  0.4173
 1044TIP3    H124623   4.212   6.324  13.501  0.6228  0.3139  0.4093
 1044TIP3    H224624   4.222   6.226  13.386 -0.1069  0.0375  0.5770
 1045TIP3   OH224625   3.925   3.007  15.794  0.5057  0.2358  0.1500
 1045TIP3    H124626   3.898   3.041  15.708 -0.8811 -0.1450  0.4226
 1045TIP3    H224627   3.962   3.083  15.838 -1.3398  1.1384  0.2496
 1046TIP3   OH224628   0.912   0.466  11.477  0.1243  0.0641 -0.0709
 1046TIP3    H124629   0.841   0.402  11.474  0.8838 -0.7345 -1.4814
 1046TIP3    H224630   0.989   0.415  11.501  0.3495  0.8417  0.9244
 1047TIP3   OH224631   3.208   6.823   2.285 -0.1247  0.3450 -0.1964
 1047TIP3    H124632   3.188   6.817   2.378  0.7938  0.6262  0.0266
 1047TIP3    H224633   3.236   6.914   2.272 -1.4916  0.6886 -1.0127
 1048TIP3   OH224634   6.834   4.529   1.001  0.0227 -0.1217  0.4293
 1048TIP3    H124635   6.926   4.549   0.986  0.4037 -0.1027  2.5104
 1048TIP3    H224636   6.813   4.459   0.939  1.7558 -0.9070  0.6863
 1049TIP3   OH224637   4.034   2.932   0.248 -0.1949 -0.0275 -0.5635
 1049TIP3    H124638   4.097   2.998   0.277 -0.5951  0.0170  0.2299
 1049TIP3    H224639   3.958   2.983   0.218 -0.6438 -0.1202  0.3801
 1050TIP3   OH224640   6.833   3.293   2.411 -0.5039 -0.0811 -0.3086
 1050TIP3    H124641   6.872   3.219   2.456 -3.5480 -1.3193  0.5272
 1050TIP3    H224642   6.904   3.357   2.405  2.1171 -2.7910 -0.6358
 1051TIP3   OH224643   2.483   1.065  14.870 -0.1403  0.0889  0.3694
 1051TIP3    H124644   2.419   1.136  14.882 -0.1024  0.1292  0.3307
 1051TIP3    H224645   2.494   1.029  14.958 -2.5841 -1.9606 -0.0306
 1052TIP3   OH224646   4.311   4.315   5.379 -0.5513 -0.0915 -0.0134
 1052TIP3    H124647   4.286   4.303   5.471 -1.2435 -0.1917 -0.2086
 1052TIP3    H224648   4.230   4.341   5.336 -0.1927  0.1116 -0.5699
 1053TIP3   OH224649   3.276   3.112  14.099 -0.1276 -0.4960  0.1856
 1053TIP3    H124650   3.286   3.061  14.019 -1.2407  2.4526 -2.0289
 1053TIP3    H224651   3.339   3.183  14.090 -1.4760  0.8573  1.0467
 1054TIP3   OH224652   1.455   3.259   1.275 -0.1573  0.1873  0.0641
 1054TIP3    H124653   1.397   3.297   1.208 -0.4868 -0.6267 -0.1274
 1054TIP3    H224654   1.543   3.268   1.238 -0.1982  1.0263  0.1569
 1055TIP3   OH224655   3.782   6.804   4.267  0.2872  0.3554 -0.0481
 1055TIP3    H124656   3.788   6.869   4.196  0.3340 -0.4284 -0.7845
 1055TIP3    H224657   3.690   6.807   4.294 -0.0413 -0.2282 -1.0318
 1056TIP3   OH224658   2.520   1.115  12.935 -0.2287  0.1823  0.3177
 1056TIP3    H124659   2.494   1.097  12.844  0.3259  0.5206  0.0908
 1056TIP3    H224660   2.441   1.150  12.976 -0.6245 -0.4357  0.1036
 1057TIP3   OH224661   5.314   2.600   3.988 -0.1405  0.0834  0.4821
 1057TIP3    H124662   5.234   2.550   4.001 -1.0855  1.6412  0.8160
 1057TIP3    H224663   5.314   2.623   3.895  0.6392 -1.0629  0.1764
 1058TIP3   OH224664   1.121   1.889  13.363 -0.5494  0.4190 -0.1272
 1058TIP3    H124665   1.093   1.803  13.332  1.6916 -0.2141 -0.5684
 1058TIP3    H224666   1.107   1.886  13.458  1.3263 -1.2537  0.1740
 1059TIP3   OH224667   6.325   0.631   0.045  0.1692  0.1243  0.2351
 1059TIP3    H124668   6.365   0.708   0.004 -0.6117  0.3705 -0.0859
 1059TIP3    H224669   6.230   0.644   0.035  0.0126 -0.7047  0.4911
 1060TIP3   OH224670   2.152   1.644   3.527  0.3283 -0.6725  0.6474
 1060TIP3    H124671   2.084   1.598   3.478  1.9657 -0.1031 -2.4931
 1060TIP3    H224672   2.107   1.682   3.602 -3.0945  0.6169 -1.7867
 1061TIP3   OH224673   2.557   4.078   2.921  0.0353 -0.0684 -0.2742
 1061TIP3    H124674   2.632   4.109   2.971 -0.9140  1.9551 -0.0303
 1061TIP3    H224675   2.486   4.138   2.943 -1.2728 -1.0282 -1.6358
 1062TIP3   OH224676   5.934   3.484  15.125  0.1081  0.8462  0.5775
 1062TIP3    H124677   5.876   3.465  15.198 -0.1669 -0.2495  0.0978
 1062TIP3    H224678   5.949   3.399  15.083  1.4524  1.2226  0.2393
 1063TIP3   OH224679   5.659   5.213   0.994 -0.0335  0.3034 -0.1736
 1063TIP3    H124680   5.687   5.218   1.086 -1.6586  0.1238  0.3619
 1063TIP3    H224681   5.684   5.297   0.956  1.2872  0.1122  0.2386
 1064TIP3   OH224682   4.219   5.058   1.239 -0.1852 -0.5714  0.2176
 1064TIP3    H124683   4.154   5.068   1.308 -1.4508 -1.9393 -0.7003
 1064TIP3    H224684   4.263   4.975   1.260 -0.6951 -1.0844 -0.6596
 1065TIP3   OH224685   3.219   1.145   5.804 -0.3771 -0.3915 -0.5462
 1065TIP3    H124686   3.268   1.220   5.839 -1.0622  0.1293 -0.6851
 1065TIP3    H224687   3.228   1.077   5.870 -2.3663  0.8458  1.0889
 1066TIP3   OH224688   1.467   3.928  13.178  0.6100  0.4571  0.2885
 1066TIP3    H124689   1.559   3.902  13.181  1.1401  2.2397  0.5297
 1066TIP3    H224690   1.441   3.933  13.270  0.1959 -0.2030  0.2199
 1067TIP3   OH224691   1.617   2.355  14.490 -0.6959 -0.4003  0.0228
 1067TIP3    H124692   1.703   2.317  14.507 -1.4834 -1.8325  1.0453
 1067TIP3    H224693   1.585   2.381  14.577 -1.7883 -1.0313 -0.1725
 1068TIP3   OH224694   5.572   4.646   1.093  0.1204  0.5787 -0.1291
 1068TIP3    H124695   5.629   4.709   1.048  0.3843  0.0461 -0.5426
 1068TIP3    H224696   5.508   4.701   1.139  0.8383  1.1808  0.1740
 1069TIP3   OH224697   2.126   1.773   1.562  0.3033 -0.3837 -0.3308
 1069TIP3    H124698   2.206   1.747   1.608 -0.2868 -1.3403  0.1885
 1069TIP3    H224699   2.115   1.865   1.585  0.1056 -0.7870  1.3970
 1070TIP3   OH224700   5.058   3.073  10.925  0.0448  0.1159  0.1115
 1070TIP3    H124701   5.009   3.122  10.991 -2.6602 -0.6255 -1.1842
 1070TIP3    H224702   5.082   3.138  10.859 -0.6283  0.2371 -0.0147
 1071TIP3   OH224703   6.579   1.168   4.531  0.0268  0.0096  0.1034
 1071TIP3    H124704   6.622   1.096   4.487  0.4305 -0.6851  1.5579
 1071TIP3    H224705   6.619   1.170   4.618 -0.1633  1.8149  0.1911
 1072TIP3   OH224706   0.230   4.984  13.245  0.1234  0.1345 -0.6559
 1072TIP3    H124707   0.219   4.905  13.298 -1.2040  0.3614 -0.5360
 1072TIP3    H224708   0.189   5.053  13.297 -0.4976  0.5101 -1.6213
 1073TIP3   OH224709   6.509   4.089  15.756 -0.1503 -0.1526  0.3735
 1073TIP3    H124710   6.429   4.137  15.776  0.4441  0.6768  0.8229
 1073TIP3    H224711   6.507   4.078  15.661  0.9946  3.2442 -0.1801
 1074TIP3   OH224712   4.349   5.638  15.499 -0.4221  0.1148 -0.3352
 1074TIP3    H124713   4.367   5.598  15.414 -0.8661  0.8851 -0.7995
 1074TIP3    H224714   4.411   5.596  15.559 -0.0708 -0.3970 -1.0484
 1075TIP3   OH224715   6.220   1.155  13.337  0.0215  0.2520 -0.0173
 1075TIP3    H124716   6.168   1.074  13.342 -0.1796  0.3847  0.0753
 1075TIP3    H224717   6.202   1.200  13.420 -0.0327  0.4916 -0.1571
 1076TIP3   OH224718   0.440   3.768   2.699  0.1059  0.3384  0.6760
 1076TIP3    H124719   0.351   3.745   2.725  0.4195 -3.4588 -0.9425
 1076TIP3    H224720   0.494   3.741   2.773  0.1395  0.0750  0.5538
 1077TIP3   OH224721   3.309   6.079  15.662  0.5684  0.5764 -0.3911
 1077TIP3    H124722   3.324   6.023  15.738  1.4545  0.4256 -0.6712
 1077TIP3    H224723   3.221   6.116  15.677 -0.0754 -0.9274 -0.2326
 1078TIP3   OH224724   4.795   0.390   1.531  0.2306  0.1829  0.5933
 1078TIP3    H124725   4.703   0.379   1.504  0.5276  0.9138 -0.8216
 1078TIP3    H224726   4.789   0.428   1.619 -0.7897 -1.4611  1.2897
 1079TIP3   OH224727   5.697   0.103   5.089 -0.0594 -0.6152 -0.4236
 1079TIP3    H124728   5.621   0.045   5.082 -0.5169 -0.0991  0.1139
 1079TIP3    H224729   5.694   0.155   5.008 -0.9414  0.1669  0.0890
 1080TIP3   OH224730   6.197   3.693   0.252 -0.8695 -0.4745 -0.1546
 1080TIP3    H124731   6.129   3.714   0.316 -1.6096  0.8943 -1.3198
 1080TIP3    H224732   6.155   3.634   0.190 -0.7481 -0.2673 -0.4375
 1081TIP3   OH224733   0.550   6.733   0.975 -0.1322 -0.3121 -0.2128
 1081TIP3    H124734   0.601   6.729   0.894 -2.0593 -0.7523 -1.4766
 1081TIP3    H224735   0.461   6.753   0.946 -0.9050 -0.6180  1.7952
 1082TIP3   OH224736   5.165   2.140  13.269 -0.1217  0.2796  0.0140
 1082TIP3    H124737   5.175   2.213  13.330 -0.1514 -0.5517  1.0399
 1082TIP3    H224738   5.202   2.064  13.315 -3.0970 -1.0726  0.4054
 1083TIP3   OH224739   6.139   3.876  11.183 -0.1328  0.2197  0.0156
 1083TIP3    H124740   6.153   3.782  11.194 -2.5071 -0.1807  0.1910
 1083TIP3    H224741   6.073   3.882  11.114  2.1110  1.9516 -2.1617
 1084TIP3   OH224742   4.075   4.178   1.747 -0.1864  0.2365  0.2496
 1084TIP3    H124743   3.988   4.193   1.784 -0.1551 -2.0741  1.4361
 1084TIP3    H224744   4.112   4.108   1.801  1.5218 -0.4042 -1.6432
 1085TIP3   OH224745   1.608   1.290   0.036 -0.3160 -0.6657  0.2281
 1085TIP3    H124746   1.558   1.294  -0.045 -0.4270 -0.0208  0.3288
 1085TIP3    H224747   1.545   1.261   0.102 -0.1285 -1.6115  0.0191
 1086TIP3   OH224748   4.176   4.445   2.318 -0.5189  0.2766 -0.2872
 1086TIP3    H124749   4.193   4.362   2.274 -2.2575 -0.1364 -0.2687
 1086TIP3    H224750   4.207   4.432   2.407  0.0137 -0.0268 -0.5100
 1087TIP3   OH224751   4.195   0.587  16.556  0.6134 -0.1096  0.4201
 1087TIP3    H124752   4.110   0.560  16.591 -0.1571  0.2897 -1.0427
 1087TIP3    H224753   4.234   0.641  16.625  0.4907 -1.7192  1.8232
 1088TIP3   OH224754   5.125   1.440   4.964 -0.3528  0.0483 -0.1295
 1088TIP3    H124755   5.118   1.533   4.986  0.6209 -0.3309  2.1499
 1088TIP3    H224756   5.163   1.438   4.876 -1.4956  1.7826 -0.7005
 1089TIP3   OH224757   2.732   4.633   1.183  0.2731  0.6691  0.0954
 1089TIP3    H124758   2.685   4.574   1.242  1.2849 -0.8420 -0.5307
 1089TIP3    H224759   2.731   4.717   1.228 -0.6377  0.0292  1.3613
 1090TIP3   OH224760   6.453   2.166  13.890 -0.0569 -0.3664 -0.1906
 1090TIP3    H124761   6.472   2.259  13.899 -1.0888 -0.1183 -0.4626
 1090TIP3    H224762   6.378   2.151  13.948 -0.4845 -0.8285 -0.8504
 1091TIP3   OH224763   4.890   0.895  12.835 -0.3419 -0.2193 -0.0687
 1091TIP3    H124764   4.967   0.866  12.786  1.0456  0.2961  1.7163
 1091TIP3    H224765   4.922   0.908  12.925 -2.4286  0.3813  0.6379
 1092TIP3   OH224766   1.528   6.277  10.954 -0.2196  0.1933  0.5917
 1092TIP3    H124767   1.527   6.322  10.870  0.6883  0.5616  0.7575
 1092TIP3    H224768   1.578   6.197  10.938  2.3015  1.5147  1.3315
 1093TIP3   OH224769   3.128   1.107  13.798 -0.0668 -0.5826  0.3505
 1093TIP3    H124770   3.199   1.137  13.742  0.4651 -4.6991 -1.4703
 1093TIP3    H224771   3.050   1.111  13.743 -0.2148 -1.2585  0.5043
 1094TIP3   OH224772   6.007   4.962  16.970  0.3226  0.3254 -0.8510
 1094TIP3    H124773   6.100   4.984  16.972  0.2603  0.5517  0.3406
 1094TIP3    H224774   5.988   4.947  16.878  0.6976  4.0242 -1.7094
 1095TIP3   OH224775   5.636   1.850  15.637 -0.0709 -0.1743 -0.2401
 1095TIP3    H124776   5.587   1.783  15.589 -0.9185 -0.5133  1.0414
 1095TIP3    H224777   5.607   1.933  15.599 -1.0555 -0.4136 -0.0364
 1096TIP3   OH224778   0.110   0.975  14.332  0.4826  0.6425 -0.1943
 1096TIP3    H124779   0.147   0.936  14.253  0.5985  0.1760  0.0878
 1096TIP3    H224780   0.184   0.982  14.392  0.2561  0.3624  0.1165
 1097TIP3   OH224781   5.726   3.418   2.030 -0.3608  0.2547 -0.0834
 1097TIP3    H124782   5.727   3.342   2.088 -0.2165 -2.1550 -2.9990
 1097TIP3    H224783   5.814   3.420   1.992 -1.0335  0.4831 -1.6891
 1098TIP3   OH224784   1.969   5.685  14.274  0.7554 -0.2603 -0.3174
 1098TIP3    H124785   2.041   5.732  14.231  1.6983 -0.8436  0.5671
 1098TIP3    H224786   2.012   5.609  14.315 -0.5527 -1.3080 -0.8050
 1099TIP3   OH224787   0.603   5.968   4.965  0.1543 -0.6425 -0.3443
 1099TIP3    H124788   0.629   5.971   4.873  2.0355  1.2712  0.1616
 1099TIP3    H224789   0.561   6.052   4.982 -2.2491 -1.8308  0.0800
 1100TIP3   OH224790   2.024   3.058  16.838  0.2308  0.5571  0.7311
 1100TIP3    H124791   1.990   3.056  16.748 -0.5147 -0.4340  1.0200
 1100TIP3    H224792   1.947   3.073  16.892  0.9152  3.0829  1.1237
 1101TIP3   OH224793   5.215   2.550   5.349 -0.1783  0.1480  0.0100
 1101TIP3    H124794   5.134   2.574   5.304 -0.4865  1.6332  1.2692
 1101TIP3    H224795   5.270   2.513   5.280 -1.1578  1.0013 -1.2918
 1102TIP3   OH224796   5.399   0.301  13.530  0.3361 -0.4011  0.3628
 1102TIP3    H124797   5.426   0.311  13.439 -0.6567 -1.1402 -0.0266
 1102TIP3    H224798   5.425   0.212  13.553  1.4412  0.0924  1.1201
 1103TIP3   OH224799   1.306   6.512   1.610 -0.5161  0.4950 -0.0991
 1103TIP3    H124800   1.264   6.446   1.666  0.7361 -0.5628 -0.3456
 1103TIP3    H224801   1.302   6.474   1.522  1.7590 -0.1068  0.0032
 1104TIP3   OH224802   6.428   4.326   2.641  0.6079  0.0319 -0.0040
 1104TIP3    H124803   6.414   4.307   2.734  0.5433 -0.6704 -0.1506
 1104TIP3    H224804   6.520   4.354   2.637  1.2382 -1.8987 -0.0007
 1105TIP3   OH224805   2.755   3.494  13.929  0.2769  0.1161  0.0232
 1105TIP3    H124806   2.742   3.466  13.838  1.1899 -0.3080  0.0089
 1105TIP3    H224807   2.745   3.414  13.980  0.2700  0.2572  0.2426
 1106TIP3   OH224808   5.453   3.356  14.929 -0.7140  0.0559  0.6527
 1106TIP3    H124809   5.393   3.402  14.987 -0.8276  0.6563  0.0822
 1106TIP3    H224810   5.515   3.312  14.987 -0.8761  0.5696  1.2249
 1107TIP3   OH224811   6.688   1.032  13.487  0.4404 -0.1872 -0.2401
 1107TIP3    H124812   6.668   1.116  13.445 -0.3886 -0.4989 -0.4937
 1107TIP3    H224813   6.615   0.975  13.462  0.2202 -0.5479  1.1409
 1108TIP3   OH224814   1.642   5.765  14.486  0.5365 -0.1642  0.3115
 1108TIP3    H124815   1.730   5.800  14.475  0.3241  0.5664  0.8027
 1108TIP3    H224816   1.654   5.672  14.501  1.1362 -0.2990 -0.9211
 1109TIP3   OH224817   0.642   0.481  15.191  0.1749  0.0619 -0.9026
 1109TIP3    H124818   0.550   0.502  15.174  0.0321  2.3580  1.7925
 1109TIP3    H224819   0.638   0.410  15.255  0.3831 -0.9900 -2.0203
 1110TIP3   OH224820   0.380   3.372  16.272 -0.5865 -0.2252 -0.2413
 1110TIP3    H124821   0.333   3.331  16.345  1.2177 -0.7566  0.6803
 1110TIP3    H224822   0.401   3.460  16.305 -1.6213  0.3131 -0.9706
 1111TIP3   OH224823   6.586   6.370   2.702 -0.6732 -0.0965  0.0952
 1111TIP3    H124824   6.575   6.363   2.797  0.3714 -2.1970  0.1182
 1111TIP3    H224825   6.512   6.424   2.673 -2.6252 -1.7187  1.7650
 1112TIP3   OH224826   4.380   3.026   5.838 -0.8149 -0.3349 -0.7836
 1112TIP3    H124827   4.387   2.956   5.903  0.0284  1.3060  0.9786
 1112TIP3    H224828   4.323   2.990   5.770  1.7038 -3.7227 -1.3485
 1113TIP3   OH224829   4.457   0.586   2.500  0.4097 -0.0259  0.0540
 1113TIP3    H124830   4.438   0.575   2.407  3.0190 -0.1192 -0.5288
 1113TIP3    H224831   4.461   0.680   2.513 -0.0432 -0.0109  0.1214
 1114TIP3   OH224832   4.545   6.300  14.391  0.2040  0.3254  0.4124
 1114TIP3    H124833   4.631   6.266  14.364 -0.3560 -0.1791 -0.8179
 1114TIP3    H224834   4.522   6.248  14.468  0.3235 -0.6167 -0.1735
 1115TIP3   OH224835   3.986   0.792   5.733  0.2474 -0.5228 -0.3767
 1115TIP3    H124836   4.049   0.743   5.786  1.1268  0.6067 -0.3245
 1115TIP3    H224837   3.901   0.760   5.761  0.6749 -0.0275  1.6948
 1116TIP3   OH224838   5.507   4.574  14.772  0.7839  0.0524  0.3294
 1116TIP3    H124839   5.584   4.549  14.822  0.5373 -0.1499  0.6126
 1116TIP3    H224840   5.451   4.497  14.773  1.6357 -0.6779 -1.9946
 1117TIP3   OH224841   1.775   2.326  13.785 -0.5086  0.0618 -0.3100
 1117TIP3    H124842   1.759   2.385  13.858  0.2981  0.2078 -0.2460
 1117TIP3    H224843   1.871   2.321  13.778 -0.5674  0.6819 -1.8651
 1118TIP3   OH224844   6.643   6.061   0.717  0.5147 -0.1556  0.1964
 1118TIP3    H124845   6.611   5.993   0.776  0.4779 -1.6662 -1.4622
 1118TIP3    H224846   6.731   6.032   0.693  0.5515  0.4515 -0.4362
 1119TIP3   OH224847   1.558   3.258   4.329  0.6210  0.0886 -0.0367
 1119TIP3    H124848   1.623   3.192   4.306  1.3837  0.9494 -0.4498
 1119TIP3    H224849   1.539   3.244   4.421 -0.7109 -1.9398 -0.5458
 1120TIP3   OH224850   0.368   4.563   4.052 -0.3298 -0.1995 -0.0596
 1120TIP3    H124851   0.351   4.641   3.999  0.0783 -1.4043 -2.0657
 1120TIP3    H224852   0.290   4.553   4.107 -0.8321  1.0107 -0.5407
 1121TIP3   OH224853   1.681   5.428  13.645 -0.3563  0.2091  0.7209
 1121TIP3    H124854   1.737   5.481  13.589 -0.3149 -0.8166 -0.2428
 1121TIP3    H224855   1.608   5.486  13.667  0.8928  1.4686  1.7540
 1122TIP3   OH224856   0.738   2.297   6.405  0.5193 -0.3978 -0.0231
 1122TIP3    H124857   0.814   2.291   6.347 -0.7433 -2.2585 -1.6046
 1122TIP3    H224858   0.666   2.321   6.348  0.0974  3.2996  1.7396
 1123TIP3   OH224859   0.629   0.203   5.841  0.2844 -0.2208 -0.0476
 1123TIP3    H124860   0.660   0.162   5.761  1.8669  2.0297 -0.6804
 1123TIP3    H224861   0.674   0.154   5.911  1.2108 -0.3457 -0.7001
 1124TIP3   OH224862   3.866   5.987  16.786  0.6649  0.2722 -0.2745
 1124TIP3    H124863   3.945   5.932  16.783  0.4609  0.0131 -1.1312
 1124TIP3    H224864   3.879   6.051  16.717 -0.6757 -0.9072 -1.6832
 1125TIP3   OH224865   0.394   4.905  11.593 -0.7080 -0.5878 -0.0583
 1125TIP3    H124866   0.359   4.847  11.661 -0.0788  1.3121  2.0310
 1125TIP3    H224867   0.334   4.980  11.593 -1.7059 -1.2582 -2.9421
 1126TIP3   OH224868   1.021   6.404   2.334 -0.1943 -0.3791 -0.2077
 1126TIP3    H124869   1.039   6.320   2.292  2.2603 -0.4356  0.8218
 1126TIP3    H224870   0.947   6.440   2.284 -0.4525 -2.5331 -1.5009
 1127TIP3   OH224871   5.164   0.520   3.925  0.0233 -0.0822 -0.1517
 1127TIP3    H124872   5.238   0.581   3.922 -0.6594  0.7558 -0.1656
 1127TIP3    H224873   5.190   0.456   3.991  0.0298  1.1927  1.1411
 1128TIP3   OH224874   2.703   3.625   3.988 -0.2675  0.5778  0.0257
 1128TIP3    H124875   2.755   3.697   4.023  0.1874  1.3605 -2.1315
 1128TIP3    H224876   2.748   3.599   3.908  0.2087 -2.8858  1.2339
 1129TIP3   OH224877   3.590   1.560  13.283 -0.3178  0.0113  0.0068
 1129TIP3    H124878   3.601   1.517  13.198  0.8160  0.2476  0.0137
 1129TIP3    H224879   3.509   1.523  13.318 -0.8485 -0.0410 -1.1994
 1130TIP3   OH224880   2.042   6.757  16.513  0.7205 -0.2018 -0.7446
 1130TIP3    H124881   2.051   6.674  16.559  0.5940 -0.4955 -1.2422
 1130TIP3    H224882   1.957   6.792  16.541  0.5957 -0.4308 -0.8413
 1131TIP3   OH224883   1.396   5.428  16.916 -0.1419  0.1527  0.3976
 1131TIP3    H124884   1.474   5.472  16.882 -1.2967  2.1976  0.2566
 1131TIP3    H224885   1.324   5.487  16.894 -1.6963 -1.5050  0.8496
 1132TIP3   OH224886   4.070   0.744  10.793 -0.4352 -0.5383 -0.1308
 1132TIP3    H124887   3.999   0.748  10.729 -1.1990  0.0490  0.7270
 1132TIP3    H224888   4.036   0.687  10.863 -0.9998  1.5238  1.3552
 1133TIP3   OH224889   0.551   0.629  10.933  0.5884 -0.2650 -0.1182
 1133TIP3    H124890   0.528   0.672  10.851  1.1088 -2.0972 -1.2882
 1133TIP3    H224891   0.637   0.591  10.917 -0.1461 -2.3489  0.5470
 1134TIP3   OH224892   0.216   4.251   2.149  0.8821  0.0891  0.2731
 1134TIP3    H124893   0.186   4.342   2.150  0.9715  0.1257 -0.2873
 1134TIP3    H224894   0.215   4.226   2.057 -0.9638 -1.0819  0.5634
 1135TIP3   OH224895   6.627   5.891  15.322 -0.3072  0.2215 -0.6378
 1135TIP3    H124896   6.691   5.821  15.331  1.7900  1.5364 -3.7407
 1135TIP3    H224897   6.593   5.881  15.233 -1.7380  1.7487 -0.3062
 1136TIP3   OH224898   5.226   0.734  13.780  0.4591  0.1139  0.5402
 1136TIP3    H124899   5.312   0.705  13.749 -0.5529 -2.5095 -0.1064
 1136TIP3    H224900   5.213   0.819  13.739  3.3172  1.3289  1.8502
 1137TIP3   OH224901   1.107   1.720  15.183  0.0880  0.4139 -0.7132
 1137TIP3    H124902   1.107   1.624  15.175 -1.2580  0.3581 -0.4329
 1137TIP3    H224903   1.135   1.736  15.273  0.2225  0.2704 -0.7293
 1138TIP3   OH224904   4.033   6.446  13.800  0.5730 -0.3758 -0.3535
 1138TIP3    H124905   4.071   6.511  13.859  1.2944 -1.0805 -0.0196
 1138TIP3    H224906   4.107   6.413  13.750  0.0635 -0.2592 -1.2044
 1139TIP3   OH224907   0.257   0.539  14.147 -0.4528 -0.0169 -0.2051
 1139TIP3    H124908   0.248   0.536  14.243 -0.0894 -1.7295 -0.2006
 1139TIP3    H224909   0.234   0.629  14.124 -1.3687  0.2015  1.4158
 1140TIP3   OH224910   6.572   3.408   0.458 -0.5067 -0.0577 -0.3053
 1140TIP3    H124911   6.520   3.328   0.458 -0.3778 -0.1422  0.0025
 1140TIP3    H224912   6.528   3.466   0.396 -1.4674  0.1982  0.5921
 1141TIP3   OH224913   1.510   4.912   5.747 -0.0649  0.1160  0.5481
 1141TIP3    H124914   1.488   5.002   5.771 -0.2277  0.4474 -0.7625
 1141TIP3    H224915   1.459   4.859   5.808 -2.1972  0.9101 -0.4304
 1142TIP3   OH224916   5.631   4.290  11.980 -0.2420  0.2562  0.2301
 1142TIP3    H124917   5.721   4.311  12.005 -0.3659  0.4232  0.5439
 1142TIP3    H224918   5.590   4.262  12.062  0.3641 -2.9208 -0.4169
 1143TIP3   OH224919   3.776   0.414   1.239 -0.0623  0.0082  0.0001
 1143TIP3    H124920   3.859   0.445   1.274 -0.5001  0.1696  0.9239
 1143TIP3    H224921   3.721   0.401   1.316 -0.6401 -0.8450 -0.5413
 1144TIP3   OH224922   1.634   2.556   3.389 -0.0314 -0.6010 -0.0099
 1144TIP3    H124923   1.706   2.619   3.393  0.4059 -1.1275  0.6211
 1144TIP3    H224924   1.671   2.479   3.346 -0.7451 -0.2139 -1.3723
 1145TIP3   OH224925   4.817   5.820   5.677 -0.3929  0.0363 -0.1961
 1145TIP3    H124926   4.795   5.903   5.635  0.1684  0.3250  0.0732
 1145TIP3    H224927   4.732   5.783   5.701 -0.6721  0.2817 -0.7945
 1146TIP3   OH224928   0.188   4.547  14.591 -0.2401  0.3142  0.2100
 1146TIP3    H124929   0.220   4.463  14.559 -0.9823 -0.3013  1.0424
 1146TIP3    H224930   0.106   4.561  14.545 -1.0350 -0.3116  1.3757
 1147TIP3   OH224931   1.449   6.103  15.900 -0.0858  0.2804  0.0548
 1147TIP3    H124932   1.445   6.115  15.805 -0.3419 -0.9532 -0.1057
 1147TIP3    H224933   1.358   6.095  15.927  0.0433 -1.8316  0.0355
 1148TIP3   OH224934   3.878   5.764  12.419 -0.5721 -0.1459 -0.5623
 1148TIP3    H124935   3.905   5.844  12.374 -1.8530  0.7259  0.1633
 1148TIP3    H224936   3.885   5.785  12.512  2.0402 -1.9156 -0.2436
 1149TIP3   OH224937   3.296   0.508   5.016 -0.3644 -0.2935 -0.5865
 1149TIP3    H124938   3.371   0.463   4.979 -0.6867 -1.3366 -0.0007
 1149TIP3    H224939   3.324   0.532   5.105 -0.3092  0.4001 -0.7786
 1150TIP3   OH224940   6.387   5.143   0.027 -0.2027  0.3935 -0.3824
 1150TIP3    H124941   6.303   5.134   0.072 -0.3869  1.0059 -0.5945
 1150TIP3    H224942   6.450   5.160   0.097 -0.4111  0.8628 -0.3014
 1151TIP3   OH224943   0.859   4.261   5.867  0.0141  0.0133 -0.1186
 1151TIP3    H124944   0.787   4.265   5.804  0.8398 -1.0160 -1.1781
 1151TIP3    H224945   0.938   4.260   5.813  0.7740 -0.0987  0.9694
 1152TIP3   OH224946   2.928   6.406  16.303 -1.1362 -0.3942 -0.0825
 1152TIP3    H124947   2.997   6.465  16.333 -2.0546  1.6419 -1.6634
 1152TIP3    H224948   2.852   6.430  16.357 -1.0856 -1.3777  0.4418
 1153TIP3   OH224949   2.728   4.466  16.556  0.1833  0.5562 -0.3885
 1153TIP3    H124950   2.820   4.479  16.534  0.5097  1.6491  1.4249
 1153TIP3    H224951   2.716   4.371  16.554  0.3250  0.4741 -4.2523
 1154TIP3   OH224952   2.481   0.934  11.445  0.1893 -0.5488  0.1037
 1154TIP3    H124953   2.414   1.000  11.461 -0.3941 -1.1450  0.2030
 1154TIP3    H224954   2.535   0.970  11.376 -0.0207  0.1010  0.2715
 1155TIP3   OH224955   4.286   2.371  13.252 -0.1355  0.1573 -0.0574
 1155TIP3    H124956   4.368   2.380  13.204 -1.4081  0.0617 -2.3771
 1155TIP3    H224957   4.255   2.460  13.267 -0.5225  0.1770 -0.9049
 1156TIP3   OH224958   1.423   4.999   4.974  0.1433 -0.4692 -0.2888
 1156TIP3    H124959   1.330   4.999   4.994  0.0105  0.7953 -0.8573
 1156TIP3    H224960   1.452   4.910   4.997 -1.3308 -1.1186 -0.7977
 1157TIP3   OH224961   0.696   2.185   4.144 -0.5143  0.4873 -0.0258
 1157TIP3    H124962   0.625   2.183   4.208  0.0284 -0.6081  0.5667
 1157TIP3    H224963   0.667   2.129   4.073 -0.2100 -0.0495  0.2666
 1158TIP3   OH224964   4.749   5.868  14.420 -0.4935 -0.1040  0.1333
 1158TIP3    H124965   4.683   5.818  14.469 -0.3630 -1.6223 -1.1350
 1158TIP3    H224966   4.832   5.846  14.462 -0.6577  0.8688  0.9923
 1159TIP3   OH224967   6.143   6.619   1.980 -0.1146  0.2809 -0.5159
 1159TIP3    H124968   6.232   6.584   1.984  0.1633  1.0793  0.9536
 1159TIP3    H224969   6.145   6.695   2.038 -1.6931  0.4767 -0.6862
 1160TIP3   OH224970   6.126   6.003   0.300  0.0906  0.0637 -0.1374
 1160TIP3    H124971   6.144   6.096   0.286  1.2403 -0.1927 -0.4406
 1160TIP3    H224972   6.150   5.961   0.217  0.0439 -0.5646  0.1594
 1161TIP3   OH224973   1.780   2.220  12.075  0.1375  0.3943 -0.3905
 1161TIP3    H124974   1.763   2.211  11.981  0.2875  0.7281 -0.4509
 1161TIP3    H224975   1.693   2.214  12.116 -0.0142  1.0051 -0.6115
 1162TIP3   OH224976   5.105   5.229  13.355  0.2358  0.2041 -0.2384
 1162TIP3    H124977   5.099   5.297  13.288 -1.4761  1.6127  1.2222
 1162TIP3    H224978   5.086   5.147  13.309  2.1087  0.7052 -2.0014
 1163TIP3   OH224979   4.888   0.293   3.362  0.7946 -0.3760  0.3176
 1163TIP3    H124980   4.829   0.253   3.426  0.8892 -0.5285  0.3084
 1163TIP3    H224981   4.910   0.378   3.401 -1.7286  0.9862 -1.0039
 1164TIP3   OH224982   6.319   5.895   4.680 -0.0581  0.2687  0.1439
 1164TIP3    H124983   6.338   5.979   4.721 -0.0314  0.7532 -0.8330
 1164TIP3    H224984   6.272   5.846   4.747 -0.5682  1.2762  0.5457
 1165TIP3   OH224985   4.892   2.419   6.149  0.2151 -0.1482 -0.2418
 1165TIP3    H124986   4.946   2.465   6.084  2.3605  0.9280  2.1178
 1165TIP3    H224987   4.912   2.327   6.135  0.9038  0.0879 -0.9148
 1166TIP3   OH224988   2.327   4.513  14.359  0.9132 -0.6482  0.9290
 1166TIP3    H124989   2.408   4.552  14.391  0.5853 -0.9541  2.2200
 1166TIP3    H224990   2.293   4.464  14.435 -0.3628 -0.6994  0.3519
 1167TIP3   OH224991   4.329   4.870   3.891  0.8365 -0.1005  0.3567
 1167TIP3    H124992   4.236   4.847   3.885  0.8161  0.2194 -0.7632
 1167TIP3    H224993   4.331   4.948   3.946  0.1508  1.3348 -1.5332
 1168TIP3   OH224994   0.625   5.783   3.185  0.4069  0.0273 -0.0601
 1168TIP3    H124995   0.693   5.748   3.127 -1.7844 -1.0755 -2.1807
 1168TIP3    H224996   0.607   5.711   3.246  0.2702 -0.1529 -0.3125
 1169TIP3   OH224997   1.052   3.380  15.518  0.7128  0.4901 -0.3856
 1169TIP3    H124998   1.030   3.350  15.430 -0.9065 -3.1403  1.0449
 1169TIP3    H224999   1.137   3.339  15.537  0.2613 -0.1716  0.2828
 1170TIP3   OH225000   5.187   3.312   1.772 -0.0988  0.8045  0.1695
 1170TIP3    H125001   5.222   3.336   1.686  1.2840 -0.1247  0.4346
 1170TIP3    H225002   5.177   3.396   1.817  1.2610  1.1687 -0.1458
 1171TIP3   OH225003   6.448   2.212  13.619  0.6335 -0.1301  0.1658
 1171TIP3    H125004   6.472   2.199  13.711  3.9334  0.3584 -0.4986
 1171TIP3    H225005   6.466   2.305  13.603 -0.7737  0.0090 -0.7789
 1172TIP3   OH225006   0.933   2.499   5.704 -0.0112  0.2734  0.0256
 1172TIP3    H125007   0.848   2.487   5.746 -1.2475  1.2310 -2.0272
 1172TIP3    H225008   0.938   2.593   5.687  0.8655  0.0536 -1.0241
 1173TIP3   OH225009   0.034   6.230  15.849 -0.4266 -0.5218 -0.3784
 1173TIP3    H125010  -0.003   6.143  15.837  1.1006 -1.3260  0.4905
 1173TIP3    H225011  -0.042   6.288  15.851 -1.5099 -1.8831 -0.3994
 1174TIP3   OH225012   3.253   3.572   0.977  0.8830 -0.3740 -0.3866
 1174TIP3    H125013   3.231   3.664   0.982 -0.2488 -0.6925  1.5087
 1174TIP3    H225014   3.346   3.568   1.002  0.2159  0.0497  2.4850
 1175TIP3   OH225015   6.073   2.074  14.247  0.4541  0.2235 -0.4334
 1175TIP3    H125016   6.104   2.120  14.324 -1.8440  1.9597 -0.4311
 1175TIP3    H225017   6.019   2.003  14.281 -0.9123  1.2480 -0.3628
 1176TIP3   OH225018   3.691   0.535  11.798  0.1042 -0.1849  0.0377
 1176TIP3    H125019   3.739   0.586  11.864  0.4942 -0.1333 -0.2779
 1176TIP3    H225020   3.610   0.584  11.785 -0.1433 -0.3927  0.7408
 1177TIP3   OH225021   2.734   6.228  12.172  0.2450 -0.7849  0.2590
 1177TIP3    H125022   2.676   6.209  12.098  0.1730 -0.8206  0.3238
 1177TIP3    H225023   2.816   6.256  12.132  0.1465 -0.6227  0.1658
 1178TIP3   OH225024   1.289   0.185   1.499 -0.0997 -0.0815 -0.0976
 1178TIP3    H125025   1.256   0.182   1.589 -0.7116  0.0515 -0.3078
 1178TIP3    H225026   1.363   0.245   1.502 -1.9878  2.4233 -0.2343
 1179TIP3   OH225027   2.786   0.911  14.918  0.2062  0.2310 -0.1508
 1179TIP3    H125028   2.698   0.874  14.922 -0.5291  2.0141  1.3964
 1179TIP3    H225029   2.777   0.988  14.861 -0.0018  2.1688  2.3569
 1180TIP3   OH225030   5.140   4.896  16.049 -0.4065 -0.0427  0.2906
 1180TIP3    H125031   5.054   4.911  16.089 -0.6474  1.7879 -0.7840
 1180TIP3    H225032   5.120   4.854  15.965 -0.4721  1.8489 -0.7198
 1181TIP3   OH225033   3.197   0.046  14.154  0.5356 -0.3479  0.2877
 1181TIP3    H125034   3.290   0.023  14.144  0.4121 -0.3719 -1.0279
 1181TIP3    H225035   3.197   0.131  14.197  1.3594  1.5247 -3.0842
 1182TIP3   OH225036   0.374   6.655   0.187 -0.2399 -0.1771 -0.2184
 1182TIP3    H125037   0.449   6.599   0.204  0.8324  0.8304 -1.4174
 1182TIP3    H225038   0.403   6.742   0.215 -1.1768  0.1223 -0.1501
 1183TIP3   OH225039   5.396   1.609  12.688 -0.6952 -0.0830  0.1300
 1183TIP3    H125040   5.473   1.590  12.634 -0.3321  0.7336  0.3312
 1183TIP3    H225041   5.428   1.600  12.778 -0.9734 -0.2471  0.2114
 1184TIP3   OH225042   5.478   1.360  11.592  0.2282 -0.1109 -0.1930
 1184TIP3    H125043   5.562   1.380  11.634  0.6169  0.8223 -1.3504
 1184TIP3    H225044   5.472   1.264  11.595  2.2888 -0.3704 -1.7875
 1185TIP3   OH225045   4.084   5.104  16.729 -0.4353 -0.2609 -0.7650
 1185TIP3    H125046   4.077   5.186  16.679 -0.4895  1.1012  1.3667
 1185TIP3    H225047   4.178   5.087  16.734 -0.3083  0.6618  0.2654
 1186TIP3   OH225048   5.288   3.181  12.149 -0.0976 -0.1232  0.4105
 1186TIP3    H125049   5.279   3.175  12.244 -0.2750  1.0394  0.4752
 1186TIP3    H225050   5.213   3.133  12.115 -0.1229 -0.4050  0.8476
 1187TIP3   OH225051   6.695   3.776   2.542 -0.0758  0.1907 -1.0158
 1187TIP3    H125052   6.676   3.864   2.508  2.0403  1.1183 -0.0115
 1187TIP3    H225053   6.763   3.742   2.484  0.7402  0.1886 -0.0942
 1188TIP3   OH225054   5.668   3.440  14.479  0.2350  0.1408  0.4896
 1188TIP3    H125055   5.692   3.373  14.415 -0.7721  0.0033  0.2314
 1188TIP3    H225056   5.594   3.402  14.527  2.1771 -0.6080  3.1409
 1189TIP3   OH225057   0.159   6.387   1.157 -0.0446 -0.0048 -0.1951
 1189TIP3    H125058   0.175   6.451   1.088 -0.6548  0.5336  0.1456
 1189TIP3    H225059   0.077   6.344   1.131 -0.8343  0.9048  0.6748
 1190TIP3   OH225060   6.231   2.709   4.839  0.5781  0.5800 -0.4631
 1190TIP3    H125061   6.146   2.702   4.796  1.6578  0.3002 -2.7438
 1190TIP3    H225062   6.212   2.713   4.932 -1.7998 -1.7498 -0.7593
 1191TIP3   OH225063   3.439   5.303   4.150 -0.2951  0.0199 -0.4878
 1191TIP3    H125064   3.531   5.315   4.127 -0.5387  1.4208 -0.8845
 1191TIP3    H225065   3.397   5.279   4.067 -0.4873  0.7901 -0.6289
 1192TIP3   OH225066   6.168   5.548   0.312 -0.5040 -0.1670  0.1247
 1192TIP3    H125067   6.155   5.457   0.338 -1.3785  0.6374  2.7558
 1192TIP3    H225068   6.245   5.577   0.360 -0.7946  0.7563  0.0654
 1193TIP3   OH225069   3.353   1.869   6.091  0.7525 -0.4055  0.4671
 1193TIP3    H125070   3.398   1.862   6.175  0.7808 -1.9303  0.3432
 1193TIP3    H225071   3.377   1.956   6.058  3.1019 -0.9083  0.6978
 1194TIP3   OH225072   6.426   0.418  14.833 -0.2680 -0.3416  0.6290
 1194TIP3    H125073   6.416   0.513  14.838  2.5277  0.1108 -0.5138
 1194TIP3    H225074   6.356   0.389  14.774 -1.2081  0.9820  1.0635
 1195TIP3   OH225075   5.054   5.223   5.940 -0.6993  0.1864 -0.5555
 1195TIP3    H125076   5.074   5.144   5.889 -0.7509  0.5767 -1.1903
 1195TIP3    H225077   4.992   5.271   5.886 -1.0504  0.4293  0.0555
 1196TIP3   OH225078   5.585   0.992  12.979 -0.0717 -0.0914  0.2568
 1196TIP3    H125079   5.634   0.911  12.963 -2.6047 -2.4389  3.1532
 1196TIP3    H225080   5.559   1.022  12.892  0.8691 -2.4198 -0.9144
 1197TIP3   OH225081   0.326   3.358  15.261 -0.3191  0.0218  0.3128
 1197TIP3    H125082   0.340   3.452  15.276  0.4549 -0.1381  0.6284
 1197TIP3    H225083   0.274   3.354  15.181  0.5056  0.6911 -0.2771
 1198TIP3   OH225084   2.360   5.815  16.311 -0.5898 -0.3775 -0.0560
 1198TIP3    H125085   2.271   5.839  16.283 -0.6015  0.9951  1.0193
 1198TIP3    H225086   2.409   5.803  16.230 -1.7149 -0.9653 -0.6657
 1199TIP3   OH225087   3.432   2.594   1.660 -0.4070  0.4683  0.2472
 1199TIP3    H125088   3.468   2.505   1.668 -0.6020  0.4185  0.5566
 1199TIP3    H225089   3.377   2.605   1.737 -1.0423  0.5560 -0.2049
 1200TIP3   OH225090   3.277   5.984  12.290  0.0545  0.1877  0.4708
 1200TIP3    H125091   3.308   6.070  12.316  1.0612 -0.0917  0.2788
 1200TIP3    H225092   3.358   5.932  12.279 -0.5616 -1.2539  2.1896
 1201TIP3   OH225093   4.225   4.364   4.335 -0.2411  0.0575 -0.3218
 1201TIP3    H125094   4.278   4.333   4.261 -1.3858 -1.8611 -0.3938
 1201TIP3    H225095   4.260   4.316   4.410 -0.4588  0.4119  0.0046
 1202TIP3   OH225096   5.248   0.537  14.299  0.1811  0.2157 -0.8208
 1202TIP3    H125097   5.323   0.578  14.256 -1.0723  0.9283 -2.4344
 1202TIP3    H225098   5.285   0.461  14.344  2.1109  1.4794 -0.1563
 1203TIP3   OH225099   3.723   0.226   3.152 -0.5074 -0.6419 -0.0810
 1203TIP3    H125100   3.807   0.201   3.113 -0.2840  0.1773 -0.1548
 1203TIP3    H225101   3.719   0.321   3.140 -1.0922 -0.5707  0.6164
 1204TIP3   OH225102   6.495   2.477  11.187 -0.5918 -0.4841  0.0011
 1204TIP3    H125103   6.579   2.445  11.155 -0.3170 -1.2300  1.4014
 1204TIP3    H225104   6.430   2.430  11.133 -0.1421 -0.0600 -0.9382
 1205TIP3   OH225105   3.101   0.712   4.308 -0.3401 -0.4463 -0.7009
 1205TIP3    H125106   3.017   0.744   4.275  0.7212  1.5917 -1.6354
 1205TIP3    H225107   3.161   0.785   4.293  1.0505 -0.7998  2.3670
 1206TIP3   OH225108   5.418   6.483  14.973  0.1583  0.0945 -0.0804
 1206TIP3    H125109   5.494   6.462  15.026 -0.3140  1.9056  1.4304
 1206TIP3    H225110   5.374   6.554  15.020 -0.1541  2.0306 -3.0013
 1207TIP3   OH225111   5.802   5.157  10.538  0.4325  0.1379 -0.4183
 1207TIP3    H125112   5.820   5.236  10.486 -0.3732  0.8093  0.3007
 1207TIP3    H225113   5.710   5.165  10.563  0.7051 -0.3554  0.8096
 1208TIP3   OH225114   2.962   1.573  14.028 -0.3390 -0.1331  0.4160
 1208TIP3    H125115   2.992   1.482  14.021  1.3465  0.4700 -0.9926
 1208TIP3    H225116   3.011   1.619  13.960 -0.5485  1.9923  1.6247
 1209TIP3   OH225117   6.166   6.552  14.056  0.0245  0.2421  0.0857
 1209TIP3    H125118   6.074   6.568  14.035  0.1543  1.1488  0.1623
 1209TIP3    H225119   6.166   6.540  14.151  0.1099  1.2278  0.2158
 1210TIP3   OH225120   6.139   0.899  16.048  0.4804  0.4616  0.1375
 1210TIP3    H125121   6.101   0.891  16.136  0.0861  0.0361 -0.0691
 1210TIP3    H225122   6.073   0.861  15.990  1.0037  0.1841 -0.2796
 1211TIP3   OH225123   1.913   1.521   0.087  0.4545  0.7774 -0.2450
 1211TIP3    H125124   1.901   1.554   0.176  1.4387  1.7072 -0.4398
 1211TIP3    H225125   1.824   1.521   0.050  0.2576  2.1993  0.1354
 1212TIP3   OH225126   6.729   0.532   1.076 -0.4524  0.4226  0.8472
 1212TIP3    H125127   6.792   0.463   1.060  1.0425  1.1344  3.2278
 1212TIP3    H225128   6.725   0.580   0.993 -0.4811 -1.6140 -0.4037
 1213TIP3   OH225129   5.602   5.497   1.899 -0.5353  0.6518 -0.3150
 1213TIP3    H125130   5.573   5.406   1.899 -0.9641  0.7880 -0.1118
 1213TIP3    H225131   5.698   5.491   1.891 -0.3407  0.0932  1.7802
 1214TIP3   OH225132   2.718   5.241  14.935 -0.1145  0.3576 -0.1450
 1214TIP3    H125133   2.655   5.294  14.983 -1.7265 -0.7908 -0.9110
 1214TIP3    H225134   2.743   5.296  14.860 -0.3334  0.7537  0.0683
 1215TIP3   OH225135   0.619   1.252  14.436 -0.4438  0.3996 -0.4801
 1215TIP3    H125136   0.616   1.160  14.463  0.7025  0.6078  0.4484
 1215TIP3    H225137   0.631   1.248  14.341  0.8808 -0.4493 -0.3102
 1216TIP3   OH225138   4.769   1.982  16.306 -0.0855 -0.8259  0.2939
 1216TIP3    H125139   4.687   2.027  16.327  0.6659 -0.3391  2.4963
 1216TIP3    H225140   4.836   2.050  16.308  0.2388 -0.8179 -3.4978
 1217TIP3   OH225141   2.024   4.166   2.605  0.1453  0.5948 -0.6679
 1217TIP3    H125142   2.049   4.251   2.644 -0.4010  0.1436  0.7412
 1217TIP3    H225143   1.930   4.173   2.593  0.4869  1.3113 -3.4985
 1218TIP3   OH225144   3.324   5.404   3.783  0.6239 -0.0273  0.0445
 1218TIP3    H125145   3.365   5.319   3.804  2.2212  0.7407  0.2157
 1218TIP3    H225146   3.260   5.417   3.852  0.7635 -0.8370  0.3429
 1219TIP3   OH225147   2.348   2.985  14.262 -0.5788 -0.1849 -0.3030
 1219TIP3    H125148   2.388   2.983  14.175 -0.5086  0.1195 -0.2789
 1219TIP3    H225149   2.254   2.982  14.246 -0.6719  1.9072 -0.4991
 1220TIP3   OH225150   2.949   3.879  13.721  0.1729  0.1435  0.5320
 1220TIP3    H125151   2.998   3.801  13.696  1.7795  1.6966 -1.4527
 1220TIP3    H225152   2.899   3.902  13.643 -2.8466 -0.6131  2.0758
 1221TIP3   OH225153   4.050   1.892  14.403  0.2021  1.1830 -0.2983
 1221TIP3    H125154   4.101   1.834  14.346  0.1646  1.3260 -0.4758
 1221TIP3    H225155   4.031   1.969  14.349  1.1748  1.8455  0.2697
 1222TIP3   OH225156   4.072   1.978   1.924 -0.3221 -0.0376 -0.0300
 1222TIP3    H125157   3.986   1.980   1.883 -0.9524 -0.9255  1.1964
 1222TIP3    H225158   4.059   1.931   2.007  1.7211 -2.0621 -0.7383
 1223TIP3   OH225159   5.257   5.511  14.294  0.5535  0.0578 -0.6286
 1223TIP3    H125160   5.315   5.525  14.369 -0.1481 -0.1112 -0.0420
 1223TIP3    H225161   5.316   5.503  14.219  1.2471  0.7165 -0.1726
 1224TIP3   OH225162   5.356   1.159   3.374  0.1437  0.2565  0.3850
 1224TIP3    H125163   5.354   1.166   3.279 -0.4290  1.9856  0.4995
 1224TIP3    H225164   5.266   1.140   3.399 -0.2403  2.3381  0.7147
 1225TIP3   OH225165   3.056   1.203  14.933 -0.0002  0.2163  0.0994
 1225TIP3    H125166   2.967   1.236  14.918 -0.0460 -0.7078 -2.1161
 1225TIP3    H225167   3.112   1.265  14.886  0.0926 -1.4694 -2.1965
 1226TIP3   OH225168   1.602   2.992   4.501  0.2046  0.2283 -0.3730
 1226TIP3    H125169   1.639   2.914   4.543  1.0896  1.2203  0.7530
 1226TIP3    H225170   1.512   2.995   4.534 -0.2205 -0.9201 -1.3271
 1227TIP3   OH225171   3.347   1.376  15.390 -0.1941  0.2211  1.3287
 1227TIP3    H125172   3.294   1.364  15.311  0.8801  0.4015  0.5589
 1227TIP3    H225173   3.296   1.334  15.459 -2.0452  1.6691  0.9321
 1228TIP3   OH225174   0.001   2.841   3.493  0.5628  0.0051  0.2136
 1228TIP3    H125175   0.069   2.828   3.559  0.2633  1.3368  0.8286
 1228TIP3    H225176   0.046   2.833   3.409  1.7979  2.1247  0.5884
 1229TIP3   OH225177   1.844   2.818  15.209 -0.3432  0.9933  0.7520
 1229TIP3    H125178   1.772   2.755  15.201  1.3452 -1.0793  0.8958
 1229TIP3    H225179   1.858   2.850  15.119 -1.4173  1.4398  0.7276
 1230TIP3   OH225180   5.487   0.716   5.382 -0.1039 -0.2694  0.0877
 1230TIP3    H125181   5.492   0.787   5.445  1.4162  1.7123 -2.1000
 1230TIP3    H225182   5.569   0.668   5.393 -1.6144 -2.5817  2.3708
 1231TIP3   OH225183   4.139   5.641  10.559 -0.0527  0.2938 -0.6818
 1231TIP3    H125184   4.068   5.625  10.621  0.9897 -0.2953  0.3997
 1231TIP3    H225185   4.184   5.718  10.593  0.3386  0.1580 -0.8786
 1232TIP3   OH225186   6.476   4.457  11.558  0.2917 -0.2506 -0.3966
 1232TIP3    H125187   6.544   4.501  11.609  0.7466 -0.8190 -0.4995
 1232TIP3    H225188   6.409   4.523  11.546 -0.4843 -0.4666  2.1299
 1233TIP3   OH225189   3.073   0.159   3.537  0.0618 -0.7720  0.3139
 1233TIP3    H125190   3.042   0.248   3.523  2.9572  0.3918  0.7473
 1233TIP3    H225191   2.997   0.104   3.515 -1.7199  1.7288 -0.2565
 1234TIP3   OH225192   3.714   2.554  11.292  0.2551  0.3661  0.2440
 1234TIP3    H125193   3.625   2.531  11.264 -0.6328  3.3371  0.2627
 1234TIP3    H225194   3.771   2.507  11.231 -1.3589 -0.5054 -0.6608
 1235TIP3   OH225195   5.839   6.817  11.528 -0.1490  0.6117 -0.7693
 1235TIP3    H125196   5.865   6.739  11.478 -0.1609 -0.3907  0.7237
 1235TIP3    H225197   5.753   6.795  11.562 -0.2899  1.4248 -0.5859
 1236TIP3   OH225198   0.431   1.981  16.586 -0.3204  0.3199 -0.5832
 1236TIP3    H125199   0.426   1.944  16.674 -0.3224 -1.0508 -1.1422
 1236TIP3    H225200   0.524   1.996  16.571 -0.1370 -1.0787 -0.9810
 1237TIP3   OH225201   4.195   5.771  12.430 -0.0504  0.6515 -0.0574
 1237TIP3    H125202   4.131   5.824  12.382 -1.0156  0.4451  0.9544
 1237TIP3    H225203   4.166   5.681  12.417 -0.1029  0.5709  0.5795
 1238TIP3   OH225204   6.680   0.778  16.344 -0.0620 -0.7503  0.0230
 1238TIP3    H125205   6.625   0.856  16.332 -3.3720 -2.2278  3.5726
 1238TIP3    H225206   6.767   0.813  16.361 -0.7810  1.9741 -1.2451
 1239TIP3   OH225207   1.405   1.070  15.236 -0.2257 -0.0119 -0.3744
 1239TIP3    H125208   1.462   0.994  15.249  1.9131  0.9617 -3.1472
 1239TIP3    H225209   1.429   1.129  15.307  1.5526 -0.0661 -0.8660
 1240TIP3   OH225210   1.931   2.361  12.698 -0.2170  0.6089  0.4461
 1240TIP3    H125211   1.846   2.396  12.674  0.2039  0.4171 -1.5062
 1240TIP3    H225212   1.917   2.266  12.704 -0.8830  0.8224  3.6443
 1241TIP3   OH225213   3.482   4.676   2.948 -0.1381  0.2444 -0.0233
 1241TIP3    H125214   3.455   4.761   2.981 -1.8207 -0.5090  0.6490
 1241TIP3    H225215   3.457   4.614   3.017  0.1249 -0.8970 -0.9190
 1242TIP3   OH225216   2.051   4.869   0.993 -0.6293  0.6962 -0.0796
 1242TIP3    H125217   2.059   4.780   0.958  0.2403  0.3869  0.8611
 1242TIP3    H225218   2.107   4.922   0.937  0.9867  0.1548  0.9617
 1243TIP3   OH225219   1.128   4.422   3.565 -0.6352  0.7216  0.0628
 1243TIP3    H125220   1.062   4.382   3.622 -0.2813  0.8308  0.5488
 1243TIP3    H225221   1.155   4.501   3.612 -0.1754  0.6883 -0.1483
 1244TIP3   OH225222   3.253   6.344  10.002  0.5261 -0.2603 -0.3870
 1244TIP3    H125223   3.212   6.386   9.926 -3.5167 -1.4749  0.8493
 1244TIP3    H225224   3.303   6.414  10.044 -3.1601  2.5786 -0.2483
 1245TIP3   OH225225   2.967   5.169  15.323  0.4137 -0.1250 -0.5788
 1245TIP3    H125226   3.002   5.246  15.367  1.0802 -0.3704 -0.6508
 1245TIP3    H225227   2.984   5.097  15.384  0.0347 -0.2525 -0.6222
 1246TIP3   OH225228   4.659   3.513   5.508 -0.2873 -0.5736 -0.5813
 1246TIP3    H125229   4.630   3.589   5.457 -0.7616 -0.6439 -0.4176
 1246TIP3    H225230   4.584   3.491   5.563  0.6089  0.2622  1.0628
 1247TIP3   OH225231   3.204   1.674   1.717  0.2849  0.3048 -0.7736
 1247TIP3    H125232   3.269   1.629   1.771  0.6599  1.6090 -0.0945
 1247TIP3    H225233   3.126   1.619   1.722  0.4648  0.1509  0.7237
 1248TIP3   OH225234   2.376   4.012   2.369  0.9927 -0.3510  0.5509
 1248TIP3    H125235   2.382   4.103   2.397  0.5080 -0.2196  0.2385
 1248TIP3    H225236   2.337   3.967   2.444 -1.6395  0.2482 -0.3471
 1249TIP3   OH225237   6.119   3.953  16.524 -0.0594  1.1908  0.0956
 1249TIP3    H125238   6.146   3.861  16.522 -1.0262  0.5459  4.9625
 1249TIP3    H225239   6.027   3.951  16.497 -1.4432 -0.2079  4.1913
 1250TIP3   OH225240   2.012   6.529  12.346 -0.2364 -0.6396  0.5437
 1250TIP3    H125241   2.040   6.619  12.362 -0.0271 -0.6941  0.4963
 1250TIP3    H225242   1.988   6.527  12.253  2.9399 -1.4158 -0.3891
 1251TIP3   OH225243   0.866   5.000   6.823  0.6519 -0.0834  0.1932
 1251TIP3    H125244   0.774   5.002   6.851  0.5327 -0.2484 -0.1743
 1251TIP3    H225245   0.873   5.071   6.759  0.9180  0.2854  0.6351
 1252TIP3   OH225246   1.771   0.996  11.304  0.1519 -0.0517 -0.0379
 1252TIP3    H125247   1.851   0.960  11.342  1.3050  0.9574 -1.3847
 1252TIP3    H225248   1.791   1.004  11.211 -1.9259 -0.7653 -0.5765
 1253TIP3   OH225249   0.734   1.749  13.562  0.0238 -0.3438 -0.2243
 1253TIP3    H125250   0.652   1.768  13.607  0.5000 -0.0836  0.5569
 1253TIP3    H225251   0.774   1.834  13.547  0.0358 -0.4526 -0.8279
 1254TIP3   OH225252   4.126   4.493  13.015 -0.2493  0.0861  0.1232
 1254TIP3    H125253   4.193   4.460  13.074  0.7444  1.3356 -0.2541
 1254TIP3    H225254   4.161   4.478  12.928 -1.2601 -0.8234 -0.1586
 1255TIP3   OH225255   0.225   5.521   3.248  0.1944  0.3482  0.2110
 1255TIP3    H125256   0.240   5.487   3.336 -1.3375  0.1027  0.4049
 1255TIP3    H225257   0.227   5.443   3.192 -0.7156  0.2552  0.2980
 1256TIP3   OH225258   0.750   4.683   0.153 -0.2604  0.1189  0.0212
 1256TIP3    H125259   0.747   4.628   0.075  0.9821 -0.0799  0.0979
 1256TIP3    H225260   0.843   4.688   0.176 -0.5024  1.0236  0.8871
 1257TIP3   OH225261   0.524   4.648  10.996  0.0713 -0.4450 -0.8046
 1257TIP3    H125262   0.580   4.697  10.936  0.5743 -0.0029  0.0107
 1257TIP3    H225263   0.548   4.680  11.083 -0.7706 -0.9506 -0.3773
 1258TIP3   OH225264   2.252   6.278   4.129 -0.2021 -0.1473 -0.0629
 1258TIP3    H125265   2.225   6.339   4.059 -2.7195  0.2514  1.1379
 1258TIP3    H225266   2.283   6.334   4.199  1.2502 -0.4963 -0.3986
 1259TIP3   OH225267   1.062   6.140   3.199  0.1317  0.0343 -0.0575
 1259TIP3    H125268   1.148   6.117   3.236  0.6191 -1.3755 -1.9115
 1259TIP3    H225269   1.078   6.218   3.147  0.2203  0.0001 -0.0826
 1260TIP3   OH225270   1.932   2.790   1.657 -0.1286 -1.1110 -0.2985
 1260TIP3    H125271   1.886   2.738   1.723 -0.4774  0.8139  1.0738
 1260TIP3    H225272   1.870   2.795   1.584 -1.1427 -0.5664  0.5625
 1261TIP3   OH225273   3.857   2.716   5.549  0.5231  0.3958  0.6020
 1261TIP3    H125274   3.913   2.660   5.494 -1.6024 -0.2100 -1.0784
 1261TIP3    H225275   3.823   2.657   5.616  1.1853  0.5858  1.1274
 1262TIP3   OH225276   6.309   4.660   3.333  0.2274  0.5190  0.0330
 1262TIP3    H125277   6.274   4.624   3.251  1.6933  1.7506 -1.1923
 1262TIP3    H225278   6.255   4.621   3.401  0.1240 -1.9670 -1.3725
 1263TIP3   OH225279   4.246   0.503  15.762 -0.9065  0.1520 -0.1976
 1263TIP3    H125280   4.180   0.548  15.709 -0.5476 -0.5327 -1.2597
 1263TIP3    H225281   4.319   0.565  15.768 -0.9791  0.2637 -0.4460
 1264TIP3   OH225282   2.895   1.450  11.752 -0.0368 -0.0717 -0.3345
 1264TIP3    H125283   2.924   1.359  11.752  0.5270  0.1002 -0.7470
 1264TIP3    H225284   2.905   1.478  11.843 -1.9490 -0.9387  0.1917
 1265TIP3   OH225285   6.812   6.563   0.153 -0.0389 -0.4164 -0.0198
 1265TIP3    H125286   6.761   6.635   0.190  0.1027 -1.1382  1.6795
 1265TIP3    H225287   6.827   6.588   0.062 -3.7544 -0.3570 -0.7596
 1266TIP3   OH225288   3.268   5.819   3.843 -0.0513 -0.5426  0.0566
 1266TIP3    H125289   3.208   5.832   3.915  0.7625 -0.0867  0.6684
 1266TIP3    H225290   3.248   5.732   3.810 -1.5340 -0.1194 -0.2352
 1267TIP3   OH225291   1.554   3.066  14.459 -0.1966 -0.1553  0.0445
 1267TIP3    H125292   1.534   2.983  14.501  2.9975 -0.7492  0.6568
 1267TIP3    H225293   1.601   3.116  14.526  0.4669  0.9590 -1.2006
 1268TIP3   OH225294   3.908   2.476  13.107 -0.3434  0.1753 -0.1338
 1268TIP3    H125295   3.962   2.455  13.031  1.7924 -0.4579  1.4803
 1268TIP3    H225296   3.954   2.549  13.150 -1.8334  0.9220  0.2583
 1269TIP3   OH225297   5.959   6.461   1.084  0.0847  0.1699  0.3569
 1269TIP3    H125298   6.032   6.446   1.144  0.6809 -1.0297 -0.6325
 1269TIP3    H225299   5.902   6.384   1.094 -0.5582  0.6384  0.4120
 1270TIP3   OH225300   5.213   4.661   2.915  0.0347 -0.2412 -0.2202
 1270TIP3    H125301   5.304   4.634   2.932  0.0052 -0.5972 -0.6016
 1270TIP3    H225302   5.220   4.751   2.884  0.0124  0.8284  2.6186
 1271TIP3   OH225303   2.234   4.745  11.338  0.3244 -0.5790 -0.2240
 1271TIP3    H125304   2.249   4.820  11.280  1.3607  0.1835  0.9791
 1271TIP3    H225305   2.154   4.767  11.385 -0.0414 -0.7995 -0.7363
 1272TIP3   OH225306   4.576   5.410   1.744  0.3137 -0.3656 -0.1793
 1272TIP3    H125307   4.549   5.319   1.751 -0.0396 -0.1191  2.9038
 1272TIP3    H225308   4.672   5.407   1.753  0.3218 -0.4238 -0.2766
 1273TIP3   OH225309   2.575   6.114   6.856 -0.2997  0.2602  0.1200
 1273TIP3    H125310   2.516   6.087   6.786 -0.7145 -2.0886  1.3030
 1273TIP3    H225311   2.611   6.197   6.825 -1.1973 -0.2034 -2.4202
 1274TIP3   OH225312   6.611   2.011  15.024 -0.0830 -0.3932  0.4083
 1274TIP3    H125313   6.536   1.994  14.967 -1.2478 -1.1270  2.0784
 1274TIP3    H225314   6.600   2.101  15.053  0.6161  0.0456 -0.6170
 1275TIP3   OH225315   4.457   1.794   2.451  0.0334 -0.2344  0.4109
 1275TIP3    H125316   4.407   1.872   2.477 -0.4773 -0.8543  1.3369
 1275TIP3    H225317   4.549   1.821   2.459 -0.1375  0.3245  0.5605
 1276TIP3   OH225318   0.697   0.478  12.347  0.0087  0.0443  0.4695
 1276TIP3    H125319   0.764   0.504  12.283  0.9616  0.0808  1.4569
 1276TIP3    H225320   0.737   0.495  12.432 -1.4333  0.4627  1.0846
 1277TIP3   OH225321   3.783   2.270  14.835 -0.6377 -0.1340 -0.2439
 1277TIP3    H125322   3.784   2.363  14.854  0.9673 -0.5094  1.8896
 1277TIP3    H225323   3.804   2.264  14.741 -0.7534  1.6183 -0.4055
 1278TIP3   OH225324   1.686   0.839  14.774 -0.9007  0.1829  0.1944
 1278TIP3    H125325   1.611   0.885  14.811 -1.5429 -1.6930  1.4016
 1278TIP3    H225326   1.670   0.747  14.796  1.9932 -0.2436  0.9315
 1279TIP3   OH225327   3.470   1.349   5.013 -0.0554 -0.2087 -0.3982
 1279TIP3    H125328   3.563   1.355   4.994  0.6983 -0.4675  2.6344
 1279TIP3    H225329   3.456   1.257   5.035 -1.0200 -0.1547 -0.7538
 1280TIP3   OH225330   5.596   5.711   3.918  0.3747  0.4261 -0.4657
 1280TIP3    H125331   5.658   5.638   3.923  0.4525  0.5497  0.5911
 1280TIP3    H225332   5.644   5.786   3.954 -0.3020  0.5716  0.1683
 1281TIP3   OH225333   6.016   2.969  16.306 -0.0424  0.2588  0.1452
 1281TIP3    H125334   5.958   3.042  16.330 -0.0688  0.2694  0.0509
 1281TIP3    H225335   6.103   3.008  16.301  0.1845 -0.0119  1.5355
 1282TIP3   OH225336   6.659   1.151  13.114 -0.2124 -0.3459 -0.0049
 1282TIP3    H125337   6.736   1.121  13.162  0.3190 -1.1141 -1.2985
 1282TIP3    H225338   6.691   1.222  13.059 -0.6652  0.0292  0.2024
 1283TIP3   OH225339   0.455   3.230  14.864  0.1651  0.1968  1.0586
 1283TIP3    H125340   0.480   3.310  14.818  0.6452  0.8061  2.3345
 1283TIP3    H225341   0.366   3.248  14.896  0.3136  0.2569  1.4341
 1284TIP3   OH225342   0.211   5.849  12.593  0.4120 -0.4120 -0.2920
 1284TIP3    H125343   0.242   5.837  12.503  1.2491 -0.5028 -0.0027
 1284TIP3    H225344   0.225   5.942  12.611 -0.4368 -0.2366 -0.4924
 1285TIP3   OH225345   5.334   3.130   0.115  0.5700  0.6048  0.5325
 1285TIP3    H125346   5.252   3.168   0.084  0.8928  0.8696 -0.0094
 1285TIP3    H225347   5.321   3.036   0.109  0.6586  0.6502 -0.5135
 1286TIP3   OH225348   5.385   0.312   5.902 -0.6481 -0.4479  0.0471
 1286TIP3    H125349   5.420   0.224   5.893  0.0280 -0.1720 -0.0754
 1286TIP3    H225350   5.448   0.368   5.858 -0.9559  0.1247  0.3164
 1287TIP3   OH225351   0.071   2.782  16.097 -0.7294 -0.1018 -0.3078
 1287TIP3    H125352   0.051   2.758  16.007 -3.1776 -0.1732  0.1640
 1287TIP3    H225353   0.164   2.805  16.097 -0.2455 -1.8074 -2.4432
 1288TIP3   OH225354   5.025   4.839  12.917 -0.1886 -0.9745  0.6125
 1288TIP3    H125355   5.105   4.879  12.952 -0.3117 -1.2484  1.2350
 1288TIP3    H225356   5.022   4.866  12.826  0.5830 -0.9032  0.6004
 1289TIP3   OH225357   5.819   1.932   0.928 -0.9576 -0.0334 -0.2245
 1289TIP3    H125358   5.856   2.019   0.908 -0.0501 -0.6085 -1.1599
 1289TIP3    H225359   5.727   1.949   0.947 -0.8523  1.1118 -0.6279
 1290TIP3   OH225360   6.393   0.341  16.989  0.3333  0.0309 -0.3847
 1290TIP3    H125361   6.365   0.427  16.959 -0.0157  0.5935  1.4252
 1290TIP3    H225362   6.433   0.357  17.075 -0.6086 -1.7098  0.4424
 1291TIP3   OH225363   0.328   5.125   2.911 -0.0929 -0.6811  0.1998
 1291TIP3    H125364   0.383   5.058   2.952  0.0799  0.6242  2.2229
 1291TIP3    H225365   0.388   5.178   2.859  0.3445 -0.1309  1.2467
 1292TIP3   OH225366   2.045   2.096  12.814  0.2828  0.3447 -0.1874
 1292TIP3    H125367   2.104   2.049  12.755  0.9673 -0.1413  0.8503
 1292TIP3    H225368   2.002   2.028  12.865 -0.6113  0.7402 -0.3917
 1293TIP3   OH225369   6.297   1.244  14.852  0.5151 -1.0060  0.0188
 1293TIP3    H125370   6.206   1.234  14.825  0.4475 -0.8646  0.1992
 1293TIP3    H225371   6.343   1.174  14.805  0.4112 -0.7071 -0.5329
 1294TIP3   OH225372   1.168   6.086  16.690 -0.0597  0.0541 -0.2819
 1294TIP3    H125373   1.162   6.067  16.596 -1.2833  2.3461 -0.7326
 1294TIP3    H225374   1.260   6.108  16.705 -0.3586  2.4703 -1.5981
 1295TIP3   OH225375   2.282   3.505  12.538  0.2394 -0.1655 -0.2508
 1295TIP3    H125376   2.273   3.578  12.477 -1.3953  0.5869  0.8313
 1295TIP3    H225377   2.230   3.435  12.498  0.0115 -0.0125 -0.2258
 1296TIP3   OH225378   2.189   1.767  12.905  0.3293  0.2854 -0.1553
 1296TIP3    H125379   2.109   1.806  12.940  0.7042 -0.7822  2.1280
 1296TIP3    H225380   2.162   1.727  12.823 -1.5637 -0.1898  0.6368
 1297TIP3   OH225381   4.032   4.194   0.924  0.0519 -0.1006  0.7533
 1297TIP3    H125382   4.114   4.240   0.909 -0.5159  1.5111  2.1971
 1297TIP3    H225383   4.008   4.218   1.014 -1.1877 -1.8327  0.9224
 1298TIP3   OH225384   2.864   0.921  14.217 -0.4731  0.0829  0.6270
 1298TIP3    H125385   2.926   0.943  14.147 -0.2431  0.4846  0.9570
 1298TIP3    H225386   2.804   0.996  14.220 -1.2957 -0.5239 -0.0360
 1299TIP3   OH225387   0.023   1.212   4.106  0.1621 -0.5948 -0.3061
 1299TIP3    H125388  -0.067   1.181   4.108 -0.2742  0.1651 -3.1792
 1299TIP3    H225389   0.074   1.135   4.079  0.4297 -1.0464  1.3997
 1300TIP3   OH225390   6.041   5.788  13.684  0.1075 -0.3752 -0.0841
 1300TIP3    H125391   5.952   5.822  13.683  0.1162 -0.3399  0.2796
 1300TIP3    H225392   6.030   5.693  13.687  0.0760 -0.3417  1.0915
 1301TIP3   OH225393   3.827   4.317  13.315 -0.8092 -0.0020  0.0345
 1301TIP3    H125394   3.881   4.238  13.310 -1.0011 -0.1041 -0.4350
 1301TIP3    H225395   3.850   4.367  13.236  0.0600  0.9014  0.8188
 1302TIP3   OH225396   0.478   6.177   5.124 -0.1651  0.7146 -0.8402
 1302TIP3    H125397   0.406   6.117   5.143  2.8378 -2.8913  0.5093
 1302TIP3    H225398   0.516   6.197   5.210  0.3123  2.7958 -1.4748
 1303TIP3   OH225399   2.617   1.522   6.238 -0.1413 -0.2868  0.2456
 1303TIP3    H125400   2.649   1.432   6.236  1.3262  0.2107 -0.2707
 1303TIP3    H225401   2.601   1.544   6.146  1.1704  0.5141  0.1863
 1304TIP3   OH225402   6.195   4.290   6.011  0.2462  0.2035 -0.1862
 1304TIP3    H125403   6.220   4.381   5.996 -0.2873  0.2291 -1.0171
 1304TIP3    H225404   6.142   4.267   5.934  0.0602 -0.6899  0.1951
 1305TIP3   OH225405   0.042   3.998  16.339  0.2133 -0.3797 -0.0948
 1305TIP3    H125406   0.117   4.058  16.340 -0.2255  0.1731 -0.0881
 1305TIP3    H225407   0.013   3.997  16.248  1.6483 -2.4037 -0.5988
 1306TIP3   OH225408   3.344   1.939  16.665  0.0745 -0.1953 -0.6492
 1306TIP3    H125409   3.264   1.937  16.613  0.3943 -0.7312 -1.1290
 1306TIP3    H225410   3.372   2.031  16.662 -0.8639  0.1347  0.0779
 1307TIP3   OH225411   5.516   4.941   5.211  0.3007  0.3754 -0.1903
 1307TIP3    H125412   5.497   4.847   5.209 -0.5527  0.5165  0.5216
 1307TIP3    H225413   5.512   4.965   5.303 -0.6395  1.3253 -0.4540
 1308TIP3   OH225414   4.686   0.798   1.727 -0.2088 -0.3660 -0.1602
 1308TIP3    H125415   4.696   0.893   1.720 -1.9221 -0.0101  1.4221
 1308TIP3    H225416   4.735   0.763   1.652 -1.0252  1.8436 -1.8399
 1309TIP3   OH225417   5.788   5.777  13.365 -0.0628 -0.2074  0.3036
 1309TIP3    H125418   5.831   5.862  13.376 -2.4132  1.0139  0.6235
 1309TIP3    H225419   5.784   5.765  13.270 -0.2167  0.3103  0.2420
 1310TIP3   OH225420   3.278   3.786   5.771 -0.2852 -0.6877  0.2348
 1310TIP3    H125421   3.266   3.750   5.859  0.2692  1.3054  1.1989
 1310TIP3    H225422   3.370   3.768   5.751  1.2273  3.2915  2.4000
 1311TIP3   OH225423   2.475   4.991  11.680  0.2485 -0.0639 -0.0381
 1311TIP3    H125424   2.385   4.972  11.707  0.0583  0.4443 -0.2903
 1311TIP3    H225425   2.499   4.917  11.624  0.5511 -0.9816  1.2718
 1312TIP3   OH225426   4.226   6.097   2.648  0.1870  0.4872 -0.1960
 1312TIP3    H125427   4.314   6.070   2.620  0.6271 -0.1560  1.6710
 1312TIP3    H225428   4.171   6.021   2.633  0.2870  0.3558  0.1038
 1313TIP3   OH225429   4.182   5.142   0.927 -0.4317  0.1167 -0.2803
 1313TIP3    H125430   4.226   5.157   1.011 -0.1301  0.3930 -0.4887
 1313TIP3    H225431   4.252   5.118   0.867 -0.5080  0.9434 -0.7108
 1314TIP3   OH225432   3.910   1.510  13.245 -0.0684  0.1816 -0.4686
 1314TIP3    H125433   3.841   1.566  13.209  0.2902  1.0506  0.1702
 1314TIP3    H225434   3.906   1.431  13.192  0.4289  1.4042 -2.4144
 1315TIP3   OH225435   2.951   4.154  15.775  0.1251  0.0844  0.2309
 1315TIP3    H125436   2.934   4.180  15.685 -0.1842 -3.0479 -0.7092
 1315TIP3    H225437   2.901   4.216  15.828 -2.6637 -0.1596 -1.9200
 1316TIP3   OH225438   5.072   0.308   1.808 -0.3067 -0.1636 -0.3586
 1316TIP3    H125439   4.992   0.258   1.823  0.8889 -1.9291  0.4038
 1316TIP3    H225440   5.051   0.366   1.734 -2.4311 -0.1864  0.1865
 1317TIP3   OH225441   1.108   1.467   0.132 -0.7086 -0.7356  0.3229
 1317TIP3    H125442   1.019   1.441   0.110 -0.7516 -0.3085 -0.0213
 1317TIP3    H225443   1.101   1.504   0.220 -1.0162  0.0074 -0.0014
 1318TIP3   OH225444   2.051   1.106   0.491  0.3794 -0.0528  0.2249
 1318TIP3    H125445   2.060   1.193   0.452 -0.9468  0.3933  0.8536
 1318TIP3    H225446   2.110   1.108   0.567 -1.1603  1.0765  1.4599
 1319TIP3   OH225447   2.881   1.974   0.941 -0.3065  0.2539 -0.2406
 1319TIP3    H125448   2.813   2.015   0.888 -0.3366  0.6813  0.1258
 1319TIP3    H225449   2.958   2.029   0.929 -0.4018  0.5371  0.4065
 1320TIP3   OH225450   0.013   0.472   5.463 -0.1502 -0.7880  0.2618
 1320TIP3    H125451   0.043   0.442   5.377 -0.2988 -0.4812  0.0987
 1320TIP3    H225452   0.091   0.470   5.518  0.0904 -0.3524 -0.0557
 1321TIP3   OH225453   6.376   2.375   0.809 -0.1085 -0.2108  0.6678
 1321TIP3    H125454   6.455   2.421   0.779 -0.7234  0.0388 -0.5992
 1321TIP3    H225455   6.385   2.286   0.775 -0.8302  0.0872 -0.3530
 1322TIP3   OH225456   4.974   5.410  12.892 -0.3815  0.0568  0.0475
 1322TIP3    H125457   4.927   5.329  12.914  1.0520 -1.4021 -1.9072
 1322TIP3    H225458   5.059   5.400  12.935  0.1319  0.0566 -0.9361
 1323TIP3   OH225459   0.036   4.413   3.310 -0.3328 -0.8061  0.1133
 1323TIP3    H125460   0.055   4.431   3.218  0.2273  1.1457  0.5582
 1323TIP3    H225461   0.085   4.334   3.331  0.8433 -0.3443 -0.8561
 1324TIP3   OH225462   4.209   0.858  15.989  0.4403  0.2282  0.1277
 1324TIP3    H125463   4.121   0.893  15.975  0.2597 -0.6953 -1.2862
 1324TIP3    H225464   4.252   0.865  15.904  0.5546 -2.4296 -0.1252
 1325TIP3   OH225465   6.727   2.770  13.808 -0.5312  0.2171  0.1095
 1325TIP3    H125466   6.689   2.855  13.785  1.2534  0.7696 -0.9929
 1325TIP3    H225467   6.813   2.791  13.844 -0.9112 -1.0320  1.8988
 1326TIP3   OH225468   2.661   6.015   1.321  0.2897  0.1778  0.4441
 1326TIP3    H125469   2.718   6.082   1.283  0.6625 -0.7862 -0.7848
 1326TIP3    H225470   2.576   6.058   1.329  0.3178  0.5969 -1.0809
 1327TIP3   OH225471   0.491   2.166  15.316  0.1723  0.4528  0.4614
 1327TIP3    H125472   0.558   2.098  15.307 -0.4583 -0.1400  0.1265
 1327TIP3    H225473   0.537   2.241  15.351  1.1892  0.3361 -0.5910
 1328TIP3   OH225474   0.524   6.439  13.779 -0.4716 -0.4593  0.4004
 1328TIP3    H125475   0.548   6.532  13.774  1.7549 -0.9481  0.9416
 1328TIP3    H225476   0.552   6.411  13.866  1.2674 -2.2086 -0.6407
 1329TIP3   OH225477   2.614   4.700   4.242 -0.1158 -0.1385  0.1182
 1329TIP3    H125478   2.625   4.731   4.332  1.6499 -1.6723  0.4916
 1329TIP3    H225479   2.678   4.749   4.192 -1.2671  0.8913 -0.3818
 1330TIP3   OH225480   0.146   4.643   6.004 -0.2990  0.2801 -0.0560
 1330TIP3    H125481   0.219   4.629   6.064 -0.6819  0.3769  0.4370
 1330TIP3    H225482   0.068   4.640   6.059 -0.6542  0.4299 -0.5387
 1331TIP3   OH225483   5.799   4.145   2.229  0.6328  0.3030 -0.1815
 1331TIP3    H125484   5.827   4.225   2.275  2.0272  0.3183 -0.9996
 1331TIP3    H225485   5.772   4.176   2.142  1.2547 -0.1154 -0.5297
 1332TIP3   OH225486   6.718   3.625  16.325 -0.5419 -0.3848 -0.4260
 1332TIP3    H125487   6.687   3.627  16.234 -2.0701 -0.3032  0.0753
 1332TIP3    H225488   6.640   3.605  16.377  0.5968 -1.9657  0.7584
 1333TIP3   OH225489   6.304   4.064   1.363 -0.8760  0.2726 -0.2183
 1333TIP3    H125490   6.361   4.073   1.440 -0.2155  1.5996 -0.8395
 1333TIP3    H225491   6.227   4.017   1.396 -1.0758  1.7276  1.5118
 1334TIP3   OH225492   4.221   2.732  11.834  0.2582  0.5000 -0.1166
 1334TIP3    H125493   4.315   2.723  11.825  0.2887  1.0308 -0.3762
 1334TIP3    H225494   4.209   2.815  11.880 -0.1380  1.9857 -2.6817
 1335TIP3   OH225495   4.742   0.038   0.618  0.2139 -0.1481  0.3685
 1335TIP3    H125496   4.684   0.069   0.687 -0.7461 -2.4879  0.7028
 1335TIP3    H225497   4.687   0.031   0.540  1.1376  1.8334 -0.5360
 1336TIP3   OH225498   2.788   0.456   5.126  0.4287 -0.6854 -0.2218
 1336TIP3    H125499   2.839   0.401   5.066  0.7648 -0.0356 -0.5417
 1336TIP3    H225500   2.838   0.537   5.132 -0.1023 -0.3827  0.1858
 1337TIP3   OH225501   1.179   2.708  12.680 -0.5273  0.0398  0.7994
 1337TIP3    H125502   1.150   2.709  12.772 -0.4875  0.1436  0.8105
 1337TIP3    H225503   1.112   2.656  12.635 -0.0957 -0.7516  1.0396
 1338TIP3   OH225504   4.426   0.363   5.078  0.7590  0.0804 -0.7786
 1338TIP3    H125505   4.357   0.332   5.019  0.5186 -0.8353 -0.0376
 1338TIP3    H225506   4.407   0.319   5.161 -0.1487  2.8935  0.6221
 1339TIP3   OH225507   1.608   6.467  11.700  0.1909  0.1634 -0.4308
 1339TIP3    H125508   1.559   6.520  11.764  2.0928  1.8753 -0.3160
 1339TIP3    H225509   1.540   6.416  11.655 -1.9324  3.4029 -1.2449
 1340TIP3   OH225510   1.108   6.834   1.393 -0.0305  0.1709  0.2688
 1340TIP3    H125511   1.035   6.887   1.360 -0.4301  0.0197  0.8902
 1340TIP3    H225512   1.174   6.898   1.420 -0.2441  0.3366  0.4014
 1341TIP3   OH225513   4.471   3.772  16.962  0.2789  0.2031  0.3648
 1341TIP3    H125514   4.376   3.773  16.973  0.0873 -0.1381 -1.1185
 1341TIP3    H225515   4.502   3.844  17.017 -0.9435  1.0710 -0.0511
 1342TIP3   OH225516   5.052   2.852  15.926  0.2412  0.2082  0.0980
 1342TIP3    H125517   5.003   2.778  15.890  2.8373 -0.9657 -1.2316
 1342TIP3    H225518   5.064   2.830  16.018 -0.9960  0.1591  0.2729
 1343TIP3   OH225519   5.400   5.937   3.049 -0.5962 -0.4875  0.2179
 1343TIP3    H125520   5.467   5.909   3.110  0.8374 -0.3512 -1.2195
 1343TIP3    H225521   5.446   5.947   2.966 -2.1102  0.9789 -0.5105
 1344TIP3   OH225522   4.063   0.396  15.118  0.3430 -0.2334 -0.6584
 1344TIP3    H125523   4.028   0.452  15.049 -0.6155 -0.3473 -0.2788
 1344TIP3    H225524   3.996   0.330  15.132  0.5835 -0.2950  0.2840
 1345TIP3   OH225525   2.888   5.478  12.244 -0.5789 -0.0975 -0.0567
 1345TIP3    H125526   2.959   5.441  12.297 -0.3535 -1.6997 -1.3694
 1345TIP3    H225527   2.904   5.443  12.156 -0.7674  2.6691 -1.2980
 1346TIP3   OH225528   2.756   5.621   0.302  0.2535  0.2731  0.2819
 1346TIP3    H125529   2.803   5.698   0.333  1.0136  0.3492 -0.9918
 1346TIP3    H225530   2.740   5.569   0.382  2.5095  0.2583  0.7897
 1347TIP3   OH225531   0.549   4.338  16.793 -0.0343 -0.1962 -0.0140
 1347TIP3    H125532   0.612   4.321  16.863  0.4132 -0.5715 -0.5014
 1347TIP3    H225533   0.598   4.390  16.729 -0.3480 -0.1230 -0.1962
 1348TIP3   OH225534   0.991   5.946  14.938  0.0758 -0.5794  0.3639
 1348TIP3    H125535   0.950   6.017  14.889  0.5107 -0.2365  0.4875
 1348TIP3    H225536   0.941   5.868  14.914 -0.6904 -0.1620  0.5754
 1349TIP3   OH225537   5.409   2.359  14.329 -0.2253 -0.1700 -0.4375
 1349TIP3    H125538   5.445   2.426  14.387  2.1157 -0.7164 -1.1524
 1349TIP3    H225539   5.455   2.372  14.245 -1.0538 -1.4968 -1.1376
 1350TIP3   OH225540   2.546   1.981  15.756 -0.7299  0.2396 -0.5329
 1350TIP3    H125541   2.514   2.020  15.837  1.1962  1.0248 -0.0809
 1350TIP3    H225542   2.476   1.922  15.727 -2.3381  1.5553  0.5416
 1351TIP3   OH225543   4.690   4.685  13.350 -0.0390 -0.2935 -0.3547
 1351TIP3    H125544   4.779   4.705  13.379 -0.5829  0.3779  0.9559
 1351TIP3    H225545   4.662   4.613  13.406 -0.6736  0.1919 -0.0259
 1352TIP3   OH225546   6.159   5.258  14.224 -0.0728  0.7977 -0.3743
 1352TIP3    H125547   6.181   5.310  14.301 -0.1358  0.6376 -0.2471
 1352TIP3    H225548   6.063   5.255  14.223 -0.1307 -2.3738  1.7377
 1353TIP3   OH225549   4.228   0.316  15.563 -0.1649  0.0257  0.6381
 1353TIP3    H125550   4.250   0.349  15.650  2.3500 -0.4010  0.2464
 1353TIP3    H225551   4.230   0.394  15.507  0.2077  0.0229  0.6440
 1354TIP3   OH225552   6.800   0.881   0.600  0.2306 -0.7878  0.0191
 1354TIP3    H125553   6.822   0.972   0.620 -2.0132 -0.1421 -0.1736
 1354TIP3    H225554   6.819   0.872   0.506 -0.4363 -0.2103 -0.1776
 1355TIP3   OH225555   6.224   2.295   5.551  0.2382  0.1536  0.6889
 1355TIP3    H125556   6.251   2.369   5.496 -0.4006  0.1539  0.3614
 1355TIP3    H225557   6.132   2.314   5.572 -0.1407 -0.8687  0.0487
 1356TIP3   OH225558   3.120   6.337  13.023  0.4760 -0.2477 -0.2471
 1356TIP3    H125559   3.038   6.383  13.039  0.9066  0.1817  0.8176
 1356TIP3    H225560   3.151   6.371  12.939  0.9926  1.7567  0.7112
 1357TIP3   OH225561   1.620   3.698  15.530  0.0819 -0.2012  0.1786
 1357TIP3    H125562   1.545   3.754  15.510 -0.6352 -0.8350  1.0233
 1357TIP3    H225563   1.695   3.742  15.489 -0.7294  0.4971 -0.5813
 1358TIP3   OH225564   2.377   4.087  17.124 -0.1449  0.0161 -0.5791
 1358TIP3    H125565   2.343   4.010  17.169 -0.4399 -0.6024 -1.8280
 1358TIP3    H225566   2.471   4.087  17.144 -0.6503  1.4507  2.4642
 1359TIP3   OH225567   1.484   6.411   4.166  0.4307 -0.0588 -0.3984
 1359TIP3    H125568   1.415   6.368   4.116  0.5269  1.5607 -2.0130
 1359TIP3    H225569   1.470   6.505   4.152  0.8589  0.4685  2.1330
 1360TIP3   OH225570   0.098   4.654  11.388 -0.0010  0.3538 -0.1260
 1360TIP3    H125571   0.053   4.588  11.441  0.8563 -0.0804  0.0786
 1360TIP3    H225572   0.032   4.722  11.374 -0.9281 -0.5797 -0.4107
 1361TIP3   OH225573   1.490   5.211   3.588 -0.4398  0.2275  0.3261
 1361TIP3    H125574   1.487   5.206   3.684 -0.2408  0.2286  0.3345
 1361TIP3    H225575   1.414   5.163   3.558  0.4544 -1.3296  0.4409
 1362TIP3   OH225576   0.470   2.406  14.547  0.0456  0.4656 -0.9167
 1362TIP3    H125577   0.565   2.389  14.548  0.0601  0.4409  1.5241
 1362TIP3    H225578   0.430   2.319  14.553 -0.0497  0.6196  1.0827
 1363TIP3   OH225579   6.386   5.387  15.601  0.1841 -0.5015  0.2927
 1363TIP3    H125580   6.376   5.317  15.665  1.3020 -1.2054 -0.2848
 1363TIP3    H225581   6.356   5.349  15.518 -0.2030  0.0471  0.1745
 1364TIP3   OH225582   3.624   5.970   3.999  0.0444 -0.2225  0.3299
 1364TIP3    H125583   3.572   6.048   3.980 -0.1084  0.6646  3.7121
 1364TIP3    H225584   3.709   6.003   4.026 -0.1051 -1.1241  2.0739
 1365TIP3   OH225585   0.732   2.870  15.251 -0.4964  0.3392 -0.3570
 1365TIP3    H125586   0.825   2.886  15.269 -0.4711 -0.6306  0.3994
 1365TIP3    H225587   0.690   2.954  15.269  0.2461  0.8522 -0.9121
 1366TIP3   OH225588   2.687   3.087   3.967 -0.6551 -0.0887  0.8610
 1366TIP3    H125589   2.623   3.158   3.961 -2.1084 -0.8258  4.6195
 1366TIP3    H225590   2.634   3.007   3.973  0.8471 -1.2508 -0.5392
 1367TIP3   OH225591   0.111   5.201  13.341  0.4260  0.1282  0.1649
 1367TIP3    H125592   0.187   5.257  13.321 -0.2422  0.6195 -1.1448
 1367TIP3    H225593   0.067   5.245  13.414  0.3499  0.8964 -0.3332
 1368TIP3   OH225594   1.766   5.928   0.091 -0.2867  0.1505 -0.3936
 1368TIP3    H125595   1.841   5.871   0.076 -0.9904 -2.0677  3.2234
 1368TIP3    H225596   1.713   5.919   0.011  1.4073 -1.3010 -1.4340
 1369TIP3   OH225597   2.368   3.490  14.027 -0.1790 -0.1765 -0.4503
 1369TIP3    H125598   2.279   3.455  14.023 -0.4069  0.2372  0.5217
 1369TIP3    H225599   2.421   3.429  13.975 -0.8371 -1.0875 -0.0869
 1370TIP3   OH225600   6.090   2.514   3.520 -0.2684 -0.2926  0.5445
 1370TIP3    H125601   6.135   2.466   3.590  1.2861  0.7994  0.3446
 1370TIP3    H225602   6.008   2.465   3.506  0.0414 -1.3437  2.1305
 1371TIP3   OH225603   2.478   2.508  13.006  0.4776  0.2504  0.3602
 1371TIP3    H125604   2.426   2.587  12.992  1.7180  0.9062 -0.7555
 1371TIP3    H225605   2.432   2.440  12.957 -0.8011  0.1360  1.6211
 1372TIP3   OH225606   2.204   4.035  12.035  0.0330 -0.4572  0.6261
 1372TIP3    H125607   2.172   4.069  11.951  1.5706 -0.6482 -0.0695
 1372TIP3    H225608   2.228   4.113  12.085 -2.3646 -0.2432  1.5734
 1373TIP3   OH225609   3.112   1.891  15.033  0.1804 -0.0098  0.1296
 1373TIP3    H125610   3.187   1.896  14.973  0.5981  0.3961  0.6786
 1373TIP3    H225611   3.131   1.816  15.089  0.2054  0.1307  0.3093
 1374TIP3   OH225612   1.055   1.846  13.622 -0.4339 -0.0353 -0.0552
 1374TIP3    H125613   1.086   1.892  13.699  0.2649 -0.1788 -0.2483
 1374TIP3    H225614   1.040   1.756  13.652  1.2066 -0.4496 -0.4066
 1375TIP3   OH225615   1.740   0.975   3.690 -0.1537 -0.4596  0.3536
 1375TIP3    H125616   1.756   0.929   3.773 -0.7697  0.8450  1.2379
 1375TIP3    H225617   1.763   1.066   3.710  0.7348 -0.3055 -1.2497
 1376TIP3   OH225618   1.720   5.060  15.011 -0.3397  0.3828  0.2462
 1376TIP3    H125619   1.717   5.093  14.922 -2.8874  0.4474  0.2876
 1376TIP3    H225620   1.659   4.986  15.011 -0.5044  0.4861  1.9789
 1377TIP3   OH225621   3.501   4.874   5.906 -0.9016 -0.3000 -0.1674
 1377TIP3    H125622   3.441   4.805   5.876 -0.2020 -0.6957 -0.6982
 1377TIP3    H225623   3.562   4.886   5.832  2.3232 -2.8833  1.7967
 1378TIP3   OH225624   1.350   4.107  15.053  0.4467  0.1644 -1.0044
 1378TIP3    H125625   1.356   4.190  15.005 -3.0863  0.0121 -2.0030
 1378TIP3    H225626   1.276   4.118  15.112  1.3511 -1.5550  0.5726
 1379TIP3   OH225627   4.350   3.304   4.995  0.4345  0.0293 -0.1488
 1379TIP3    H125628   4.270   3.303   4.943  1.1540 -0.1898 -1.2817
 1379TIP3    H225629   4.365   3.212   5.017 -0.1412  0.1729  0.9052
 1380TIP3   OH225630   1.363   1.246  13.406  0.6424 -0.5534 -0.2898
 1380TIP3    H125631   1.350   1.313  13.472 -0.0462 -0.9783  0.0165
 1380TIP3    H225632   1.456   1.226  13.411  0.8505  0.3587 -0.3738
 1381TIP3   OH225633   5.547   3.923  12.223  0.4416  0.1955 -0.1881
 1381TIP3    H125634   5.575   3.834  12.245 -0.5582  0.0183  0.4845
 1381TIP3    H225635   5.607   3.980  12.271  1.2603 -0.1130 -0.8482
 1382TIP3   OH225636   2.752   5.399  16.307  0.5499  0.1482 -0.6294
 1382TIP3    H125637   2.670   5.360  16.334  0.7508  0.1712  0.0418
 1382TIP3    H225638   2.727   5.476  16.255  0.1159  1.1077  0.9263
 1383TIP3   OH225639   6.417   5.045  14.764  0.5542  0.0157  0.0327
 1383TIP3    H125640   6.408   5.137  14.790  1.5953  0.3805 -0.8322
 1383TIP3    H225641   6.407   4.996  14.846 -1.1167  0.8107  0.3404
 1384TIP3   OH225642   1.397   2.209   2.996  0.3130 -0.4814  0.2315
 1384TIP3    H125643   1.399   2.297   2.959  2.7206 -0.4296  0.3865
 1384TIP3    H225644   1.379   2.152   2.921  1.2290 -0.0480 -0.3362
 1385TIP3   OH225645   4.286   6.642   3.355  0.0734  0.5320  0.0943
 1385TIP3    H125646   4.367   6.654   3.405  1.0842 -1.3952 -0.9565
 1385TIP3    H225647   4.267   6.549   3.362 -1.8212  0.8557 -0.0979
 1386TIP3   OH225648   0.108   0.960  11.619 -0.3325  0.0851 -0.2694
 1386TIP3    H125649   0.168   0.952  11.544 -2.2739 -0.3263 -1.8763
 1386TIP3    H225650   0.087   0.870  11.642  0.0345  0.2182  0.6187
 1387TIP3   OH225651   1.209   4.426   1.102 -0.5421  0.3057  0.1242
 1387TIP3    H125652   1.185   4.510   1.063 -0.3937  0.6342  0.7323
 1387TIP3    H225653   1.275   4.390   1.043 -1.9384 -0.2710 -1.1837
 1388TIP3   OH225654   0.395   3.464  16.949  0.4286  0.8118 -0.7231
 1388TIP3    H125655   0.375   3.557  16.956  1.8990  1.0280  1.8601
 1388TIP3    H225656   0.350   3.424  17.024  0.7983 -0.3661 -1.1020
 1389TIP3   OH225657   5.923   3.803   4.854  0.5315  0.0182 -0.1997
 1389TIP3    H125658   5.979   3.786   4.930 -0.1195 -0.8200  0.1110
 1389TIP3    H225659   5.854   3.737   4.859  1.0067 -0.6783 -2.0646
 1390TIP3   OH225660   4.813   2.857   2.547  0.5391 -0.4702 -0.2130
 1390TIP3    H125661   4.892   2.911   2.556  0.6942 -0.8960  1.0100
 1390TIP3    H225662   4.792   2.862   2.453  1.6029  0.2225 -0.4301
 1391TIP3   OH225663   5.829   3.889   3.320  0.2662 -0.5149  0.1869
 1391TIP3    H125664   5.755   3.917   3.267  0.2979 -0.5470  0.1262
 1391TIP3    H225665   5.790   3.837   3.390  0.0684  0.7789  1.0711
 1392TIP3   OH225666   5.018   5.420  14.190  0.5656 -0.0218 -0.5834
 1392TIP3    H125667   4.942   5.466  14.227  0.7564 -0.0875 -0.0939
 1392TIP3    H225668   5.092   5.454  14.240  0.5925 -1.6427  0.5760
 1393TIP3   OH225669   5.779   1.848   6.322  0.3106 -0.4377  0.8499
 1393TIP3    H125670   5.733   1.866   6.240 -0.0305  2.8046  1.6112
 1393TIP3    H225671   5.710   1.823   6.384 -0.0394  1.1562  1.1419
 1394TIP3   OH225672   3.319   1.042  16.900 -0.6462  0.9568 -0.5447
 1394TIP3    H125673   3.340   1.129  16.933 -1.3187  0.6574  0.7089
 1394TIP3    H225674   3.271   1.000  16.971  0.9724 -0.9963 -0.5507
 1395TIP3   OH225675   2.598   3.413   0.436  0.6508 -0.1183 -0.0710
 1395TIP3    H125676   2.530   3.350   0.410  2.2975 -2.7629  1.6882
 1395TIP3    H225677   2.680   3.373   0.407  1.8120  0.9081  1.6754
 1396TIP3   OH225678   0.690   1.723   5.901 -0.0506  0.3242  0.1329
 1396TIP3    H125679   0.684   1.797   5.841  0.2877 -1.5119 -2.3783
 1396TIP3    H225680   0.776   1.685   5.883 -0.5670 -1.1706  0.6806
 1397TIP3   OH225681   4.255   6.812   1.037  0.2530 -0.3548  0.2629
 1397TIP3    H125682   4.303   6.894   1.037 -0.2245 -0.0670  1.0567
 1397TIP3    H225683   4.170   6.833   0.999  0.2363 -0.5519  0.1869
 1398TIP3   OH225684   2.828   4.612  11.624 -0.2873 -0.0553  0.0629
 1398TIP3    H125685   2.818   4.517  11.633 -1.8886  0.2380  1.9589
 1398TIP3    H225686   2.908   4.632  11.673  0.0240 -0.3767 -0.2952
 1399TIP3   OH225687   3.538   3.939   4.555 -0.6056  0.5609  0.5712
 1399TIP3    H125688   3.445   3.955   4.571 -0.3229  1.3019  1.5160
 1399TIP3    H225689   3.563   3.876   4.623 -0.5273 -0.0405 -0.0043
 1400TIP3   OH225690   5.664   5.424  15.162 -0.1443 -0.0260  0.2637
 1400TIP3    H125691   5.687   5.356  15.099 -0.0383  0.4873 -0.2615
 1400TIP3    H225692   5.703   5.504  15.127  0.0002  0.2542  1.0332
 1401TIP3   OH225693   3.680   3.028   1.047  0.4415  0.3398  0.3781
 1401TIP3    H125694   3.666   3.122   1.057 -1.2215  0.5817 -2.9797
 1401TIP3    H225695   3.600   2.988   1.081  0.0946  0.3363 -0.4223
 1402TIP3   OH225696   4.774   6.830  14.707  0.7090  0.0668  0.2258
 1402TIP3    H125697   4.839   6.900  14.696  0.8685 -0.4693 -3.1325
 1402TIP3    H225698   4.812   6.754  14.664 -0.9918 -1.0584  0.5967
 1403TIP3   OH225699   1.655   1.671   4.480  0.4892 -0.1317  0.2430
 1403TIP3    H125700   1.647   1.605   4.549 -1.6512  0.6497  0.8128
 1403TIP3    H225701   1.672   1.753   4.527  0.1236  0.2192 -0.2219
 1404TIP3   OH225702   5.070   5.139   0.696  0.3707 -0.0647  0.0446
 1404TIP3    H125703   5.063   5.087   0.777  1.1912 -1.7380 -0.9158
 1404TIP3    H225704   5.164   5.149   0.682  0.2407 -0.2136 -0.9665
 1405TIP3   OH225705   3.087   5.104  12.191 -0.0671 -0.1367 -0.0694
 1405TIP3    H125706   3.075   5.172  12.257 -1.3633 -0.0763 -0.3418
 1405TIP3    H225707   3.008   5.051  12.197  0.4815 -1.0368 -0.5425
 1406TIP3   OH225708   1.545   6.273   6.708 -0.0775 -0.0844 -0.0287
 1406TIP3    H125709   1.584   6.226   6.783  0.7623  1.1295  0.3161
 1406TIP3    H225710   1.492   6.342   6.748  0.5242  0.6909 -0.5408
 1407TIP3   OH225711   3.001   5.705  11.496 -0.5093 -0.0794  0.1107
 1407TIP3    H125712   2.972   5.669  11.580 -0.2769 -1.1521 -0.2490
 1407TIP3    H225713   3.094   5.726  11.509 -0.6990  0.6324  0.3867
 1408TIP3   OH225714   5.153   5.519   5.554  0.2761 -0.4979 -0.5346
 1408TIP3    H125715   5.176   5.455   5.621 -1.7356 -0.2229  0.4689
 1408TIP3    H225716   5.223   5.511   5.489  1.7471 -1.4892  1.0688
 1409TIP3   OH225717   5.883   6.722   4.523 -0.3909 -0.6113 -0.1637
 1409TIP3    H125718   5.967   6.746   4.485 -0.0442 -0.1765  0.8247
 1409TIP3    H225719   5.844   6.662   4.460  1.3154 -2.0214  0.0288
 1410TIP3   OH225720   4.142   5.886  14.107 -0.3885 -0.1493 -0.5608
 1410TIP3    H125721   4.164   5.935  14.028  2.0555  1.5824  1.0351
 1410TIP3    H225722   4.144   5.952  14.177 -0.0483 -2.0234  1.2801
 1411TIP3   OH225723   3.298   2.493   3.938 -0.5038  0.4160  0.4837
 1411TIP3    H125724   3.316   2.454   4.024 -0.4294  0.8720  0.6805
 1411TIP3    H225725   3.356   2.447   3.878  0.9054  1.4321  0.9982
 1412TIP3   OH225726   4.087   0.548   4.834 -0.3693  0.0039 -0.4565
 1412TIP3    H125727   4.003   0.505   4.815 -0.6091 -0.3399  1.2152
 1412TIP3    H225728   4.114   0.511   4.918  0.8862  0.9753 -0.4081
 1413TIP3   OH225729   2.255   5.398   0.189 -0.5425 -0.0135 -0.1580
 1413TIP3    H125730   2.294   5.375   0.273 -0.2731 -1.8402 -0.7357
 1413TIP3    H225731   2.303   5.477   0.161  0.5156 -0.3523  0.6364
 1414TIP3   OH225732   1.327   2.297  11.468  0.8158 -0.5542 -0.4111
 1414TIP3    H125733   1.403   2.239  11.457  0.5985 -0.6399 -1.5712
 1414TIP3    H225734   1.361   2.385  11.449  0.2937 -0.7782 -2.5559
 1415TIP3   OH225735   4.872   3.404  12.054 -0.3624 -0.5024  0.2101
 1415TIP3    H125736   4.856   3.490  12.093  2.6187  0.4961 -0.5416
 1415TIP3    H225737   4.915   3.354  12.123 -0.7943 -0.9298  0.1787
 1416TIP3   OH225738   1.549   1.996  15.493  0.2381  0.6093  0.1320
 1416TIP3    H125739   1.606   2.010  15.569  0.3237 -0.8135  0.3591
 1416TIP3    H225740   1.478   2.059  15.504  0.6226  0.9067  1.0103
 1417TIP3   OH225741   2.096   6.600   1.175  0.2051 -0.4002  0.4629
 1417TIP3    H125742   2.095   6.634   1.086  0.1197  0.7768  0.8886
 1417TIP3    H225743   2.148   6.663   1.224  1.0480 -1.5363  1.0645
 1418TIP3   OH225744   6.579   4.776  16.065  0.1158  0.6230 -0.0947
 1418TIP3    H125745   6.587   4.742  16.154  0.2943 -1.7345 -0.9461
 1418TIP3    H225746   6.658   4.828  16.052  1.3475 -1.0359  0.3383
 1419TIP3   OH225747   4.540   0.098   4.959  0.1948 -0.0707 -0.3421
 1419TIP3    H125748   4.456   0.061   4.984  0.4549 -1.1281 -0.9593
 1419TIP3    H225749   4.526   0.193   4.960 -0.4883 -0.1614  1.2741
 1420TIP3   OH225750   2.780   1.894   6.329  0.5402  0.4468 -0.1040
 1420TIP3    H125751   2.729   1.866   6.254 -1.4343 -1.2830  1.7551
 1420TIP3    H225752   2.858   1.838   6.327  0.5676  0.5047 -0.9211
 1421TIP3   OH225753   2.149   4.822   1.532 -0.0271  0.7509  0.0269
 1421TIP3    H125754   2.099   4.829   1.451  0.0049 -0.9278 -0.1761
 1421TIP3    H225755   2.235   4.859   1.511 -0.6853  2.3478 -0.0257
 1422TIP3   OH225756   1.887   3.432   0.708 -0.2934  0.4774 -0.2583
 1422TIP3    H125757   1.844   3.353   0.740  0.6676  0.1722  0.3099
 1422TIP3    H225758   1.845   3.503   0.755 -3.3517  0.6961 -2.9674
 1423TIP3   OH225759   4.182   3.564   0.181 -0.0198  0.0459 -0.6690
 1423TIP3    H125760   4.122   3.634   0.153  0.5645  0.3333 -1.2104
 1423TIP3    H225761   4.125   3.489   0.196 -0.7058  0.7285  0.2573
 1424TIP3   OH225762   5.778   2.459  12.618 -0.1433  0.0895  0.0947
 1424TIP3    H125763   5.864   2.483  12.652  0.1100  0.8868 -1.0434
 1424TIP3    H225764   5.745   2.539  12.577 -1.4651 -0.1839  0.5615
 1425TIP3   OH225765   0.186   1.963  12.130 -0.1807 -0.0514 -0.2072
 1425TIP3    H125766   0.224   1.876  12.138  2.6803  1.2658  3.0440
 1425TIP3    H225767   0.217   1.996  12.046  1.2144 -1.0946 -0.1331
 1426TIP3   OH225768   2.347   5.220   1.068 -0.5481 -0.8673  0.0162
 1426TIP3    H125769   2.397   5.143   1.097  0.3736 -0.0311  0.7406
 1426TIP3    H225770   2.314   5.259   1.150  0.9466  0.7847 -0.1128
 1427TIP3   OH225771   3.628   4.321  14.784  0.2929  0.1179 -0.0911
 1427TIP3    H125772   3.703   4.367  14.821  0.4001 -0.6817  0.7184
 1427TIP3    H225773   3.618   4.358  14.696  0.4665  1.5524  0.4747
 1428TIP3   OH225774   1.816   1.363   1.730  0.1658 -0.6178 -0.0167
 1428TIP3    H125775   1.781   1.276   1.710 -1.6222  0.4675 -1.9680
 1428TIP3    H225776   1.793   1.417   1.654  1.8583  1.4152  0.8056
 1429TIP3   OH225777   6.392   1.906  13.766 -0.1778 -0.2273 -0.6589
 1429TIP3    H125778   6.351   1.845  13.827  0.7566 -0.6677 -0.4617
 1429TIP3    H225779   6.404   1.986  13.817  2.3176 -1.1673  0.3788
 1430TIP3   OH225780   0.152   6.134  12.327  0.2772 -0.0506 -0.2474
 1430TIP3    H125781   0.122   6.204  12.270 -0.2796 -1.0599 -1.2461
 1430TIP3    H225782   0.075   6.109  12.378 -0.7832 -2.7128 -2.8877
 1431TIP3   OH225783   5.256   5.358   6.131 -0.4560  0.7699  0.4068
 1431TIP3    H125784   5.240   5.289   6.067  1.0989 -0.5409  1.3487
 1431TIP3    H225785   5.190   5.344   6.199  0.3362 -0.3370  0.9797
 1432TIP3   OH225786   4.083   0.464   5.477 -0.2423  0.3218 -0.2169
 1432TIP3    H125787   4.091   0.385   5.423 -1.1634  0.1444 -0.1034
 1432TIP3    H225788   4.034   0.436   5.554  2.0115  0.3056  1.2872
 1433TIP3   OH225789   3.224   3.732  13.785  0.3140 -0.0619 -0.2148
 1433TIP3    H125790   3.148   3.694  13.830 -1.1567  1.8826 -0.9252
 1433TIP3    H225791   3.298   3.711  13.843 -0.6766 -2.2016  0.3905
 1434TIP3   OH225792   0.301   1.003  13.740 -0.1401  0.1013  0.3313
 1434TIP3    H125793   0.343   0.918  13.724 -0.8788  0.0254 -1.4412
 1434TIP3    H225794   0.241   1.014  13.666 -1.2392  1.4482  1.3753
 1435TIP3   OH225795   0.657   4.186   2.540  0.0684  0.2941  0.2895
 1435TIP3    H125796   0.740   4.139   2.550 -0.2627 -0.4350 -0.2777
 1435TIP3    H225797   0.593   4.134   2.589 -0.8995 -1.5227 -2.6177
 1436TIP3   OH225798   2.617   3.329   0.120  0.3608 -0.4688 -0.0659
 1436TIP3    H125799   2.624   3.423   0.133 -3.6416  0.1436 -1.0910
 1436TIP3    H225800   2.666   3.291   0.193  0.4377  2.3814  1.5037
 1437TIP3   OH225801   6.367   3.376   4.953 -0.3761 -0.4448  0.3962
 1437TIP3    H125802   6.304   3.331   4.897  0.7238 -0.9488 -0.4718
 1437TIP3    H225803   6.351   3.469   4.938 -0.2190 -0.5728 -0.6219
 1438TIP3   OH225804   2.104   6.139  14.790 -0.4924 -0.1634  0.0058
 1438TIP3    H125805   2.113   6.169  14.881 -2.1719  1.0436 -0.1790
 1438TIP3    H225806   2.018   6.096  14.787  0.2014 -1.5625 -0.6784
 1439TIP3   OH225807   6.759   5.432   4.543  0.1755 -0.2886  0.0581
 1439TIP3    H125808   6.829   5.496   4.554 -1.6282  1.3851  3.5347
 1439TIP3    H225809   6.805   5.348   4.533  2.6062  1.1206 -1.7110
 1440TIP3   OH225810   4.482   6.512   3.030 -0.1655  0.0239  0.1535
 1440TIP3    H125811   4.444   6.455   3.097 -1.2866  0.2239 -0.2912
 1440TIP3    H225812   4.560   6.465   3.001 -0.2070 -0.5375  0.8952
 1441TIP3   OH225813   1.497   0.023  16.973 -0.0798  0.1393  0.2352
 1441TIP3    H125814   1.415  -0.014  16.940 -0.3874  2.2429 -1.5703
 1441TIP3    H225815   1.471   0.083  17.043 -0.5376  3.0145 -2.2042
 1442TIP3   OH225816   2.208   3.500   4.680 -0.2340  0.2891 -0.0655
 1442TIP3    H125817   2.229   3.585   4.720 -1.2220  0.0196  1.1100
 1442TIP3    H225818   2.203   3.518   4.586 -0.2266  1.4985  0.1443
 1443TIP3   OH225819   0.382   5.163   0.202 -0.5397  0.0264  0.0072
 1443TIP3    H125820   0.333   5.202   0.274 -3.0804  0.3354 -1.7617
 1443TIP3    H225821   0.444   5.104   0.244 -1.0454  1.1608  2.4725
 1444TIP3   OH225822   1.312   0.614   1.867  0.1907 -0.4474 -0.0293
 1444TIP3    H125823   1.317   0.710   1.874  0.6855 -0.5729  3.2144
 1444TIP3    H225824   1.224   0.593   1.900  0.3400 -1.1252 -0.0629
 1445TIP3   OH225825   6.307   4.719  13.207  0.2926  0.2126 -0.0490
 1445TIP3    H125826   6.335   4.629  13.224  0.3152 -0.1027 -1.5648
 1445TIP3    H225827   6.330   4.767  13.286  2.5479 -0.6135 -0.1318
 1446TIP3   OH225828   6.012   2.199  13.074  0.3606 -0.1155  0.2004
 1446TIP3    H125829   5.945   2.268  13.081 -0.1916 -0.3490 -1.9159
 1446TIP3    H225830   6.014   2.158  13.160 -1.1640  0.8709  0.7464
 1447TIP3   OH225831   2.888   2.673   5.782 -0.0055 -0.5746  0.2970
 1447TIP3    H125832   2.877   2.578   5.790 -1.6686 -0.3577  1.1797
 1447TIP3    H225833   2.909   2.702   5.871  0.8175 -0.1356 -0.0310
 1448TIP3   OH225834   6.329   4.676   2.740 -0.5287  0.0045 -0.3572
 1448TIP3    H125835   6.373   4.759   2.759  2.2235 -1.1230 -1.2587
 1448TIP3    H225836   6.335   4.667   2.645 -0.6554 -1.2652 -0.2599
 1449TIP3   OH225837   4.367   6.053   3.569  0.0755 -0.4621 -0.5751
 1449TIP3    H125838   4.340   6.047   3.478 -0.3698 -3.3006 -0.3445
 1449TIP3    H225839   4.290   6.024   3.619 -0.2196  2.4596  0.8715
 1450TIP3   OH225840   2.900   0.892   5.616  1.0381  0.5032 -0.4788
 1450TIP3    H125841   2.871   0.944   5.541  0.4696  0.9407  0.0353
 1450TIP3    H225842   2.987   0.861   5.591 -0.6940 -2.8488 -3.0989
 1451TIP3   OH225843   4.612   6.480  15.035  0.1797 -0.9647  0.3605
 1451TIP3    H125844   4.638   6.393  15.006 -2.4433 -1.9848  0.8429
 1451TIP3    H225845   4.618   6.534  14.957 -0.1509 -2.0781 -0.4663
 1452TIP3   OH225846   4.164   2.995   0.936 -0.0409  0.5142 -0.4467
 1452TIP3    H125847   4.240   2.967   0.987  1.2319  0.3205 -2.3518
 1452TIP3    H225848   4.094   2.935   0.962  0.6566  0.1884  0.7528
 1453TIP3   OH225849   2.470   4.970   5.222 -0.7914 -0.2420  0.6606
 1453TIP3    H125850   2.455   4.896   5.164  0.0353  0.0448  0.0592
 1453TIP3    H225851   2.457   4.935   5.310  0.5665 -1.3681  0.4524
 1454TIP3   OH225852   3.016   1.031   6.331 -0.5151 -0.1708 -0.2960
 1454TIP3    H125853   3.101   1.007   6.294 -0.5567  0.0168 -0.5211
 1454TIP3    H225854   3.023   1.126   6.345 -0.4522 -0.2609  0.3080
 1455TIP3   OH225855   0.290   2.761   5.984  0.0143  0.4551  0.0255
 1455TIP3    H125856   0.237   2.782   6.062  2.7042  1.7356  1.6665
 1455TIP3    H225857   0.226   2.745   5.915 -2.5036  0.3764  2.2189
 1456TIP3   OH225858   6.375   2.417  14.124 -0.1338  0.3350  0.4682
 1456TIP3    H125859   6.416   2.502  14.142 -0.6562  0.5093  0.8555
 1456TIP3    H225860   6.420   2.356  14.182 -0.4599  0.5363  0.9394
 1457TIP3   OH225861   1.750   6.780  10.598  0.2512  0.1073 -0.3827
 1457TIP3    H125862   1.722   6.843  10.663  1.2612 -0.6116  0.8010
 1457TIP3    H225863   1.671   6.760  10.547 -0.8842 -0.2948  1.4617
 1458TIP3   OH225864   6.427   3.498   6.529 -0.6529  0.2543 -0.2603
 1458TIP3    H125865   6.379   3.530   6.452 -0.1582 -2.2379 -1.7086
 1458TIP3    H225866   6.517   3.489   6.499 -0.5260 -1.1436  0.4670
 1459TIP3   OH225867   2.574   0.625  16.076  0.1623  0.4372 -0.2134
 1459TIP3    H125868   2.666   0.627  16.106 -0.3604  0.2962  1.5353
 1459TIP3    H225869   2.552   0.717  16.063  1.0133  0.3948 -2.2854
 1460TIP3   OH225870   2.861   4.558  12.733 -0.2763  0.1317  0.1614
 1460TIP3    H125871   2.837   4.589  12.820  0.7176 -0.0486  0.5127
 1460TIP3    H225872   2.951   4.526  12.743  0.4968  1.6923 -1.3117
 1461TIP3   OH225873   1.020   5.485  16.224  0.2535  0.0033 -0.4373
 1461TIP3    H125874   0.957   5.553  16.247  1.6523  1.3587 -0.3819
 1461TIP3    H225875   0.993   5.408  16.274 -0.3280  1.0717  0.9414
 1462TIP3   OH225876   0.475   0.255   1.989  0.5208 -0.3778 -0.4118
 1462TIP3    H125877   0.547   0.201   2.020 -0.3118 -0.8037  0.8257
 1462TIP3    H225878   0.425   0.197   1.930 -0.5830 -1.1381  1.2006
 1463TIP3   OH225879   6.097   6.020  12.158  0.4742 -0.4350  0.3041
 1463TIP3    H125880   6.128   5.963  12.088 -0.5187  0.1601 -0.6446
 1463TIP3    H225881   6.056   5.962  12.221  1.7664 -1.0261  0.6468
 1464TIP3   OH225882   2.505   1.667   0.460 -0.6051  0.3095  0.4565
 1464TIP3    H125883   2.579   1.663   0.400  0.0610 -0.4220  1.3180
 1464TIP3    H225884   2.520   1.746   0.512 -0.4840  0.2052  0.5771
 1465TIP3   OH225885   0.866   0.970   4.097 -0.1233 -0.0456 -0.6646
 1465TIP3    H125886   0.928   1.030   4.054 -0.1793  2.3074  2.2000
 1465TIP3    H225887   0.781   0.995   4.062 -0.0391  0.9396 -0.2074
 1466TIP3   OH225888   5.337   1.188   3.108 -0.1012 -0.2032 -0.4213
 1466TIP3    H125889   5.288   1.106   3.105  1.4904 -1.1956 -3.4356
 1466TIP3    H225890   5.274   1.255   3.078  0.1308 -1.4563 -4.3300
 1467TIP3   OH225891   0.169   6.371  13.021  0.1554 -0.7388  0.1180
 1467TIP3    H125892   0.161   6.461  13.052 -0.7686 -0.9262  0.4586
 1467TIP3    H225893   0.182   6.379  12.926  1.1145 -0.2215  0.2853
 1468TIP3   OH225894   1.919   6.625   1.779 -0.1884  0.0090  0.4916
 1468TIP3    H125895   1.833   6.614   1.819 -0.6259 -0.7091 -0.5803
 1468TIP3    H225896   1.975   6.562   1.823 -0.0225  0.9054  1.6279
 1469TIP3   OH225897   6.190   3.603  12.727 -0.0950  0.4038 -0.0735
 1469TIP3    H125898   6.146   3.621  12.811  0.2786  1.1281 -0.0326
 1469TIP3    H225899   6.279   3.577  12.752 -0.9271 -2.9036 -0.0239
 1470TIP3   OH225900   4.473   1.197  15.908  0.7834  0.5939 -0.6341
 1470TIP3    H125901   4.520   1.267  15.953 -0.8751  0.6898  1.0927
 1470TIP3    H225902   4.466   1.126  15.973 -2.3742  1.0413 -0.3023
 1471TIP3   OH225903   4.628   0.842   3.400  0.2906 -0.4376 -0.1860
 1471TIP3    H125904   4.563   0.786   3.442  1.1638 -2.0002 -0.8285
 1471TIP3    H225905   4.616   0.827   3.306 -1.1030  2.3997 -0.6066
 1472TIP3   OH225906   3.448   0.193   4.085 -0.1419  0.6665 -0.4943
 1472TIP3    H125907   3.531   0.216   4.043 -0.8785 -0.0338 -2.4320
 1472TIP3    H225908   3.381   0.229   4.027 -1.2058 -0.0968  0.2290
 1473TIP3   OH225909   0.197   1.112   0.495 -0.2073 -0.3644  0.3656
 1473TIP3    H125910   0.181   1.095   0.588  0.3688 -1.3228  0.3177
 1473TIP3    H225911   0.292   1.102   0.486 -0.1597  0.5450 -0.1738
 1474TIP3   OH225912   6.310   0.555  16.848  0.3445  0.6507  0.2525
 1474TIP3    H125913   6.257   0.632  16.867 -0.4411  0.2791 -0.3687
 1474TIP3    H225914   6.390   0.590  16.810  0.5119  1.2163  1.1019
 1475TIP3   OH225915   0.231   3.783  14.711 -0.4629  1.3887  0.7281
 1475TIP3    H125916   0.196   3.714  14.768 -2.9095 -0.1379 -2.2888
 1475TIP3    H225917   0.181   3.861  14.735 -1.5052  0.7635  0.6525
 1476TIP3   OH225918   2.090   5.503  15.080 -0.0025 -0.2412 -0.2686
 1476TIP3    H125919   2.001   5.498  15.114 -0.0621 -0.6843 -0.4852
 1476TIP3    H225920   2.139   5.439  15.132  0.5142  0.9716  0.8058
 1477TIP3   OH225921   3.708   2.333   5.566  0.0778 -0.8692 -0.4650
 1477TIP3    H125922   3.732   2.391   5.638  0.0065 -0.9550 -0.3720
 1477TIP3    H225923   3.790   2.292   5.539  0.6760  1.3212 -2.3610
 1478TIP3   OH225924   6.204   2.858   1.584  0.4118  0.2224 -0.1801
 1478TIP3    H125925   6.273   2.830   1.644  0.1108  1.6277  0.8976
 1478TIP3    H225926   6.131   2.799   1.601 -0.5330  1.9828  2.6851
 1479TIP3   OH225927   6.446   1.698   0.975 -0.1095  0.2315 -0.2078
 1479TIP3    H125928   6.531   1.709   0.933 -0.9124  0.2249 -1.9426
 1479TIP3    H225929   6.384   1.688   0.902 -1.5373 -0.2331  1.0026
 1480TIP3   OH225930   5.479   1.222   1.907 -0.0640  0.5143 -0.1904
 1480TIP3    H125931   5.394   1.264   1.900 -0.5624 -0.5079 -0.5647
 1480TIP3    H225932   5.507   1.237   1.997 -0.9227  0.3478  0.1119
 1481TIP3   OH225933   0.741   3.476   1.938 -0.2932  0.1127 -0.4063
 1481TIP3    H125934   0.813   3.420   1.907 -2.4275 -1.5533 -2.7343
 1481TIP3    H225935   0.717   3.438   2.023  1.1867  0.3736  0.1632
 1482TIP3   OH225936   2.051   2.773   1.104  0.4322  0.0821 -0.7565
 1482TIP3    H125937   2.016   2.838   1.164  1.3348 -1.1558  1.2497
 1482TIP3    H225938   1.983   2.705   1.098  0.9996 -0.6085  0.2832
 1483TIP3   OH225939   2.425   4.320   3.746  0.4986  0.0459 -0.4920
 1483TIP3    H125940   2.352   4.382   3.738  0.3188 -0.2791 -1.5168
 1483TIP3    H225941   2.503   4.375   3.752  0.1391  0.4208  1.3719
 1484TIP3   OH225942   1.499   5.758  12.573 -0.0730  0.1163  0.0549
 1484TIP3    H125943   1.458   5.832  12.528  0.4218  0.8537  0.7990
 1484TIP3    H225944   1.439   5.685  12.558 -1.6383  1.1415  1.0307
 1485TIP3   OH225945   1.440   3.549   0.433 -0.4019 -0.0769  0.2794
 1485TIP3    H125946   1.423   3.556   0.339 -0.0368 -0.7438  0.1531
 1485TIP3    H225947   1.379   3.610   0.474  0.1610  1.0321 -0.4617
 1486TIP3   OH225948   1.159   1.069  13.465 -0.3780  0.0960  0.0677
 1486TIP3    H125949   1.230   1.134  13.460 -1.2577  1.2321  1.4333
 1486TIP3    H225950   1.174   1.025  13.549 -0.3047 -0.8752 -0.4455
 1487TIP3   OH225951   1.671   2.300  15.134 -0.4043 -0.5519 -0.4216
 1487TIP3    H125952   1.617   2.225  15.161 -0.3024  0.2615  2.4441
 1487TIP3    H225953   1.654   2.310  15.041 -1.6786 -3.1180 -0.5549
 1488TIP3   OH225954   5.531   2.213  16.029 -0.6409 -0.4318  0.3765
 1488TIP3    H125955   5.543   2.185  15.938  0.8956  0.8150  0.1340
 1488TIP3    H225956   5.571   2.300  16.031  1.0974 -1.2034  2.6777
 1489TIP3   OH225957   6.663   2.741  12.724  0.7413 -0.3462 -0.7473
 1489TIP3    H125958   6.582   2.723  12.772 -0.8175 -1.6456 -3.5981
 1489TIP3    H225959   6.654   2.831  12.693  1.1575  0.0505  0.2482
 1490TIP3   OH225960   0.764   2.380   4.851 -0.6457  0.6614 -0.2291
 1490TIP3    H125961   0.798   2.294   4.829  0.7220  0.5771  1.8651
 1490TIP3    H225962   0.708   2.365   4.927  0.8223  1.7163  1.1484
 1491TIP3   OH225963   1.072   5.335  11.765 -0.3805  0.2963 -0.4590
 1491TIP3    H125964   1.152   5.306  11.721 -0.1816 -2.1259  1.3118
 1491TIP3    H225965   1.102   5.398  11.831  0.1375 -0.7746  0.3539
 1492TIP3   OH225966   5.889   1.943   0.336  0.0160  0.2590  0.3218
 1492TIP3    H125967   5.907   2.022   0.286  3.2228 -0.1285  0.6433
 1492TIP3    H225968   5.847   1.884   0.274 -1.6689  1.8796 -0.1391
 1493TIP3   OH225969   1.402   2.526   0.638 -0.1979  0.0491  0.0393
 1493TIP3    H125970   1.471   2.538   0.573  0.2963 -0.3330  0.4832
 1493TIP3    H225971   1.321   2.538   0.589  0.1896  2.7036 -0.0616
 1494TIP3   OH225972   0.842   6.370  15.311  0.5064 -0.1835 -0.2491
 1494TIP3    H125973   0.853   6.318  15.231 -0.3383 -0.8711  0.0645
 1494TIP3    H225974   0.905   6.441  15.302 -0.4831  0.5275 -2.1865
 1495TIP3   OH225975   3.641   5.617   0.640 -0.9075 -0.3856 -0.0065
 1495TIP3    H125976   3.627   5.557   0.714 -1.0607  0.4305  0.6400
 1495TIP3    H225977   3.709   5.575   0.588 -0.5256 -0.7938  0.8042
 1496TIP3   OH225978   6.709   3.136  15.885 -0.1946  0.1221  0.0753
 1496TIP3    H125979   6.664   3.172  15.962 -0.7012 -0.3312  0.0014
 1496TIP3    H225980   6.648   3.070  15.851  0.2329 -0.0131 -0.4385
 1497TIP3   OH225981   1.778   0.838   1.462  0.8326 -0.0595 -0.0959
 1497TIP3    H125982   1.720   0.765   1.442  1.5409 -0.3026 -1.3739
 1497TIP3    H225983   1.755   0.863   1.552 -1.8116  0.4105 -0.8348
 1498TIP3   OH225984   0.093   2.740   0.737  0.1060  0.7309 -0.8338
 1498TIP3    H125985   0.014   2.774   0.778  0.0335 -0.3819 -0.0208
 1498TIP3    H225986   0.063   2.706   0.653 -0.6275 -1.2091  0.1599
 1499TIP3   OH225987   0.724   2.244  13.979  0.2403 -0.8068  0.1271
 1499TIP3    H125988   0.657   2.197  13.930  0.5971 -0.6197 -0.5527
 1499TIP3    H225989   0.784   2.278  13.912  2.0535 -2.5052  0.7922
 1500TIP3   OH225990   5.736   3.522  16.855  0.2862  0.4179 -0.2330
 1500TIP3    H125991   5.665   3.586  16.855  1.9457  2.3901 -1.8250
 1500TIP3    H225992   5.754   3.506  16.763  1.2035 -0.8878  0.1452
 1501TIP3   OH225993   0.173   3.691   4.056 -0.3908 -0.6781  0.7298
 1501TIP3    H125994   0.268   3.702   4.057 -0.0583 -2.8136 -0.5152
 1501TIP3    H225995   0.149   3.694   3.964 -1.5373 -0.2381  1.0301
 1502TIP3   OH225996   4.011   6.010   1.269  0.4594  0.2868  0.5545
 1502TIP3    H125997   4.106   6.024   1.276  0.0672  3.2892  0.9178
 1502TIP3    H225998   3.991   6.030   1.178  0.1322 -0.0795  0.5469
 1503TIP3   OH225999   2.608   0.412  11.346  0.2460  0.4643 -0.2177
 1503TIP3    H126000   2.531   0.383  11.298 -1.8370  2.8102  1.4599
 1503TIP3    H226001   2.626   0.500  11.313  0.0954  1.2556  1.6799
 1504TIP3   OH226002   2.528   6.731   6.172 -0.3191  0.0642 -0.0202
 1504TIP3    H126003   2.532   6.811   6.120  2.1755  0.3184  0.4353
 1504TIP3    H226004   2.448   6.687   6.142 -0.0780  1.1723 -2.5606
 1505TIP3   OH226005   6.007   0.829   2.650  0.0782 -0.4343  0.0440
 1505TIP3    H126006   5.964   0.812   2.734 -1.0712  0.2244 -0.3973
 1505TIP3    H226007   6.072   0.759   2.643  0.7168 -0.0949  1.8106
 1506TIP3   OH226008   4.683   1.644   3.687  0.7481  0.0666 -0.6227
 1506TIP3    H126009   4.774   1.669   3.700  0.5028  0.3979  0.6605
 1506TIP3    H226010   4.637   1.727   3.669  0.4225  0.1697  0.5896
 1507TIP3   OH226011   6.357   2.344   2.500 -0.6784  0.4912  0.1722
 1507TIP3    H126012   6.433   2.286   2.509 -0.5772  0.5962  0.0095
 1507TIP3    H226013   6.312   2.337   2.584  0.3086  1.5439  0.8257
 1508TIP3   OH226014   1.948   6.243   1.746 -0.0642 -0.6145  0.2795
 1508TIP3    H126015   1.965   6.299   1.822 -1.0340  0.5003 -0.2933
 1508TIP3    H226016   1.914   6.162   1.783  1.7361 -1.0348  1.1531
 1509TIP3   OH226017   1.737   0.344  15.821  0.2992  0.1268 -0.4426
 1509TIP3    H126018   1.823   0.365  15.785  0.6711 -1.0387 -0.2746
 1509TIP3    H226019   1.739   0.249  15.835 -0.8900  0.1327 -0.1119
 1510TIP3   OH226020   2.696   5.386  10.827  0.9791 -0.1505 -0.2045
 1510TIP3    H126021   2.734   5.298  10.820  0.6643 -0.2349 -1.1245
 1510TIP3    H226022   2.627   5.387  10.760 -0.0781  0.2804  0.8493
 1511TIP3   OH226023   5.165   0.210   4.043  0.0195  0.6773  0.0020
 1511TIP3    H126024   5.252   0.178   4.065  1.2966  3.5345 -0.3417
 1511TIP3    H226025   5.127   0.143   3.987  1.3640 -1.3368  1.3959
 1512TIP3   OH226026   0.986   3.625  12.163  0.1767  0.3958 -0.1124
 1512TIP3    H126027   1.044   3.565  12.210  0.6398  0.8493 -0.1035
 1512TIP3    H226028   0.898   3.597  12.188  0.4169  0.6387  1.0248
 1513TIP3   OH226029   1.684   3.575   3.785 -0.2113  0.1721 -0.3749
 1513TIP3    H126030   1.725   3.661   3.781 -1.7125  1.1222  2.4101
 1513TIP3    H226031   1.601   3.586   3.737 -1.4518  1.0213  1.8395
 1514TIP3   OH226032   6.427   0.467   2.135  0.4234  0.2711  0.1359
 1514TIP3    H126033   6.511   0.439   2.101  0.2197 -0.6365  0.3550
 1514TIP3    H226034   6.426   0.437   2.225  0.3367  1.3195  0.5070
 1515TIP3   OH226035   4.735   6.085  14.049 -0.1573 -0.1645  0.2493
 1515TIP3    H126036   4.726   6.011  13.989 -0.8798  0.1251 -0.0010
 1515TIP3    H226037   4.646   6.106  14.075  0.1412 -0.2931  1.4411
 1516TIP3   OH226038   3.919   2.506   4.495 -0.3454 -0.0524 -0.5317
 1516TIP3    H126039   4.001   2.460   4.512 -1.1843 -1.4390 -0.1044
 1516TIP3    H226040   3.905   2.496   4.401  0.3289  0.8478 -0.7486
 1517TIP3   OH226041   1.686   5.093   4.891 -0.0067  0.5478  0.0381
 1517TIP3    H126042   1.695   5.129   4.979 -1.1347  0.6928  0.1077
 1517TIP3    H226043   1.591   5.089   4.876  0.1689  0.7231 -1.2435
 1518TIP3   OH226044   4.555   4.964  13.199 -0.0194  0.3309  0.0776
 1518TIP3    H126045   4.473   5.012  13.190  1.4989  3.2083  0.3773
 1518TIP3    H226046   4.615   5.026  13.240  2.0175 -2.0328  0.9545
 1519TIP3   OH226047   1.347   1.951   4.502  0.0362  0.2390 -0.0438
 1519TIP3    H126048   1.322   2.037   4.537 -1.1326  0.1570 -0.6259
 1519TIP3    H226049   1.294   1.941   4.423 -0.3490 -1.3120  0.3757
 1520TIP3   OH226050   0.971   4.487   2.044 -0.3983 -0.1455  0.4338
 1520TIP3    H126051   0.960   4.464   2.136  0.8795  0.3727  0.7467
 1520TIP3    H226052   0.902   4.552   2.028 -0.5179 -0.0988  1.0807
 1521TIP3   OH226053   3.986   3.867   5.303  0.2251  0.3345  0.3546
 1521TIP3    H126054   3.906   3.857   5.354 -0.3815 -0.9642 -0.7895
 1521TIP3    H226055   4.034   3.938   5.347 -1.3761  0.9017  1.2707
 1522TIP3   OH226056   1.445   1.283   1.182  0.3776 -0.1454 -0.6021
 1522TIP3    H126057   1.538   1.261   1.178  0.1661 -1.7536  1.5510
 1522TIP3    H226058   1.400   1.205   1.148 -0.2231 -0.2671  0.4285
 1523TIP3   OH226059   2.437   2.079  12.426  0.5070  0.1990  0.2020
 1523TIP3    H126060   2.514   2.022  12.422 -1.1498 -2.0628 -1.6830
 1523TIP3    H226061   2.473   2.165  12.449  3.4285 -0.9971  0.5989
 1524TIP3   OH226062   6.826   1.578   0.570  0.2441 -0.4157 -0.1728
 1524TIP3    H126063   6.810   1.592   0.477  0.7356 -2.2933 -0.5849
 1524TIP3    H226064   6.816   1.664   0.609 -2.2872  0.0439 -1.6033
 1525TIP3   OH226065   0.529   3.896  13.735  0.0632  0.0009 -0.2362
 1525TIP3    H126066   0.556   3.862  13.821 -0.5802 -2.4575 -0.9253
 1525TIP3    H226067   0.611   3.923  13.693  0.4701  0.4985  0.8355
 1526TIP3   OH226068   1.692   0.084  10.888 -0.1935 -1.0751  0.5617
 1526TIP3    H126069   1.626   0.123  10.830  1.5406 -0.9089 -1.4451
 1526TIP3    H226070   1.671  -0.009  10.890 -0.3443 -1.0660 -0.2898
 1527TIP3   OH226071   0.449   6.688   5.215 -0.2018  0.1071  0.3342
 1527TIP3    H126072   0.475   6.620   5.277 -1.2489 -1.4633 -0.8750
 1527TIP3    H226073   0.360   6.712   5.241 -0.0533  0.5940  0.4005
 1528TIP3   OH226074   0.962   4.724   6.784 -0.2055 -0.3693  0.2605
 1528TIP3    H126075   0.952   4.816   6.808 -0.3371 -0.2868 -0.1044
 1528TIP3    H226076   0.884   4.681   6.818  1.9011 -1.2784  4.7095
 1529TIP3   OH226077   5.962   4.196  16.204 -0.1407  0.1488  0.4076
 1529TIP3    H126078   6.019   4.272  16.218 -1.3162  0.8455  1.6318
 1529TIP3    H226079   5.876   4.223  16.237 -0.3719 -2.0195  1.8544
 1530TIP3   OH226080   5.213   2.011   3.137 -0.7142  0.9408  0.3126
 1530TIP3    H126081   5.149   2.079   3.117 -0.0981  1.4163 -0.0966
 1530TIP3    H226082   5.296   2.058   3.142 -0.3260  0.2607  0.3437
 1531TIP3   OH226083   4.828   3.167  15.128  0.4123 -0.5283  0.1149
 1531TIP3    H126084   4.787   3.114  15.059 -1.5449  1.0401 -0.0353
 1531TIP3    H226085   4.922   3.154  15.117  0.2113  0.2029 -3.3075
 1532TIP3   OH226086   6.014   0.196   1.982 -0.1762 -0.2773 -0.0887
 1532TIP3    H126087   6.055   0.182   2.067  1.3415  0.9153 -0.5641
 1532TIP3    H226088   6.081   0.170   1.919 -0.4420  0.8919 -0.8939
 1533TIP3   OH226089   5.576   1.602  15.858  0.1763  0.3177 -0.0045
 1533TIP3    H126090   5.615   1.681  15.896  1.9912 -0.1755 -0.7361
 1533TIP3    H226091   5.542   1.631  15.774 -1.6789  0.8837  0.8898
 1534TIP3   OH226092   6.804   4.116  12.925 -0.1834  0.2889  0.4854
 1534TIP3    H126093   6.833   4.112  12.834 -0.9536 -0.2598  0.2548
 1534TIP3    H226094   6.824   4.205  12.952  0.3454  0.3604 -0.1254
 1535TIP3   OH226095   4.636   3.282   1.291 -0.1275 -0.0262 -0.1474
 1535TIP3    H126096   4.693   3.212   1.323 -0.6667 -0.6921 -0.6277
 1535TIP3    H226097   4.572   3.295   1.361  0.0735  0.1147  0.0142
 1536TIP3   OH226098   5.345   3.825  15.882 -0.1115 -0.0872  0.3318
 1536TIP3    H126099   5.406   3.779  15.825  0.2238 -0.5984  1.0867
 1536TIP3    H226100   5.397   3.898  15.917 -0.9995  1.7207 -1.8661
 1537TIP3   OH226101   0.386   5.095   1.894 -0.2177  0.4348 -0.2791
 1537TIP3    H126102   0.311   5.123   1.947 -1.1668  1.6209 -2.1276
 1537TIP3    H226103   0.449   5.166   1.902 -0.3360  0.5864 -0.6375
 1538TIP3   OH226104   1.065   4.598  14.164 -0.4950 -0.4332  0.2466
 1538TIP3    H126105   1.035   4.564  14.080 -0.4087 -0.3057  0.1648
 1538TIP3    H226106   1.160   4.590  14.161 -0.4352  0.3051  0.0181
 1539TIP3   OH226107   5.600   0.417  14.426  0.4414 -0.1421 -0.3018
 1539TIP3    H126108   5.524   0.362  14.407  0.8719 -0.2178 -1.9639
 1539TIP3    H226109   5.569   0.478  14.493 -0.1219 -2.2018  1.4145
 1540TIP3   OH226110   1.823   2.239   5.423 -0.5655 -0.1768 -0.0979
 1540TIP3    H126111   1.801   2.291   5.346  2.1606  3.6494  1.4335
 1540TIP3    H226112   1.744   2.242   5.478 -1.7323 -1.0071 -1.6573
 1541TIP3   OH226113   0.714   1.778   1.430  0.2346 -0.1589 -0.0980
 1541TIP3    H126114   0.665   1.853   1.461 -1.1530 -0.4511 -1.4658
 1541TIP3    H226115   0.720   1.720   1.506  1.8582  1.5288  1.1498
 1542TIP3   OH226116   3.896   3.207   2.342 -0.3043 -0.2003 -0.2465
 1542TIP3    H126117   3.882   3.128   2.394  0.9212  0.5790  1.3669
 1542TIP3    H226118   3.810   3.249   2.337 -0.1809  0.6617  2.8605
 1543TIP3   OH226119   4.374   4.154   0.973 -0.1921  0.5971  0.3084
 1543TIP3    H126120   4.405   4.225   1.030  0.0699  0.2372  0.6204
 1543TIP3    H226121   4.323   4.097   1.032 -0.6779  0.6997 -0.0091
 1544TIP3   OH226122   4.968   0.211   2.763  0.2357  0.2479 -0.0868
 1544TIP3    H126123   4.907   0.150   2.805  0.0271  0.7827  0.3918
 1544TIP3    H226124   4.913   0.268   2.710  0.5630 -0.9384 -1.7882
 1545TIP3   OH226125   4.966   0.173  16.350  0.0455 -0.3228 -0.2434
 1545TIP3    H126126   4.904   0.119  16.399  0.3514  0.3407  0.9096
 1545TIP3    H226127   4.931   0.175  16.261 -0.5901 -1.4627 -0.0382
 1546TIP3   OH226128   6.179   4.945  15.980 -0.5970 -0.0975 -0.6266
 1546TIP3    H126129   6.157   4.966  16.071 -0.7791  2.0146 -1.1131
 1546TIP3    H226130   6.193   5.030  15.938 -0.2505 -1.0348 -2.5254
 1547TIP3   OH226131   3.187   4.241   5.692  0.3437 -0.4664  0.2457
 1547TIP3    H126132   3.180   4.319   5.748 -0.2557 -1.5280  1.7298
 1547TIP3    H226133   3.242   4.181   5.742 -1.5141 -2.0696  0.4965
 1548TIP3   OH226134   0.666   6.833  13.617 -0.1488  0.3076  0.1421
 1548TIP3    H126135   0.705   6.877  13.541 -0.3818 -0.4806 -0.4381
 1548TIP3    H226136   0.572   6.839  13.603 -0.1868 -0.0992  0.2207
 1549TIP3   OH226137   6.806   0.132  13.462  0.0144  0.2215 -0.3190
 1549TIP3    H126138   6.854   0.071  13.518  1.2595  0.3695 -1.1740
 1549TIP3    H226139   6.741   0.171  13.520  2.1500  1.4287  1.4689
 1550TIP3   OH226140   2.222   4.483  14.834  0.1361  0.4420 -0.7064
 1550TIP3    H126141   2.232   4.412  14.898 -1.6567  2.6931  2.3259
 1550TIP3    H226142   2.294   4.543  14.854  0.8916  0.1688 -2.4058
 1551TIP3   OH226143   2.379   6.241  12.524 -0.2105 -0.3063 -0.1080
 1551TIP3    H126144   2.310   6.307  12.520 -0.1527 -0.2237  0.2305
 1551TIP3    H226145   2.457   6.286  12.492 -0.4265 -0.5575 -1.0172
 1552TIP3   OH226146   4.813   3.451   2.937  0.7986 -0.2448  0.0041
 1552TIP3    H126147   4.815   3.363   2.974 -2.4398  0.4935  2.2944
 1552TIP3    H226148   4.745   3.447   2.870 -1.2998  1.0171  1.9390
 1553TIP3   OH226149   0.930   4.503   5.314  0.4493 -0.4168  0.3535
 1553TIP3    H126150   1.021   4.510   5.342  0.0051  0.4917  1.6446
 1553TIP3    H226151   0.889   4.448   5.380 -0.4080  0.9495  1.0004
 1554TIP3   OH226152   3.229   6.213   1.992 -0.2435 -0.2291 -0.0145
 1554TIP3    H126153   3.234   6.280   1.923 -2.3058  1.5618  1.4417
 1554TIP3    H226154   3.222   6.131   1.944 -0.6445  0.8468 -1.9541
 1555TIP3   OH226155   1.065   0.512   1.919 -0.0208  0.3309 -0.1223
 1555TIP3    H126156   1.004   0.575   1.957 -0.1733  0.1174 -0.0107
 1555TIP3    H226157   1.051   0.518   1.824 -0.7969 -0.2936 -0.0621
 1556TIP3   OH226158   4.783   3.598  15.748  0.2783 -0.5794  0.1565
 1556TIP3    H126159   4.791   3.545  15.669  0.2116 -1.2992  0.6192
 1556TIP3    H226160   4.712   3.659  15.729 -1.0484 -2.0148  0.3423
 1557TIP3   OH226161   5.564   2.191  15.740 -0.1566 -0.6272 -0.3370
 1557TIP3    H126162   5.520   2.149  15.666 -0.7410 -0.4223 -0.1053
 1557TIP3    H226163   5.649   2.147  15.745  0.0512 -0.3757 -1.3782
 1558TIP3   OH226164   6.527   0.689  13.706 -0.4376 -0.1673  0.5908
 1558TIP3    H126165   6.566   0.632  13.639 -1.0348 -1.7995  1.5614
 1558TIP3    H226166   6.589   0.686  13.778  0.1218  1.4529  0.2240
 1559TIP3   OH226167   1.299   2.854  15.766  0.1948  0.3911  0.2545
 1559TIP3    H126168   1.238   2.816  15.829 -2.2010  0.0033 -2.1542
 1559TIP3    H226169   1.366   2.896  15.820 -1.7602  0.1619  3.0493
 1560TIP3   OH226170   0.970   5.286  11.054 -0.6324  0.4572  0.4812
 1560TIP3    H126171   0.912   5.268  10.981  0.8985 -0.2510 -0.6230
 1560TIP3    H226172   1.051   5.239  11.033 -1.0800 -2.4468  4.0739
 1561TIP3   OH226173   1.205   1.295   3.018 -0.4258  0.3332 -0.0171
 1561TIP3    H126174   1.144   1.265   3.085  2.4669 -2.6961  1.5355
 1561TIP3    H226175   1.287   1.248   3.036  1.5767  1.9512 -3.6615
 1562TIP3   OH226176   2.570   0.288   3.183  0.0859  0.4230 -0.5256
 1562TIP3    H126177   2.500   0.225   3.162  1.5654 -0.5037 -3.3110
 1562TIP3    H226178   2.532   0.373   3.165 -1.0191  0.1181  0.2778
 1563TIP3   OH226179   6.532   6.123  15.444 -0.0243 -0.0479  0.2466
 1563TIP3    H126180   6.535   6.138  15.539 -0.1025 -0.4987  0.3269
 1563TIP3    H226181   6.571   6.036  15.433 -0.3181 -0.1377 -0.0982
 1564TIP3   OH226182   3.643   3.978   6.149 -0.4547  0.3792  0.0856
 1564TIP3    H126183   3.639   3.995   6.243  1.8253 -0.7939  0.4764
 1564TIP3    H226184   3.735   3.955   6.133  0.1305  3.8619 -3.0448
 1565TIP3   OH226185   1.644   6.093  13.478 -0.1783  0.1799  0.1119
 1565TIP3    H126186   1.712   6.029  13.456  1.2653  1.1620  1.5123
 1565TIP3    H226187   1.636   6.147  13.399  4.7850  3.5285  1.3939
 1566TIP3   OH226188   5.751   4.826  11.693 -0.0932  0.1887  0.3915
 1566TIP3    H126189   5.838   4.788  11.707  0.1761  0.2360 -0.9886
 1566TIP3    H226190   5.713   4.830  11.781  2.7046  3.6695  1.7005
 1567TIP3   OH226191   1.080   3.819  13.544 -0.1598 -0.0966  0.0308
 1567TIP3    H126192   1.158   3.801  13.492 -0.2565  2.2878 -1.0872
 1567TIP3    H226193   1.111   3.819  13.634  1.5182  2.1855 -0.4566
 1568TIP3   OH226194   6.578   2.524   6.112 -0.0294  0.3466  0.7539
 1568TIP3    H126195   6.624   2.572   6.181  0.4938 -0.3498  0.8990
 1568TIP3    H226196   6.578   2.433   6.142  0.4102 -0.0067 -0.2803
 1569TIP3   OH226197   3.567   4.501  15.160  0.3320  0.3404  0.3971
 1569TIP3    H126198   3.592   4.589  15.132 -0.4495  0.2430 -0.6882
 1569TIP3    H226199   3.482   4.514  15.203  0.6833  0.2410  1.1335
 1570TIP3   OH226200   3.625   2.462   4.937  0.7662  0.1646  0.3996
 1570TIP3    H126201   3.660   2.543   4.899  1.4722 -0.3281 -0.0148
 1570TIP3    H226202   3.621   2.479   5.031  0.6409  0.7813  0.2861
 1571TIP3   OH226203   6.559   0.764   5.829 -0.0538 -0.0309 -0.0076
 1571TIP3    H126204   6.470   0.773   5.796 -0.3172 -1.1985  0.3211
 1571TIP3    H226205   6.559   0.679   5.874  0.1013  1.6462  3.5104
 1572TIP3   OH226206   6.261   2.121   1.134  0.2421  0.4716 -0.1162
 1572TIP3    H126207   6.207   2.065   1.190 -3.3331  2.6466 -1.0759
 1572TIP3    H226208   6.276   2.067   1.056  1.4213 -0.9360  1.0073
 1573TIP3   OH226209   5.471   5.926  12.339 -0.5322  0.5414 -0.3254
 1573TIP3    H126210   5.544   5.975  12.377 -0.6355 -0.4144  1.1736
 1573TIP3    H226211   5.488   5.835  12.362 -1.6689  0.1745 -0.8478
 1574TIP3   OH226212   0.547   2.988   4.157 -0.0824 -1.1047  0.4331
 1574TIP3    H126213   0.520   2.899   4.134  0.6805 -1.3992  0.6519
 1574TIP3    H226214   0.640   2.992   4.135 -0.4195  0.0989 -0.8958
 1575TIP3   OH226215   6.234   2.399   3.717  0.7497 -0.3446  0.1585
 1575TIP3    H126216   6.315   2.450   3.711  0.6361 -0.1441  0.2880
 1575TIP3    H226217   6.251   2.320   3.666  0.0132  1.0056 -2.3085
 1576TIP3   OH226218   0.380   2.822   2.125 -0.3018 -0.3011  0.6810
 1576TIP3    H126219   0.394   2.818   2.219 -0.8422 -1.1780  0.7356
 1576TIP3    H226220   0.289   2.795   2.113 -0.5956  0.8978 -0.0049
 1577TIP3   OH226221   6.789   6.028  15.621  0.0264  0.6297 -0.2397
 1577TIP3    H126222   6.820   5.979  15.697 -0.5480  0.6592  0.0197
 1577TIP3    H226223   6.700   6.054  15.644 -0.3256  0.2400 -1.1060
 1578TIP3   OH226224   1.526   2.841   6.976 -0.6670  0.1327 -0.1042
 1578TIP3    H126225   1.495   2.928   6.951 -1.5512 -0.0144  0.4348
 1578TIP3    H226226   1.449   2.785   6.968 -0.6635 -0.1725  1.5933
 1579TIP3   OH226227   1.470   2.685  13.025  0.0088  0.3035 -0.4466
 1579TIP3    H126228   1.452   2.778  13.010 -0.9189  0.3194  0.6244
 1579TIP3    H226229   1.483   2.648  12.938  2.1956  1.7700 -0.7988
 1580TIP3   OH226230   4.097   3.757  11.622 -0.4994 -0.5376  0.8162
 1580TIP3    H126231   4.010   3.791  11.601  1.7162  3.9832 -2.8978
 1580TIP3    H226232   4.123   3.804  11.701 -0.5273 -0.0169  0.5158
 1581TIP3   OH226233   6.637   6.164  14.521  0.4687 -0.2691  0.0081
 1581TIP3    H126234   6.590   6.186  14.602 -0.1527  1.4972 -0.7942
 1581TIP3    H226235   6.719   6.124  14.552 -1.1417 -2.7354  1.4560
 1582TIP3   OH226236   3.969   0.614  14.215  0.0399  0.1102 -0.4439
 1582TIP3    H126237   3.902   0.605  14.283 -0.3508 -0.1136 -0.8584
 1582TIP3    H226238   3.926   0.586  14.135  0.8865 -0.8903 -0.5722
 1583TIP3   OH226239   0.506   0.973  15.935 -0.1578  0.3529  0.8138
 1583TIP3    H126240   0.523   0.994  15.844 -2.4222  2.9219  0.8620
 1583TIP3    H226241   0.472   0.884  15.934  0.7154  0.0224 -0.7296
 1584TIP3   OH226242   0.911   1.674  12.695 -0.0033  0.1297  0.4113
 1584TIP3    H126243   0.941   1.724  12.771  1.3228  0.6198 -0.4022
 1584TIP3    H226244   0.990   1.658  12.644 -0.6064 -1.6442 -0.0546
 1585TIP3   OH226245   3.561   1.189   3.049 -0.3613  0.1578 -0.1200
 1585TIP3    H126246   3.543   1.194   2.955 -0.0435 -0.1449 -0.1988
 1585TIP3    H226247   3.607   1.105   3.060 -0.7832 -0.0141  0.3686
 1586TIP3   OH226248   2.849   6.280  10.049 -0.0495  0.4890  0.3208
 1586TIP3    H126249   2.793   6.265   9.972 -0.9471 -0.4914  1.1265
 1586TIP3    H226250   2.806   6.351  10.096 -0.2629  0.1682  0.6116
 1587TIP3   OH226251   3.625   5.546   2.185  0.7318  0.2304  0.4292
 1587TIP3    H126252   3.705   5.532   2.235  0.2665  0.6644  1.3305
 1587TIP3    H226253   3.558   5.498   2.234  0.6970 -1.3798 -1.1330
 1588TIP3   OH226254   3.026   2.517  15.926  0.5020  0.3509  0.4003
 1588TIP3    H126255   2.993   2.542  15.840 -2.7087 -4.0048  0.0059
 1588TIP3    H226256   3.112   2.478  15.909  0.3545  0.4523 -0.6436
 1589TIP3   OH226257   0.742   0.012   6.034  0.1340 -0.1034 -0.4986
 1589TIP3    H126258   0.838   0.020   6.037  0.0702  0.6017 -0.0528
 1589TIP3    H226259   0.722  -0.064   6.089  0.3164  0.9374  1.0649
 1590TIP3   OH226260   2.032   5.501  11.874  0.1711  0.3295 -0.1617
 1590TIP3    H126261   1.939   5.506  11.856  0.4475  1.4592 -1.4187
 1590TIP3    H226262   2.038   5.478  11.967 -1.3367 -2.6606 -0.6697
 1591TIP3   OH226263   2.804   5.902  15.121  0.2448 -0.1705  0.0469
 1591TIP3    H126264   2.778   5.877  15.033 -1.0009 -1.5938  0.7869
 1591TIP3    H226265   2.725   5.895  15.173  1.1895 -0.4709  1.5144
 1592TIP3   OH226266   5.120   4.886   5.955 -0.0359 -0.1804  0.0608
 1592TIP3    H126267   5.168   4.803   5.945  0.8901  0.4246 -0.6606
 1592TIP3    H226268   5.165   4.931   6.027 -0.0751  0.0120 -0.0358
 1593TIP3   OH226269   2.106   0.911  15.973  0.5188  0.4356  0.1358
 1593TIP3    H126270   2.070   0.855  16.042 -0.7590  0.2563 -0.6436
 1593TIP3    H226271   2.196   0.881  15.961 -0.2701 -1.7951 -0.5827
 1594TIP3   OH226272   5.052   6.204   1.359  0.2136  0.8075 -0.0643
 1594TIP3    H126273   4.964   6.236   1.339  0.4408  0.2476 -2.2131
 1594TIP3    H226274   5.043   6.108   1.359  0.6857  0.7519  0.5327
 1595TIP3   OH226275   5.460   0.416  13.771  0.7751  0.3527 -0.6394
 1595TIP3    H126276   5.457   0.406  13.676  0.7602  0.9254 -0.7038
 1595TIP3    H226277   5.378   0.378  13.802  1.5238 -1.4073 -0.6919
 1596TIP3   OH226278   6.246   6.468   3.023 -0.5112 -0.2278  0.0251
 1596TIP3    H126279   6.219   6.416   2.948  0.5264 -1.1674  0.2700
 1596TIP3    H226280   6.313   6.527   2.990 -1.8547  1.1838 -0.3041
 1597TIP3   OH226281   0.653   0.082   1.760  0.7487  0.2602 -0.4112
 1597TIP3    H126282   0.685   0.091   1.849  0.6131 -2.0922 -0.0633
 1597TIP3    H226283   0.697   0.152   1.711  0.8875  1.5352  1.4506
 1598TIP3   OH226284   2.764   2.130   1.609  0.4292  0.5863  0.1513
 1598TIP3    H126285   2.860   2.134   1.610  0.5152 -1.1396  0.3583
 1598TIP3    H226286   2.738   2.155   1.697  0.7609 -0.1923  0.4776
 1599TIP3   OH226287   6.323   6.367  16.003  0.1658  0.4387  1.3017
 1599TIP3    H126288   6.235   6.351  15.967  0.2920 -0.0048  1.1894
 1599TIP3    H226289   6.330   6.307  16.077  1.3894 -1.5570 -0.3207
 1600TIP3   OH226290   6.433   2.717   3.888  0.8643  0.6856  0.3234
 1600TIP3    H126291   6.445   2.797   3.838  2.3243 -0.2511 -0.9309
 1600TIP3    H226292   6.423   2.649   3.822  5.2351 -0.9738  1.0112
 1601TIP3   OH226293   6.237   2.019  13.997  0.2267  0.7305 -0.6439
 1601TIP3    H126294   6.294   1.972  14.058  0.2007  0.5750 -0.7394
 1601TIP3    H226295   6.166   2.053  14.052 -0.2065 -0.0595 -0.7013
 1602TIP3   OH226296   6.012   1.017   3.434 -0.2208  0.2968  0.1043
 1602TIP3    H126297   6.051   1.082   3.375 -1.3231 -0.4891 -1.5918
 1602TIP3    H226298   6.058   0.936   3.413 -0.3318  0.0882  0.6552
 1603TIP3   OH226299   6.374   4.752  15.872 -0.6638  0.3607  0.1234
 1603TIP3    H126300   6.449   4.786  15.920 -1.3156 -0.2784  1.6579
 1603TIP3    H226301   6.301   4.810  15.896 -1.0299 -0.0294 -0.0328
 1604TIP3   OH226302   2.257   3.712  16.003  0.4141 -0.6984  0.6401
 1604TIP3    H126303   2.214   3.703  15.918  0.3751 -1.1507  0.7047
 1604TIP3    H226304   2.186   3.715  16.067  0.2561  2.6312  0.4755
 1605TIP3   OH226305   4.921   4.691  12.345 -0.2594  0.5191 -0.0166
 1605TIP3    H126306   4.862   4.657  12.277 -0.9210  0.1945  0.7029
 1605TIP3    H226307   4.971   4.760  12.301  0.5254 -0.8122 -1.2865
 1606TIP3   OH226308   1.142   5.809  16.816  0.3240 -0.0327  0.2574
 1606TIP3    H126309   1.205   5.879  16.797 -3.3242  3.3781 -0.5676
 1606TIP3    H226310   1.103   5.836  16.900 -0.5357 -1.6651  0.4002
 1607TIP3   OH226311   6.563   4.586   2.106  0.1488 -0.3330  0.2687
 1607TIP3    H126312   6.489   4.619   2.055  0.7438  0.9938  0.2102
 1607TIP3    H226313   6.612   4.665   2.131  1.8754 -1.2032 -0.1974
 1608TIP3   OH226314   0.122   0.606  16.683 -0.8429 -0.4057  0.0741
 1608TIP3    H126315   0.195   0.557  16.645 -1.5049 -1.6270  0.3233
 1608TIP3    H226316   0.055   0.607  16.614 -0.1681  1.7864 -0.6184
 1609TIP3   OH226317   5.981   5.734  11.841  0.6613 -0.0172 -0.4467
 1609TIP3    H126318   6.003   5.822  11.873 -1.0707  0.5662 -0.7357
 1609TIP3    H226319   5.914   5.749  11.775  2.1043 -1.4051 -2.3467
 1610TIP3   OH226320   1.432   2.084   4.797 -0.3050  0.4354  0.0507
 1610TIP3    H126321   1.496   2.014   4.810  0.6053  1.2761  0.2044
 1610TIP3    H226322   1.485   2.162   4.780 -1.3156  0.7475 -1.9776
 1611TIP3   OH226323   6.454   2.421  16.409  0.4350  1.0433 -0.6071
 1611TIP3    H126324   6.388   2.395  16.473 -0.0857  0.4129 -1.3918
 1611TIP3    H226325   6.530   2.366  16.430  1.4326  3.0091  1.4613
 1612TIP3   OH226326   1.984   5.523   0.669  0.2844  0.3184 -0.4021
 1612TIP3    H126327   2.030   5.507   0.587 -0.2862 -0.7476 -0.5282
 1612TIP3    H226328   1.894   5.542   0.643  0.2785  0.7508 -0.0686
 1613TIP3   OH226329   2.562   4.654  14.395 -0.6377 -0.3117  0.1454
 1613TIP3    H126330   2.592   4.671  14.484  0.7950 -0.0081 -0.3645
 1613TIP3    H226331   2.643   4.641  14.345 -1.3943  0.1224 -1.2298
 1614TIP3   OH226332   4.775   4.903   3.038  0.4486  0.2090  0.6878
 1614TIP3    H126333   4.772   4.843   2.964 -1.4044 -0.4089  1.2080
 1614TIP3    H226334   4.813   4.851   3.109 -0.4750 -0.1540  0.9362
 1615TIP3   OH226335   2.163   2.158  14.713 -0.1176 -0.0765  0.0842
 1615TIP3    H126336   2.200   2.136  14.628  0.4598 -0.9124  0.5380
 1615TIP3    H226337   2.237   2.187  14.766  0.0951 -2.4849  1.2355
 1616TIP3   OH226338   5.828   2.937  14.923  0.7872 -0.4339  0.6060
 1616TIP3    H126339   5.815   3.006  14.858  2.7632 -0.2146  0.3941
 1616TIP3    H226340   5.820   2.981  15.007 -0.8797 -0.5451  0.5340
 1617TIP3   OH226341   1.037   3.357  12.537  0.6054  0.0458 -0.4851
 1617TIP3    H126342   0.985   3.333  12.461 -2.5401 -1.1758  1.8441
 1617TIP3    H226343   1.107   3.292  12.541 -0.8894 -1.6423 -0.7944
 1618TIP3   OH226344   4.534   0.195  11.067 -0.1998  0.5271 -0.0939
 1618TIP3    H126345   4.493   0.220  10.985 -2.5326 -1.5902  0.3083
 1618TIP3    H226346   4.600   0.130  11.042 -1.6006 -0.8753 -0.2776
 1619TIP3   OH226347   0.841   4.652   2.221  0.3060  0.6687  0.4434
 1619TIP3    H126348   0.884   4.727   2.263 -0.5178  0.5444  1.5524
 1619TIP3    H226349   0.764   4.635   2.275 -0.7889  0.4566 -1.1087
 1620TIP3   OH226350   5.878   6.137   4.365 -0.4269 -0.0691  0.4466
 1620TIP3    H126351   5.812   6.196   4.328  1.3127  1.1853 -0.8381
 1620TIP3    H226352   5.901   6.079   4.292 -0.0084 -0.3888  0.8310
 1621TIP3   OH226353   3.140   1.351  14.321 -0.1109 -0.6163 -0.6709
 1621TIP3    H126354   3.195   1.429  14.318 -0.7640 -0.0150  1.1497
 1621TIP3    H226355   3.200   1.280  14.345 -0.0155 -0.0010  1.1188
 1622TIP3   OH226356   0.845   0.346   3.396  0.0293  0.7259  0.1370
 1622TIP3    H126357   0.908   0.383   3.457  2.6055 -0.6975 -1.4931
 1622TIP3    H226358   0.867   0.384   3.311  0.2765 -1.5198 -0.8969
 1623TIP3   OH226359   6.070   3.804   3.240  0.4367  0.0517  0.1061
 1623TIP3    H126360   6.086   3.709   3.243 -1.4518 -0.2977  0.1688
 1623TIP3    H226361   5.977   3.812   3.219  0.4985  1.9081  0.3882
 1624TIP3   OH226362   0.597   5.199  15.013 -0.1310  0.0542  0.6842
 1624TIP3    H126363   0.598   5.242  14.927 -0.3463  1.7566  1.4912
 1624TIP3    H226364   0.504   5.186  15.031 -0.1988  1.4778  1.4755
 1625TIP3   OH226365   0.525   0.223   2.543  0.4086 -0.1284 -0.0396
 1625TIP3    H126366   0.466   0.147   2.539 -0.5678  0.6533 -1.2704
 1625TIP3    H226367   0.551   0.238   2.452  0.6783  0.9238  0.1999
 1626TIP3   OH226368   2.408   0.030  13.876 -0.8628  0.0963 -1.0504
 1626TIP3    H126369   2.392   0.008  13.968  1.8248  1.8340 -0.0423
 1626TIP3    H226370   2.339   0.093  13.854 -0.4255  1.1367  0.4369
 1627TIP3   OH226371   5.297   1.453   3.331 -0.5389  0.1735 -0.1931
 1627TIP3    H126372   5.209   1.444   3.367 -0.7044  1.8343 -0.1184
 1627TIP3    H226373   5.331   1.364   3.329 -2.4196 -0.5927 -0.7502
 1628TIP3   OH226374   2.353   0.333  11.113  0.0522 -0.5069 -0.0486
 1628TIP3    H126375   2.338   0.369  11.201  0.6273  1.1450 -0.5889
 1628TIP3    H226376   2.371   0.240  11.128  1.8307  0.0628  1.7575
 1629TIP3   OH226377   4.332   6.157  15.395  0.0262 -0.1524 -0.1906
 1629TIP3    H126378   4.397   6.223  15.419 -1.2576  0.8847  0.5149
 1629TIP3    H226379   4.380   6.074  15.400  1.7741  0.7175 -1.4541
 1630TIP3   OH226380   4.005   3.348  16.419  1.0310  0.2886  0.5803
 1630TIP3    H126381   3.959   3.367  16.337  2.0037  1.4006  0.2646
 1630TIP3    H226382   4.064   3.276  16.397  0.1163 -0.5317  0.7518
 1631TIP3   OH226383   0.530   4.663   1.350  0.5716  0.1299  1.1189
 1631TIP3    H126384   0.556   4.585   1.300 -1.4044  0.6130 -0.8060
 1631TIP3    H226385   0.607   4.719   1.349  0.8574 -0.2492 -0.6762
 1632TIP3   OH226386   5.031   5.232   3.201  0.7819  0.1130 -0.2370
 1632TIP3    H126387   5.089   5.261   3.130  0.3634  0.6675 -0.3538
 1632TIP3    H226388   4.981   5.310   3.226 -0.7469 -0.6108 -0.9176
 1633TIP3   OH226389   2.579   4.545  12.640 -0.0660 -0.2785 -0.5884
 1633TIP3    H126390   2.667   4.547  12.677  0.4366 -0.2031 -1.7554
 1633TIP3    H226391   2.590   4.507  12.553 -0.6441  2.7510 -2.0993
 1634TIP3   OH226392   6.337   6.147  13.790 -0.4199  0.0711 -0.1697
 1634TIP3    H126393   6.397   6.174  13.860  0.9848 -1.7116 -0.5768
 1634TIP3    H226394   6.258   6.119  13.836  0.2444 -0.4721  0.6995
 1635TIP3   OH226395   6.738   5.450  14.003 -0.0425 -0.0170 -0.3877
 1635TIP3    H126396   6.694   5.513  14.060  0.0571  0.7908 -1.1782
 1635TIP3    H226397   6.668   5.391  13.974  0.1329 -1.3117  1.6368
 1636TIP3   OH226398   4.073   5.422  13.729  0.8547  0.0058  0.4469
 1636TIP3    H126399   4.162   5.388  13.720  0.5825 -0.8868  0.9460
 1636TIP3    H226400   4.021   5.346  13.757 -0.2112  0.3172 -0.5979
 1637TIP3   OH226401   1.144   1.635  11.342  0.5724  0.2041  0.0420
 1637TIP3    H126402   1.101   1.577  11.279 -2.4991  0.9569  1.2565
 1637TIP3    H226403   1.099   1.617  11.425  1.9571  1.8376  1.2001
 1638TIP3   OH226404   5.529   1.784   3.070 -0.4076 -0.2596  0.4425
 1638TIP3    H126405   5.573   1.828   2.997 -0.2818 -0.7310  0.2283
 1638TIP3    H226406   5.555   1.693   3.062 -1.1606 -0.4902  0.5089
 1639TIP3   OH226407   1.771   3.605   2.568  0.8711  0.3367 -0.2494
 1639TIP3    H126408   1.706   3.624   2.500 -0.9030 -1.1497  0.9244
 1639TIP3    H226409   1.725   3.621   2.650  1.4348 -2.1807  0.6523
 1640TIP3   OH226410   2.325   6.615   1.735 -0.0944  0.6135  0.4545
 1640TIP3    H126411   2.259   6.666   1.782 -0.9119 -0.7530  0.8660
 1640TIP3    H226412   2.404   6.624   1.788 -0.3890  0.9626  0.8464
 1641TIP3   OH226413   4.058   4.088   2.975  0.0061  0.0321  0.1762
 1641TIP3    H126414   4.145   4.106   3.011 -0.0756  0.6607  0.0650
 1641TIP3    H226415   4.004   4.071   3.052 -0.6546  3.3771  0.5958
 1642TIP3   OH226416   6.644   1.292  13.415 -0.1366 -0.1311 -0.3267
 1642TIP3    H126417   6.557   1.314  13.381 -0.4104 -1.1787 -0.3275
 1642TIP3    H226418   6.662   1.359  13.481 -0.6203  0.5246 -0.8426
 1643TIP3   OH226419   2.690   5.048   0.119  0.5611 -0.3922 -0.4590
 1643TIP3    H126420   2.698   5.028   0.026 -1.0406 -0.4126 -0.6248
 1643TIP3    H226421   2.597   5.036   0.138  0.5933  1.0508  0.8118
 1644TIP3   OH226422   3.558   2.937   4.040 -0.2159 -0.1190  0.0391
 1644TIP3    H126423   3.633   2.994   4.024 -0.9073  1.3061  1.6295
 1644TIP3    H226424   3.571   2.904   4.129 -0.4155 -1.6043 -0.4421
 1645TIP3   OH226425   0.544   5.785   0.415  0.3913  0.5615 -0.1720
 1645TIP3    H126426   0.556   5.878   0.432  2.2039  0.6820 -1.7465
 1645TIP3    H226427   0.514   5.781   0.325  0.3087 -0.3787 -0.1110
 1646TIP3   OH226428   3.038   5.507  16.770  0.5326  0.0257  0.3854
 1646TIP3    H126429   3.072   5.525  16.858 -0.1231 -0.1142  0.6744
 1646TIP3    H226430   3.010   5.593  16.737 -0.5088 -0.1159  0.8703
 1647TIP3   OH226431   1.809   5.602   0.462 -0.0842  0.4221 -0.0708
 1647TIP3    H126432   1.741   5.639   0.406 -1.4296 -0.5234  0.8828
 1647TIP3    H226433   1.846   5.530   0.411 -1.6623 -0.7699  0.4157
 1648TIP3   OH226434   5.683   6.089  16.688  0.1094  0.5952 -0.2999
 1648TIP3    H126435   5.685   6.174  16.645 -0.0653  0.4380 -0.6293
 1648TIP3    H226436   5.740   6.034  16.635  0.3908  0.5641  0.0359
 1649TIP3   OH226437   5.875   5.488  10.985 -0.0806  0.0072  0.1483
 1649TIP3    H126438   5.814   5.415  10.989 -0.3228  0.2395  1.8179
 1649TIP3    H226439   5.904   5.492  10.894  0.2257 -2.3839  0.0814
 1650TIP3   OH226440   6.699   5.447  15.950  0.1017 -0.2279 -0.0379
 1650TIP3    H126441   6.753   5.486  16.020  0.3613 -2.8416  1.3449
 1650TIP3    H226442   6.612   5.440  15.988 -0.0315 -0.5797 -0.3976
 1651TIP3   OH226443   0.353   2.407   5.819  0.4737  0.2021  0.7319
 1651TIP3    H126444   0.379   2.359   5.897  0.3096  0.6741  1.0843
 1651TIP3    H226445   0.400   2.490   5.825 -0.4041  0.7023  0.9199
 1652TIP3   OH226446   0.753   3.115  11.089 -0.4675 -0.2985 -0.0535
 1652TIP3    H126447   0.797   3.044  11.043 -1.7280 -1.1807  0.0585
 1652TIP3    H226448   0.683   3.143  11.030 -0.1477  0.6883  0.0166
 1653TIP3   OH226449   2.227   5.736   5.755 -0.0281  0.3102 -0.7822
 1653TIP3    H126450   2.234   5.830   5.736 -1.8822  0.8812  1.0113
 1653TIP3    H226451   2.203   5.697   5.671  0.5440  1.4580 -1.5085
 1654TIP3   OH226452   6.011   0.203  14.530 -0.1387 -0.7574 -0.2464
 1654TIP3    H126453   5.955   0.238  14.599  0.6980  0.3681 -0.1188
 1654TIP3    H226454   5.976   0.242  14.450  0.6640  0.2449 -0.1270
 1655TIP3   OH226455   1.716   0.546  11.709  0.1390 -0.7073  0.2252
 1655TIP3    H126456   1.754   0.550  11.622 -0.2869 -2.0839 -0.0448
 1655TIP3    H226457   1.791   0.541  11.768  0.4224 -2.6814 -0.2581
 1656TIP3   OH226458   6.790   0.605  13.080 -0.4084 -0.2111 -0.8489
 1656TIP3    H126459   6.708   0.654  13.088  0.2159  0.7620 -0.3200
 1656TIP3    H226460   6.779   0.531  13.140 -0.9674 -0.1860 -0.9136
 1657TIP3   OH226461   0.815   6.388  15.996  0.4346 -0.0934  0.0708
 1657TIP3    H126462   0.728   6.395  16.035  0.6992 -1.0756  0.8661
 1657TIP3    H226463   0.807   6.317  15.932  0.4843  0.2466 -0.3136
 1658TIP3   OH226464   2.781   3.011   0.965  0.5516 -0.0861  0.8036
 1658TIP3    H126465   2.874   3.017   0.944  0.6152 -0.6655  0.9289
 1658TIP3    H226466   2.772   3.064   1.044  0.5189  1.1285  0.0237
 1659TIP3   OH226467   2.045   2.297   0.824  0.3954  0.3973 -0.1546
 1659TIP3    H126468   1.991   2.346   0.886  2.0675  0.2208  1.5231
 1659TIP3    H226469   2.056   2.211   0.864  2.1180  0.5137 -0.3088
 1660TIP3   OH226470   5.331   5.997  12.575  0.4044  0.3892 -0.2793
 1660TIP3    H126471   5.361   5.999  12.484  0.4107  0.3623 -0.2773
 1660TIP3    H226472   5.406   5.963  12.624  0.3218  0.1787 -0.2958
 1661TIP3   OH226473   2.231   5.142   5.388  0.0194 -0.1038  0.1178
 1661TIP3    H126474   2.151   5.185   5.417  0.7831  0.7651  1.0329
 1661TIP3    H226475   2.246   5.072   5.451 -1.3967 -2.0450 -1.5535
 1662TIP3   OH226476   3.728   3.128   4.831 -0.5085 -0.2861 -0.6542
 1662TIP3    H126477   3.691   3.157   4.914 -2.8122 -1.4114 -1.2040
 1662TIP3    H226478   3.740   3.209   4.780 -1.5246  0.1889 -0.1601
 1663TIP3   OH226479   6.142   2.223   2.766 -0.0901 -0.3130 -0.1962
 1663TIP3    H126480   6.054   2.186   2.767 -0.7556  0.9024 -2.9433
 1663TIP3    H226481   6.129   2.318   2.771  1.2389 -0.1708  1.4780
 1664TIP3   OH226482   1.892   3.714   1.244  0.1218 -0.5014  0.4944
 1664TIP3    H126483   1.896   3.740   1.336 -0.4711 -0.5998  0.5497
 1664TIP3    H226484   1.825   3.645   1.241 -0.4879  0.0962 -0.1439
 1665TIP3   OH226485   0.505   2.623  13.902  0.4424 -0.0333 -0.4975
 1665TIP3    H126486   0.551   2.586  13.826  0.7205 -0.3198 -0.1966
 1665TIP3    H226487   0.555   2.591  13.977 -1.2435 -1.8092 -0.0408
 1666TIP3   OH226488   4.751   1.020  15.468 -0.1531 -0.2775  0.1753
 1666TIP3    H126489   4.773   1.021  15.561 -0.0194  1.2363  0.1609
 1666TIP3    H226490   4.665   0.978  15.464 -0.0145 -0.6571  0.9367
 1667TIP3   OH226491   0.392   0.999   3.531  0.0205  0.3232  0.1189
 1667TIP3    H126492   0.453   1.053   3.481 -0.6792  0.1303 -0.9794
 1667TIP3    H226493   0.390   0.915   3.484  0.4240 -0.3797  1.2971
 1668TIP3   OH226494   4.238   0.525   0.862  0.2999  0.5335  0.1149
 1668TIP3    H126495   4.242   0.576   0.781  0.0527  0.3224 -0.0349
 1668TIP3    H226496   4.326   0.531   0.899  0.1423  1.4712  0.3533
 1669TIP3   OH226497   3.659   1.875   0.295  0.1461  0.1356 -0.0385
 1669TIP3    H126498   3.576   1.838   0.325  1.2453 -0.8994  1.9082
 1669TIP3    H226499   3.679   1.944   0.359  1.6386 -0.8642  0.6363
 1670TIP3   OH226500   1.037   0.970   4.619  0.1059 -0.0031 -0.3042
 1670TIP3    H126501   0.946   1.001   4.623  0.2953  0.4401  1.2184
 1670TIP3    H226502   1.090   1.050   4.623  0.5965 -0.3717  3.0261
 1671TIP3   OH226503   6.510   5.849  11.180  0.8239 -0.1245  0.2104
 1671TIP3    H126504   6.446   5.779  11.192  0.1475  0.6594  1.4201
 1671TIP3    H226505   6.556   5.852  11.264  2.8157 -0.9938 -0.7983
 1672TIP3   OH226506   1.203   0.100  14.213  0.6670  0.1668 -0.1371
 1672TIP3    H126507   1.206   0.090  14.118  0.2358  1.9916 -0.3828
 1672TIP3    H226508   1.138   0.037  14.243 -0.2507  0.5670 -1.2367
 1673TIP3   OH226509   1.730   2.661   1.888 -0.0590 -0.2250  0.3027
 1673TIP3    H126510   1.655   2.632   1.836  0.0574  0.4892 -0.2794
 1673TIP3    H226511   1.707   2.639   1.978  0.9294 -4.0795 -0.2314
 1674TIP3   OH226512   5.183   0.171  17.178 -0.2943 -0.2742 -0.5696
 1674TIP3    H126513   5.135   0.231  17.120  0.3087  0.5913 -0.1829
 1674TIP3    H226514   5.198   0.221  17.258  0.6400 -0.7732 -0.4183
 1675TIP3   OH226515   3.767   0.406  12.123 -0.1060 -0.3331  0.0751
 1675TIP3    H126516   3.721   0.484  12.094  0.5488 -0.3002 -0.9022
 1675TIP3    H226517   3.790   0.425  12.215  2.0509  1.6239 -0.7651
 1676TIP3   OH226518   3.462   1.397  13.570  0.4169  0.2267  0.5263
 1676TIP3    H126519   3.509   1.314  13.575 -0.6464 -0.5609 -1.6532
 1676TIP3    H226520   3.530   1.462  13.552  1.3486  0.0262  2.8378
 1677TIP3   OH226521   5.761   2.705  17.199  0.1713  0.2277  0.2639
 1677TIP3    H126522   5.802   2.739  17.120 -2.7228 -0.1142 -1.5453
 1677TIP3    H226523   5.831   2.661  17.246  2.4263  2.1583 -1.0791
 1678TIP3   OH226524   2.803   4.678   0.427  0.6044 -0.4291 -0.3074
 1678TIP3    H126525   2.882   4.708   0.470 -0.8385  0.7742  1.6460
 1678TIP3    H226526   2.784   4.745   0.361  0.6545 -0.1781 -0.0671
 1679TIP3   OH226527   0.554   4.474  14.855 -0.5375  0.0504  0.3312
 1679TIP3    H126528   0.607   4.519  14.921  0.5866  0.8653 -1.0760
 1679TIP3    H226529   0.607   4.398  14.830 -0.3979  0.4098 -0.4894
 1680TIP3   OH226530   6.581   3.010  17.086 -0.3806 -0.2303  0.2252
 1680TIP3    H126531   6.489   2.984  17.075  1.0159 -5.4059 -2.5558
 1680TIP3    H226532   6.611   3.029  16.997  1.4224  0.8668  1.0180
 1681TIP3   OH226533   5.492   3.648  14.441  0.2777  0.4751  0.4691
 1681TIP3    H126534   5.565   3.589  14.462 -0.8935 -0.1939  3.1137
 1681TIP3    H226535   5.471   3.629  14.350  2.5988 -0.1697 -0.0095
 1682TIP3   OH226536   4.013   3.360   0.215 -0.4750 -0.0827 -0.3108
 1682TIP3    H126537   3.919   3.371   0.228 -0.7519 -1.9168 -0.5027
 1682TIP3    H226538   4.039   3.293   0.277  0.9988  1.2645  0.6324
 1683TIP3   OH226539   0.999   1.965   1.090  0.7225  0.1947  0.2109
 1683TIP3    H126540   0.914   1.942   1.128  0.4093  0.9399 -0.0296
 1683TIP3    H226541   0.990   1.942   0.997  0.6441  0.6349  0.1069
 1684TIP3   OH226542   1.447   4.245  15.444 -0.4119  0.3173 -0.5377
 1684TIP3    H126543   1.497   4.178  15.398 -2.0476 -0.5342 -1.1695
 1684TIP3    H226544   1.367   4.255  15.392  0.0481  3.2434 -0.8120
 1685TIP3   OH226545   6.765   1.640   1.187 -0.4616 -0.3197  0.0240
 1685TIP3    H126546   6.731   1.558   1.152 -1.5426  0.8739 -1.8713
 1685TIP3    H226547   6.701   1.706   1.161 -0.1074  1.0295  2.3211
 1686TIP3   OH226548   0.529   1.361   0.406  0.1845 -0.1342 -0.5249
 1686TIP3    H126549   0.446   1.408   0.398  0.0846  0.6441  3.4446
 1686TIP3    H226550   0.507   1.281   0.454  1.5276 -0.7631 -0.8932
 1687TIP3   OH226551   3.080   4.200   4.846  0.5561 -0.0574  0.2936
 1687TIP3    H126552   3.050   4.211   4.937 -0.5624 -1.2541  0.0945
 1687TIP3    H226553   3.015   4.245   4.793 -0.0115 -1.2277 -0.0375
 1688TIP3   OH226554   0.295   4.856  13.011 -0.2530  0.2371  0.4009
 1688TIP3    H126555   0.382   4.817  13.019 -0.6544 -0.6370  0.6099
 1688TIP3    H226556   0.284   4.905  13.093  0.5524  1.4356 -0.1832
 1689TIP3   OH226557   2.009   5.878   0.964  0.2264  0.2450  0.3995
 1689TIP3    H126558   1.917   5.873   0.940 -0.2227  3.1939  1.1127
 1689TIP3    H226559   2.049   5.933   0.897  0.7104  1.6656  1.7782
 1690TIP3   OH226560   1.078   1.212  11.105  0.1330 -0.4399  0.2906
 1690TIP3    H126561   1.026   1.132  11.094 -0.9249  0.1602  0.7502
 1690TIP3    H226562   1.165   1.181  11.132  0.3100 -1.5062 -1.3823
 1691TIP3   OH226563   0.016   5.553   0.425  0.0606  0.6864 -0.5478
 1691TIP3    H126564   0.096   5.510   0.394 -0.1474  0.8008 -1.2543
 1691TIP3    H226565  -0.013   5.606   0.351 -1.7392 -0.8475 -1.0158
 1692TIP3   OH226566   4.839   6.584  13.736  0.0552  0.0680  0.1767
 1692TIP3    H126567   4.777   6.627  13.678 -0.2346 -0.5261  0.0401
 1692TIP3    H226568   4.920   6.635  13.727 -0.4703  0.9686  0.5215
 1693TIP3   OH226569   0.331   6.363  15.762  0.5345  0.0037  0.5404
 1693TIP3    H126570   0.312   6.279  15.719  1.3170 -1.1071  2.2721
 1693TIP3    H226571   0.248   6.390  15.801 -0.1481  0.9471 -1.4146
 1694TIP3   OH226572   6.065   1.780  14.688  0.7342  0.0980  0.6794
 1694TIP3    H126573   6.113   1.838  14.748  1.6816  0.6869 -0.5920
 1694TIP3    H226574   6.105   1.694  14.701  1.2618  0.3219  0.5602
 1695TIP3   OH226575   2.428   1.290   4.912 -0.0376  0.6513 -0.2810
 1695TIP3    H126576   2.408   1.196   4.918  0.6322  0.1697 -3.6174
 1695TIP3    H226577   2.344   1.332   4.899 -0.2555  0.4360  0.3768
 1696TIP3   OH226578   4.487   0.666  12.622  0.0189  0.3581  0.2541
 1696TIP3    H126579   4.463   0.675  12.714  0.5779 -0.2662  0.4740
 1696TIP3    H226580   4.504   0.755  12.593 -0.8516  0.6318  0.5548
 1697TIP3   OH226581   2.965   3.011   3.594  0.2825 -0.4530  0.1842
 1697TIP3    H126582   2.877   2.984   3.567  0.6141  0.4719 -2.0294
 1697TIP3    H226583   2.956   3.102   3.621  0.3918 -0.6767  1.0104
 1698TIP3   OH226584   5.988   4.502   1.343  0.4109 -0.8667  0.2261
 1698TIP3    H126585   5.917   4.444   1.369  0.9295 -2.3103 -1.3913
 1698TIP3    H226586   6.043   4.450   1.284  2.0641  0.6247  0.3213
 1699TIP3   OH226587   2.098   3.613  12.804 -0.1228  0.0304 -0.0862
 1699TIP3    H126588   2.133   3.552  12.869  0.5503  2.6816  2.2694
 1699TIP3    H226589   2.167   3.622  12.739  1.1604  0.6900  1.3118
 1700TIP3   OH226590   3.674   5.897   6.027  0.3231  0.0377 -0.0764
 1700TIP3    H126591   3.767   5.906   6.045  0.4795 -0.3066 -0.6836
 1700TIP3    H226592   3.645   5.827   6.084  0.2868  0.6040  0.6094
 1701TIP3   OH226593   1.310   2.198  15.135 -0.2364  0.0097 -0.1258
 1701TIP3    H126594   1.252   2.150  15.194 -0.1238  0.8465  0.7006
 1701TIP3    H226595   1.399   2.173  15.163 -0.1863  0.1365 -0.1698
 1702TIP3   OH226596   4.468   4.492   0.846  0.5595 -0.6773 -0.0799
 1702TIP3    H126597   4.416   4.459   0.773  1.0454  1.1241 -1.3103
 1702TIP3    H226598   4.443   4.584   0.854  1.6922 -0.4233  0.9783
 1703TIP3   OH226599   0.419   1.530   3.721 -0.0467  0.0217 -0.2930
 1703TIP3    H126600   0.432   1.624   3.706 -0.5367  0.0325 -0.6800
 1703TIP3    H226601   0.471   1.511   3.799  0.2049  0.5769 -0.3170
 1704TIP3   OH226602   6.820   4.128  11.039 -0.0074 -0.4602 -0.6636
 1704TIP3    H126603   6.779   4.149  10.955 -1.2671  0.8769  0.2493
 1704TIP3    H226604   6.914   4.122  11.019 -0.3218 -0.7056 -2.2448
 1705TIP3   OH226605   6.226   3.348  13.609 -0.1530 -0.8007 -0.5849
 1705TIP3    H126606   6.270   3.422  13.649 -1.4058 -0.5695  0.4529
 1705TIP3    H226607   6.277   3.328  13.531  0.9431  0.3212 -0.1800
 1706TIP3   OH226608   4.933   1.794  16.141 -0.0009  0.1118  0.9058
 1706TIP3    H126609   4.897   1.875  16.179 -1.9237 -1.6653  3.2009
 1706TIP3    H226610   5.012   1.776  16.192  0.5518  0.5984  0.2479
 1707TIP3   OH226611   4.134   5.946  12.772 -0.0826  0.5014  0.2446
 1707TIP3    H126612   4.209   5.981  12.819  0.1390  0.5665 -0.1565
 1707TIP3    H226613   4.086   6.024  12.743 -0.4739  0.4595  0.7678
 1708TIP3   OH226614   1.228   4.183   5.887 -0.3811 -0.7190  0.0010
 1708TIP3    H126615   1.151   4.132   5.911 -0.3166 -0.2257  1.3515
 1708TIP3    H226616   1.277   4.193   5.969 -0.4187  1.5475 -0.1695
 1709TIP3   OH226617   4.465   4.533   2.493 -0.1427 -0.4801  0.5816
 1709TIP3    H126618   4.460   4.563   2.584  0.8868 -1.8208  1.1210
 1709TIP3    H226619   4.535   4.585   2.454  1.3564 -1.7831  1.3964
 1710TIP3   OH226620   1.559   2.754  14.359  0.3323 -0.2696 -0.1370
 1710TIP3    H126621   1.544   2.772  14.452  1.1806 -0.8930  0.1346
 1710TIP3    H226622   1.477   2.717  14.328  0.2841 -0.7768  0.5649
 1711TIP3   OH226623   0.833   5.632  11.624 -0.0359 -0.0272  0.1670
 1711TIP3    H126624   0.815   5.544  11.591  1.6232 -0.4172  0.2344
 1711TIP3    H226625   0.862   5.681  11.548  0.0197  0.1801  0.3220
 1712TIP3   OH226626   1.143   5.940   2.653  0.1408 -0.0071 -0.3527
 1712TIP3    H126627   1.210   5.956   2.586  1.2344 -0.4849  0.6018
 1712TIP3    H226628   1.185   5.963   2.736 -1.1731  0.5214  0.1907
 1713TIP3   OH226629   6.248   4.917   3.913  0.3135  0.0506 -0.2488
 1713TIP3    H126630   6.223   4.919   3.821 -1.0980  0.1627  0.1136
 1713TIP3    H226631   6.284   4.829   3.926  1.5433  0.3893 -1.1250
 1714TIP3   OH226632   5.660   5.535   5.603 -0.3436 -0.6566 -0.4294
 1714TIP3    H126633   5.640   5.487   5.683  2.0571  1.0255  1.3397
 1714TIP3    H226634   5.743   5.498   5.573 -0.3455 -0.1019 -1.1358
 1715TIP3   OH226635   1.817   1.711  15.551 -0.2351 -0.3980  0.5255
 1715TIP3    H126636   1.797   1.801  15.577  0.4379 -0.4311  1.2001
 1715TIP3    H226637   1.760   1.694  15.476  1.5054  1.5183 -1.3697
 1716TIP3   OH226638   0.154   2.096  16.825  0.2504  0.1638  0.4680
 1716TIP3    H126639   0.192   2.015  16.791 -1.4657 -0.6890  0.4734
 1716TIP3    H226640   0.060   2.077  16.832 -0.0556  1.8455  1.3675
 1717TIP3   OH226641   6.549   1.324  13.859  0.0121 -0.1555 -0.5856
 1717TIP3    H126642   6.493   1.335  13.782  0.8867 -0.2030 -1.2419
 1717TIP3    H226643   6.561   1.229  13.867 -0.1476 -0.1563 -0.3321
 1718TIP3   OH226644   5.475   5.247   4.301 -0.4845 -0.3107 -0.5705
 1718TIP3    H126645   5.482   5.335   4.263  2.3264  0.1660  0.7592
 1718TIP3    H226646   5.494   5.188   4.228 -1.4958  0.2150 -1.2762
 1719TIP3   OH226647   0.411   0.940  16.864  0.3414  0.1203 -0.6258
 1719TIP3    H126648   0.385   0.892  16.943  0.2631 -2.0766 -1.8887
 1719TIP3    H226649   0.387   1.031  16.882  0.3011 -0.3074  1.8445
 1720TIP3   OH226650   6.142   5.526  14.077  0.3859 -0.3791 -0.5385
 1720TIP3    H126651   6.081   5.599  14.084 -1.1355 -1.6851  0.2192
 1720TIP3    H226652   6.210   5.546  14.142  0.3110  0.6352 -0.7505
 1721TIP3   OH226653   2.341   1.699   0.188  0.1571  0.1358 -0.0924
 1721TIP3    H126654   2.331   1.607   0.214  0.4745 -0.2449 -1.2580
 1721TIP3    H226655   2.430   1.721   0.214  0.2207 -0.0131 -0.1832
 1722TIP3   OH226656   4.269   0.697  13.899  0.2179 -0.2109  0.0339
 1722TIP3    H126657   4.276   0.726  13.808  1.5192  4.0063  1.2601
 1722TIP3    H226658   4.175   0.681  13.912 -0.0231 -0.6736 -1.9119
 1723TIP3   OH226659   5.420   5.969   5.003 -1.1947 -0.3899 -0.2747
 1723TIP3    H126660   5.396   5.877   5.000  0.3422 -0.8047 -1.0867
 1723TIP3    H226661   5.386   6.005   4.920 -0.1427 -0.6876 -0.8473
 1724TIP3   OH226662   2.216   3.212   6.898  0.3223  0.3791 -0.2160
 1724TIP3    H126663   2.144   3.220   6.961  1.1920  1.4129  0.6827
 1724TIP3    H226664   2.282   3.162   6.945  0.7384  0.6432 -0.5214
 1725TIP3   OH226665   4.229   1.810   0.928  0.0209 -0.0580  0.0882
 1725TIP3    H126666   4.158   1.754   0.896  0.1725 -0.7611  0.9425
 1725TIP3    H226667   4.186   1.870   0.989 -0.2349  1.1502 -1.2510
 1726TIP3   OH226668   5.787   5.372  13.048  0.2203 -0.0016  0.1431
 1726TIP3    H126669   5.760   5.302  12.989 -0.2113  0.3696 -0.1034
 1726TIP3    H226670   5.850   5.424  12.997  0.5518 -0.2134  0.3299
 1727TIP3   OH226671   2.719   1.847   3.499 -0.0321  0.7623 -0.5492
 1727TIP3    H126672   2.664   1.902   3.444 -0.3314  0.4116 -0.5992
 1727TIP3    H226673   2.709   1.759   3.464 -0.3144  0.5114  0.1326
 1728TIP3   OH226674   3.456   3.321  16.044  0.2997 -0.1412  0.1299
 1728TIP3    H126675   3.532   3.291  15.995  0.0824 -0.1737 -0.1902
 1728TIP3    H226676   3.471   3.415  16.055  0.8160 -0.2996  0.8439
 1729TIP3   OH226677   2.161   2.512   4.832  0.3089  0.7384  0.3933
 1729TIP3    H126678   2.072   2.528   4.801  0.2298 -0.1811  0.1311
 1729TIP3    H226679   2.163   2.553   4.918 -1.2243 -1.5044  1.5932
 1730TIP3   OH226680   0.071   2.253   5.029  0.5651 -0.0697  0.4953
 1730TIP3    H126681  -0.011   2.264   4.981  0.1850 -1.8369  0.6596
 1730TIP3    H226682   0.044   2.217   5.114  1.4234  0.5843  1.0639
 1731TIP3   OH226683   1.017   0.284  10.756 -0.4282  0.0143 -0.3379
 1731TIP3    H126684   0.940   0.229  10.771 -1.3914  0.9697 -1.4534
 1731TIP3    H226685   1.039   0.270  10.664 -1.0093  1.7971 -0.7966
 1732TIP3   OH226686   0.633   3.178  15.249  0.0673  0.0014  0.0469
 1732TIP3    H126687   0.721   3.182  15.286 -0.4652 -1.3974  1.6014
 1732TIP3    H226688   0.589   3.256  15.282  0.7535  0.7880 -0.8642
 1733TIP3   OH226689   3.236   2.822  16.373  0.4696  0.0370  0.9306
 1733TIP3    H126690   3.245   2.901  16.319 -0.1317 -1.2522 -1.2100
 1733TIP3    H226691   3.143   2.818  16.395 -0.0101 -1.2284 -1.0203
 1734TIP3   OH226692   5.075   5.226  15.635 -0.0674 -0.0958 -0.1944
 1734TIP3    H126693   5.170   5.224  15.640 -0.1294 -0.1180  1.6981
 1734TIP3    H226694   5.048   5.136  15.654 -0.4582 -0.5145 -2.4673
 1735TIP3   OH226695   3.234   4.625   0.710  0.7746 -0.1411  0.0388
 1735TIP3    H126696   3.314   4.586   0.744  0.7123 -0.7921 -0.5482
 1735TIP3    H226697   3.170   4.611   0.779  0.9513 -0.3884  0.1547
 1736TIP3   OH226698   2.469   2.094  16.022  1.0361  0.2934 -0.1004
 1736TIP3    H126699   2.549   2.137  15.991 -0.1477  2.2991 -0.5216
 1736TIP3    H226700   2.409   2.166  16.040 -0.6394 -1.1692  0.3780
 1737TIP3   OH226701   5.758   2.900   3.188 -0.1073 -0.2628  0.1884
 1737TIP3    H126702   5.766   2.952   3.268  2.3675 -1.1937  0.6394
 1737TIP3    H226703   5.769   2.962   3.117 -0.5146  0.2969  0.6049
 1738TIP3   OH226704   1.597   2.463   5.904  0.6588 -0.1385 -0.3130
 1738TIP3    H126705   1.504   2.459   5.880  0.1226  0.1049  1.5718
 1738TIP3    H226706   1.637   2.514   5.834 -0.7790  0.4625 -0.7530
 1739TIP3   OH226707   1.583   3.756  11.430 -0.2246 -0.0209  0.7655
 1739TIP3    H126708   1.546   3.782  11.346  1.4131  2.5904  0.7474
 1739TIP3    H226709   1.524   3.688  11.462 -1.3454 -0.5271 -2.0963
 1740TIP3   OH226710   2.027   4.395   5.894 -0.0876  0.6030 -0.4761
 1740TIP3    H126711   2.020   4.356   5.980 -0.7308  2.3045  0.2906
 1740TIP3    H226712   2.025   4.321   5.833 -0.5183 -0.5628  0.9108
 1741TIP3   OH226713   2.116   1.482   2.253  0.3816  0.2373  0.5713
 1741TIP3    H126714   2.141   1.549   2.317 -0.1817  0.3603  0.6697
 1741TIP3    H226715   2.166   1.505   2.174 -1.6969  2.3355 -0.2356
 1742TIP3   OH226716   5.472   6.149   5.981 -0.1411  0.0266 -0.0334
 1742TIP3    H126717   5.434   6.181   5.899 -1.8678 -0.6101  0.4708
 1742TIP3    H226718   5.425   6.067   5.999  0.4644 -0.0430  1.3990
 1743TIP3   OH226719   4.701   2.828   0.877  0.6249  0.3351 -0.6392
 1743TIP3    H126720   4.770   2.776   0.835 -0.4302 -1.5835 -0.1474
 1743TIP3    H226721   4.623   2.809   0.825  0.0804  0.9215 -0.0497
 1744TIP3   OH226722   1.397   3.293  13.048 -0.1408 -0.2879  0.0119
 1744TIP3    H126723   1.378   3.230  13.117 -1.4722 -0.2633 -0.3011
 1744TIP3    H226724   1.469   3.346  13.082 -2.0898  1.1163  2.3438
 1745TIP3   OH226725   0.808   5.275  13.618  0.1773 -0.1187 -0.3779
 1745TIP3    H126726   0.771   5.337  13.681 -2.0977 -0.4810 -1.2705
 1745TIP3    H226727   0.825   5.328  13.540 -0.0641 -0.2581 -0.5281
 1746TIP3   OH226728   4.420   3.067   6.166 -0.1846  0.1510  0.3058
 1746TIP3    H126729   4.449   3.017   6.242  2.1584  0.8042 -0.0758
 1746TIP3    H226730   4.499   3.109   6.133 -1.3026  0.6434 -1.9622
 1747TIP3   OH226731   0.098   3.695   4.363 -1.1812  0.7382  0.4709
 1747TIP3    H126732   0.135   3.655   4.285  1.2993  0.9851  1.4288
 1747TIP3    H226733   0.013   3.727   4.335 -0.6949  0.1641 -1.9105
 1748TIP3   OH226734   2.894   2.300   0.899 -0.1176  0.6831  0.8980
 1748TIP3    H126735   2.933   2.223   0.857 -0.4726 -0.1562  2.0481
 1748TIP3    H226736   2.809   2.309   0.857  0.3386  1.0906  0.0354
 1749TIP3   OH226737   3.835   4.222  14.159  0.8445  0.4718  0.0892
 1749TIP3    H126738   3.897   4.177  14.215 -0.1813 -0.9957  0.1050
 1749TIP3    H226739   3.844   4.180  14.073 -0.1507  0.1946  0.1090
 1750TIP3   OH226740   2.277   6.653  13.356  0.5923  0.6913 -0.0984
 1750TIP3    H126741   2.229   6.635  13.275  1.2123 -0.7331 -0.1779
 1750TIP3    H226742   2.362   6.611  13.344  1.3624  1.9741  0.5973
 1751TIP3   OH226743   4.102   0.857   3.732  0.5952 -0.3202 -0.3773
 1751TIP3    H126744   4.019   0.900   3.713 -0.0095 -1.5777 -0.7084
 1751TIP3    H226745   4.096   0.773   3.687  2.5448  0.0266 -1.3924
 1752TIP3   OH226746   0.866   6.087  13.622 -0.0544 -0.5254  0.1687
 1752TIP3    H126747   0.901   6.131  13.700 -2.1758 -0.7074  1.2891
 1752TIP3    H226748   0.911   6.129  13.549  0.5943  1.0057  1.3900
 1753TIP3   OH226749   1.312   2.504   4.411  0.3225 -0.1193 -0.4692
 1753TIP3    H126750   1.298   2.462   4.496  0.0955 -1.4010 -1.1133
 1753TIP3    H226751   1.310   2.432   4.348 -1.4738  1.0017 -1.7906
 1754TIP3   OH226752   5.415   4.700  11.578 -0.1966 -0.3219  0.5380
 1754TIP3    H126753   5.461   4.740  11.504  0.3721 -0.2944  0.8983
 1754TIP3    H226754   5.450   4.746  11.655  0.3388 -1.3793  0.9467
 1755TIP3   OH226755   4.923   1.862   1.090  0.6990 -0.2491 -0.0137
 1755TIP3    H126756   5.004   1.813   1.100  0.5864 -0.3045  0.6860
 1755TIP3    H226757   4.928   1.931   1.157  0.6986  0.4742 -0.7484
 1756TIP3   OH226758   3.760   6.215  15.992  0.1102 -0.1241  0.4730
 1756TIP3    H126759   3.819   6.225  15.917  1.7167 -2.2233  1.3631
 1756TIP3    H226760   3.782   6.130  16.029 -3.4417 -0.9844  0.9650
 1757TIP3   OH226761   6.651   3.179  12.068  0.5189  0.4387  0.2811
 1757TIP3    H126762   6.623   3.089  12.082  1.3778  0.0571 -0.3324
 1757TIP3    H226763   6.714   3.196  12.138  0.9667  0.2783 -0.0778
 1758TIP3   OH226764   5.517   2.217   3.919  0.2811 -0.1512 -0.1104
 1758TIP3    H126765   5.557   2.133   3.896 -0.1031 -0.2146 -0.5536
 1758TIP3    H226766   5.527   2.223   4.014 -2.7637 -2.3445  0.5093
 1759TIP3   OH226767   1.647   0.783   2.096 -0.2867  0.1212  0.8860
 1759TIP3    H126768   1.673   0.872   2.069 -0.7511 -0.2570 -0.8930
 1759TIP3    H226769   1.699   0.767   2.175  1.7608  1.0057 -0.1980
 1760TIP3   OH226770   5.291   0.726   6.340 -0.4981  0.0082 -0.3075
 1760TIP3    H126771   5.379   0.747   6.370 -1.1888  2.9190 -0.0059
 1760TIP3    H226772   5.290   0.630   6.332  2.7651 -0.0908 -0.7197
 1761TIP3   OH226773   4.683   5.496   4.263  0.4315 -0.1174  0.2094
 1761TIP3    H126774   4.775   5.466   4.264  0.1717 -0.9655  1.4966
 1761TIP3    H226775   4.670   5.534   4.349 -0.1332  1.0276 -0.3622
 1762TIP3   OH226776   1.067   0.392  16.103  0.1978  0.4004 -0.3132
 1762TIP3    H126777   1.090   0.438  16.023  0.7885 -0.5860 -0.7311
 1762TIP3    H226778   1.094   0.450  16.174  0.5180  0.8769 -0.8278
 1763TIP3   OH226779   2.933   4.002  11.499  0.2003 -0.2014  0.0960
 1763TIP3    H126780   2.942   4.093  11.472 -2.5426 -0.6889 -3.0947
 1763TIP3    H226781   2.860   4.002  11.561  0.6168 -0.1949  0.5978
 1764TIP3   OH226782   3.684   6.387  10.932 -0.1343  0.1211 -0.4713
 1764TIP3    H126783   3.722   6.329  10.866 -0.0305 -0.0213 -0.2911
 1764TIP3    H226784   3.590   6.372  10.926 -0.1736  0.5474 -0.9865
 1765TIP3   OH226785   0.546   4.416   2.619 -0.2188  0.5833  0.3043
 1765TIP3    H126786   0.468   4.426   2.564  1.0152  0.5138 -1.5780
 1765TIP3    H226787   0.590   4.339   2.583  0.4930  0.3513  1.6314
 1766TIP3   OH226788   2.742   0.242   0.746 -0.9289 -0.7130  0.7230
 1766TIP3    H126789   2.829   0.264   0.781 -1.4893  0.8937  1.2093
 1766TIP3    H226790   2.682   0.264   0.817 -1.9701  1.1255 -0.6549
 1767TIP3   OH226791   1.306   5.525   2.189  0.1536 -0.4129  0.3345
 1767TIP3    H126792   1.250   5.520   2.111 -0.7072 -0.9378  0.9635
 1767TIP3    H226793   1.386   5.479   2.164  0.5798  0.8771 -0.7835
 1768TIP3   OH226794   1.324   6.063  14.849 -0.6992  0.8694 -0.3405
 1768TIP3    H126795   1.385   6.022  14.788  0.5948 -0.8829  1.9655
 1768TIP3    H226796   1.238   6.037  14.818 -0.1097  0.1890 -1.5040
 1769TIP3   OH226797   6.039   5.536   4.465 -0.4372 -0.3329  0.0634
 1769TIP3    H126798   6.054   5.536   4.560  0.9369  3.1344 -0.0231
 1769TIP3    H226799   5.948   5.509   4.455 -0.8979  0.1425  2.4469
 1770TIP3   OH226800   0.694   3.273   4.129  0.5885  0.3015  0.2372
 1770TIP3    H126801   0.766   3.336   4.126  2.1705 -1.4287 -0.2134
 1770TIP3    H226802   0.661   3.270   4.039 -1.0499  2.0750  0.6922
 1771TIP3   OH226803   0.451   3.703   4.914 -0.2512 -0.3791 -0.4523
 1771TIP3    H126804   0.370   3.753   4.908 -0.4150 -0.6686 -0.6954
 1771TIP3    H226805   0.481   3.696   4.823  0.7139  0.8042 -0.2527
 1772TIP3   OH226806   0.121   0.958  13.495 -0.0632 -0.1116  0.2847
 1772TIP3    H126807   0.126   0.998  13.408  0.5751 -0.1801  0.2837
 1772TIP3    H226808   0.030   0.970  13.522 -0.9467 -2.2522 -1.4160
 1773TIP3   OH226809   2.260   5.626   2.835 -0.4332 -0.0583 -0.1852
 1773TIP3    H126810   2.268   5.691   2.765  1.0650 -0.5088 -0.4695
 1773TIP3    H226811   2.264   5.542   2.790 -0.8869 -0.3479  0.3107
 1774TIP3   OH226812   4.476   5.572  10.540  0.1299 -0.7201 -0.4447
 1774TIP3    H126813   4.560   5.605  10.510  0.0013 -1.5840 -1.8674
 1774TIP3    H226814   4.412   5.635  10.506  0.1815  0.0127  0.7539
 1775TIP3   OH226815   6.781   5.950  13.473 -0.2243  0.0277 -0.2486
 1775TIP3    H126816   6.860   5.922  13.427  0.0063 -0.6025  0.4939
 1775TIP3    H226817   6.709   5.915  13.421 -0.0037  0.2287 -0.6919
 1776TIP3   OH226818   4.270   1.517  12.417 -0.1306  0.4777  0.6293
 1776TIP3    H126819   4.233   1.489  12.334  2.3436  0.9724 -0.7343
 1776TIP3    H226820   4.208   1.582  12.451  0.0288  2.2085 -2.1234
 1777TIP3   OH226821   6.573   4.836  13.668  0.0034 -0.2117 -0.3380
 1777TIP3    H126822   6.541   4.813  13.756 -1.7614 -0.1815 -0.9277
 1777TIP3    H226823   6.649   4.891  13.684 -0.3725 -0.0892  1.1844
 1778TIP3   OH226824   0.558   1.092  10.916 -0.0010 -0.0839 -0.5900
 1778TIP3    H126825   0.586   1.183  10.907 -0.1226 -0.0395 -0.5208
 1778TIP3    H226826   0.620   1.042  10.862  2.0190 -0.3117  1.7524
 1779TIP3   OH226827   5.141   2.433  14.822 -0.7522  0.5064  0.2531
 1779TIP3    H126828   5.152   2.451  14.728  0.7983 -0.1795  0.2763
 1779TIP3    H226829   5.047   2.445  14.837 -1.7734 -2.7769 -2.1886
 1780TIP3   OH226830   5.048   5.166  14.969 -0.4576 -0.2041  0.4744
 1780TIP3    H126831   5.008   5.165  14.882  1.2204 -0.4864 -0.3191
 1780TIP3    H226832   5.069   5.258  14.984 -2.1419  0.1001  1.2962
 1781TIP3   OH226833   0.748   1.535  11.506  0.1475  0.2067 -0.1066
 1781TIP3    H126834   0.727   1.464  11.445 -0.5309 -1.3118  1.7846
 1781TIP3    H226835   0.670   1.543  11.561  0.9271  1.1690  0.9060
 1782TIP3   OH226836   2.112   0.097  17.164 -0.7462 -0.2229 -0.5133
 1782TIP3    H126837   2.203   0.119  17.144 -0.4156 -1.0698 -0.0117
 1782TIP3    H226838   2.063   0.177  17.146  0.0541  0.1593 -1.0638
 1783TIP3   OH226839   3.358   1.011   3.192  0.1008  0.4748  0.0733
 1783TIP3    H126840   3.440   1.060   3.192  0.7174 -0.5170  1.0652
 1783TIP3    H226841   3.366   0.952   3.267 -1.9480  1.0719  0.8235
 1784TIP3   OH226842   6.047   0.643  14.704  0.6997  0.2606  0.1746
 1784TIP3    H126843   5.989   0.597  14.765  0.0770 -0.9013 -1.2500
 1784TIP3    H226844   6.119   0.582  14.689 -0.1308 -0.3111 -1.7284
 1785TIP3   OH226845   2.757   2.242   2.462  0.0108  0.7636  0.0529
 1785TIP3    H126846   2.662   2.250   2.458  0.1531  3.2036 -0.2865
 1785TIP3    H226847   2.780   2.275   2.548  0.5966  1.3714 -0.3220
 1786TIP3   OH226848   5.068   0.168  11.064  0.2638 -0.2323 -0.0426
 1786TIP3    H126849   5.099   0.142  11.150  0.4800 -2.1064 -0.6375
 1786TIP3    H226850   4.994   0.226  11.081  1.9249  1.5653  1.3741
 1787TIP3   OH226851   4.668   4.355   5.546 -0.5941 -0.0574  0.5759
 1787TIP3    H126852   4.748   4.407   5.546 -0.1316 -0.6772 -1.3356
 1787TIP3    H226853   4.605   4.408   5.594  0.2070  1.7419 -0.2642
 1788TIP3   OH226854   6.123   1.347  15.150 -0.0749 -0.1866  0.6076
 1788TIP3    H126855   6.106   1.392  15.067 -0.2388  0.4742  0.9893
 1788TIP3    H226856   6.060   1.386  15.211  0.0776 -0.6336  1.0516
 1789TIP3   OH226857   4.221   1.035  11.279  0.4676 -0.2114  0.9071
 1789TIP3    H126858   4.147   1.001  11.228  1.3677 -1.0984  0.1542
 1789TIP3    H226859   4.233   1.125  11.248 -1.3457  0.5447  2.2429
 1790TIP3   OH226860   6.481   3.530  16.475  0.0626  0.1207 -0.1302
 1790TIP3    H126861   6.496   3.448  16.427 -2.9037 -1.0429  0.6508
 1790TIP3    H226862   6.467   3.502  16.565 -1.2467  1.4183  0.1047
 1791TIP3   OH226863   0.190   0.026  12.598  0.2281 -0.3586 -0.1820
 1791TIP3    H126864   0.273  -0.013  12.623 -0.3251 -0.2591  1.9634
 1791TIP3    H226865   0.209   0.119  12.587  0.7427 -0.5951 -1.5335
 1792TIP3   OH226866   2.771   1.014  16.612  0.7059 -0.4199 -0.1908
 1792TIP3    H126867   2.816   1.041  16.692  0.1097 -0.4320  0.1575
 1792TIP3    H226868   2.704   1.081  16.598  0.0184 -1.0532  0.0011
 1793TIP3   OH226869   5.577   0.927  17.024  0.2564  0.1759 -0.2542
 1793TIP3    H126870   5.579   0.988  16.950  1.1439  0.1641 -0.2439
 1793TIP3    H226871   5.527   0.973  17.091 -1.5690 -0.2648 -1.2363
 1794TIP3   OH226872   3.422   1.452   3.590 -0.0586  0.4161  0.3734
 1794TIP3    H126873   3.470   1.370   3.579  0.2408  0.6279  0.0814
 1794TIP3    H226874   3.386   1.471   3.504 -1.0868  0.0080  0.7031
 1795TIP3   OH226875   5.459   0.322   2.732 -0.3280 -0.2068 -0.5966
 1795TIP3    H126876   5.494   0.405   2.765 -0.6622 -0.5159  0.5581
 1795TIP3    H226877   5.451   0.336   2.637 -0.1905  1.0071 -0.4448
 1796TIP3   OH226878   2.807   0.239  16.288  0.1296 -0.3007  0.4533
 1796TIP3    H126879   2.722   0.196  16.284  0.4479 -1.2108  2.1930
 1796TIP3    H226880   2.848   0.220  16.204 -1.1064 -0.4683 -0.1243
 1797TIP3   OH226881   1.109   4.787  14.725 -0.1373 -0.4243 -0.4173
 1797TIP3    H126882   1.061   4.865  14.750  0.1762 -0.1615 -0.6287
 1797TIP3    H226883   1.066   4.757  14.645  0.0717 -0.1678 -0.6274
 1798TIP3   OH226884   4.811   6.554  15.256  0.5538  0.0131 -0.4521
 1798TIP3    H126885   4.833   6.647  15.257  0.5473  0.0117  0.1165
 1798TIP3    H226886   4.757   6.542  15.178  0.9562  0.3919 -0.7935
 1799TIP3   OH226887   3.815   4.023   2.104 -0.2006 -0.2573 -0.3122
 1799TIP3    H126888   3.871   3.946   2.113 -0.4954 -0.3447  0.8515
 1799TIP3    H226889   3.726   3.991   2.120 -0.4285  0.1661 -0.6935
 1800TIP3   OH226890   0.913   3.625   3.052  0.2887  0.3420  0.1369
 1800TIP3    H126891   0.963   3.700   3.084  1.3780  0.3107 -1.4080
 1800TIP3    H226892   0.829   3.661   3.025  0.5556  0.8954  0.0397
 1801TIP3   OH226893   5.495   6.441   2.701 -0.9855  0.0509 -0.2030
 1801TIP3    H126894   5.528   6.354   2.720 -3.1037 -0.6972  0.3333
 1801TIP3    H226895   5.495   6.447   2.606  0.4717  0.0309 -0.2229
 1802TIP3   OH226896   5.723   2.760  16.120  0.0435  0.0480 -0.1891
 1802TIP3    H126897   5.792   2.700  16.091 -1.1359 -0.5856 -1.8219
 1802TIP3    H226898   5.765   2.812  16.189  2.5300  0.5340 -1.9108
 1803TIP3   OH226899   0.037   1.903  16.040 -0.1412 -0.1976  0.2721
 1803TIP3    H126900   0.028   1.910  16.135 -0.5878 -0.9746  0.2920
 1803TIP3    H226901   0.128   1.876  16.027 -0.6849 -2.4521  0.6375
 1804TIP3   OH226902   6.032   1.752   3.735  0.2737 -0.0679  0.6388
 1804TIP3    H126903   6.092   1.769   3.808 -1.0422 -1.1084  2.0007
 1804TIP3    H226904   5.945   1.759   3.772 -0.4603  0.1282 -1.0232
 1805TIP3   OH226905   3.681   2.089   5.350 -0.3080 -0.0374 -0.1131
 1805TIP3    H126906   3.676   2.141   5.430 -0.0556  0.5928 -0.4954
 1805TIP3    H226907   3.592   2.095   5.313  0.5057  3.2080 -2.0123
 1806TIP3   OH226908   2.705   5.226  15.549  0.3316  0.3950 -0.2223
 1806TIP3    H126909   2.677   5.295  15.608  0.0626 -0.6696  0.9342
 1806TIP3    H226910   2.764   5.172  15.601  1.8712  0.6751 -1.6070
 1807TIP3   OH226911   5.932   3.491   5.451  0.1251  0.0912  0.0974
 1807TIP3    H126912   5.880   3.501   5.531 -2.0493 -1.4735 -1.0042
 1807TIP3    H226913   5.998   3.425   5.473 -1.1188 -1.1172  0.3674
 1808TIP3   OH226914   6.166   1.513  13.283  0.9763 -0.3899 -0.2073
 1808TIP3    H126915   6.123   1.474  13.359  0.1210 -0.1542 -0.5612
 1808TIP3    H226916   6.102   1.506  13.213  1.7755 -0.6301 -0.9201
 1809TIP3   OH226917   0.705   4.307  13.289  0.1376  0.5896 -0.1439
 1809TIP3    H126918   0.702   4.321  13.194  1.1400  0.4700 -0.1956
 1809TIP3    H226919   0.647   4.375  13.325 -3.2793 -1.5609 -1.0261
 1810TIP3   OH226920   5.641   3.492   2.797  0.1910  0.0569 -0.4179
 1810TIP3    H126921   5.678   3.481   2.709  0.1639  1.9629 -0.6984
 1810TIP3    H226922   5.564   3.547   2.784  0.9646  1.5281  0.9416
 1811TIP3   OH226923   5.287   6.553  13.844  0.1638  0.2004 -0.2265
 1811TIP3    H126924   5.250   6.515  13.923  1.1685 -0.1107  0.1055
 1811TIP3    H226925   5.246   6.504  13.772  2.3689 -2.5000  0.2042
 1812TIP3   OH226926   0.586   0.950   2.762 -0.3647 -0.4349  0.5834
 1812TIP3    H126927   0.565   0.879   2.824 -0.9478  0.2260  1.1680
 1812TIP3    H226928   0.658   0.915   2.709 -1.7945 -2.1401 -0.3366
 1813TIP3   OH226929   4.523   0.112  14.613  0.8989 -0.1092  1.0587
 1813TIP3    H126930   4.613   0.082  14.620  0.4878 -1.9858 -0.7238
 1813TIP3    H226931   4.474   0.036  14.581 -0.8650  1.5539 -0.4655
 1814TIP3   OH226932   1.406   0.817   2.771  0.0220  0.3502  0.1326
 1814TIP3    H126933   1.431   0.826   2.679  0.5423  1.2479  0.3459
 1814TIP3    H226934   1.339   0.883   2.785  0.0073  0.2767  0.4176
 1815TIP3   OH226935   3.146   4.475   5.873 -0.5764 -0.2039  0.9249
 1815TIP3    H126936   3.129   4.446   5.962 -0.7529  0.0330  0.9707
 1815TIP3    H226937   3.063   4.513   5.844 -0.2637  0.5283  0.9771
 1816TIP3   OH226938   3.769   0.751   5.289  0.3082 -0.2572  0.0934
 1816TIP3    H126939   3.749   0.726   5.199 -0.4272 -0.7167  0.3806
 1816TIP3    H226940   3.860   0.723   5.302  0.4364 -0.1356 -0.5208
 1817TIP3   OH226941   3.491   4.670   2.328  0.6294 -0.0562 -0.5548
 1817TIP3    H126942   3.461   4.582   2.350 -1.2341  0.4671 -0.8636
 1817TIP3    H226943   3.461   4.685   2.239  2.0082  0.4481 -0.9604
 1818TIP3   OH226944   4.188   4.509  15.597  0.3468  0.3056  0.4083
 1818TIP3    H126945   4.177   4.521  15.691  0.5686 -0.4442  0.5377
 1818TIP3    H226946   4.139   4.429  15.578 -0.0158  0.6603 -0.1843
 1819TIP3   OH226947   0.518   5.800  13.743  0.5598 -0.5299 -0.2424
 1819TIP3    H126948   0.542   5.887  13.776  0.9011  0.0874 -1.9856
 1819TIP3    H226949   0.602   5.761  13.717  0.3873 -1.3152  0.3820
 1820TIP3   OH226950   5.546   2.899   0.074 -0.0630 -0.2174  0.1631
 1820TIP3    H126951   5.463   2.863   0.043 -1.1881  1.1260  1.3913
 1820TIP3    H226952   5.612   2.835   0.049 -1.6575 -2.0333  0.3723
 1821TIP3   OH226953   2.598   2.541   2.918  0.1362 -0.3310  0.6683
 1821TIP3    H126954   2.506   2.568   2.924  0.1960  0.0067  0.1666
 1821TIP3    H226955   2.633   2.554   3.006  0.1528  1.2011  0.4636
 1822TIP3   OH226956   4.126   2.246  13.528 -0.4271  0.1692  0.4821
 1822TIP3    H126957   4.200   2.306  13.521 -0.4721  0.3907  1.5801
 1822TIP3    H226958   4.068   2.270  13.456  0.6954 -0.2045 -0.5624
 1823TIP3   OH226959   0.839   5.117   4.733 -0.1042  0.3442 -0.8030
 1823TIP3    H126960   0.910   5.056   4.752  0.8057  0.8880 -2.3141
 1823TIP3    H226961   0.768   5.061   4.701 -0.1533 -0.1361  0.1052
 1824TIP3   OH226962   5.330   3.835  12.508  0.1872  0.3768  0.4053
 1824TIP3    H126963   5.362   3.913  12.462  0.6126 -0.9145 -1.5983
 1824TIP3    H226964   5.409   3.787  12.533 -0.0958  0.0106  0.6151
 1825TIP3   OH226965   0.210   1.230  11.287 -0.1202  0.2556 -0.1581
 1825TIP3    H126966   0.281   1.290  11.265 -1.0391  1.3202 -0.3272
 1825TIP3    H226967   0.219   1.158  11.226 -0.8839  1.7650 -2.1621
 1826TIP3   OH226968   5.804   4.154   5.207 -0.5224  0.6299 -0.4710
 1826TIP3    H126969   5.847   4.214   5.145 -0.0347  0.7401 -0.0282
 1826TIP3    H226970   5.876   4.104   5.245 -0.6257  1.7575  1.2927
 1827TIP3   OH226971   0.028   2.539   6.030  0.1111  0.2456  0.0411
 1827TIP3    H126972  -0.059   2.563   6.063  0.7940  0.6792  1.6195
 1827TIP3    H226973   0.032   2.580   5.943 -1.1838  0.3666  0.0093
 1828TIP3   OH226974   2.136   0.891  16.314 -0.3871  0.1367  0.1852
 1828TIP3    H126975   2.129   0.856  16.403  0.6752 -1.1052 -0.1967
 1828TIP3    H226976   2.150   0.814  16.258 -2.0309  0.7875 -1.2050
 1829TIP3   OH226977   0.787   2.720  14.469  0.1422  0.5933 -0.3878
 1829TIP3    H126978   0.803   2.626  14.471  0.2868  0.6159 -0.5158
 1829TIP3    H226979   0.734   2.737  14.547 -0.7523  0.2412 -0.8980
 1830TIP3   OH226980   1.932   4.615  16.381 -0.0714 -0.0441  0.1417
 1830TIP3    H126981   1.920   4.607  16.286 -0.9190  2.3486 -0.0305
 1830TIP3    H226982   1.858   4.568  16.419 -0.5572  0.2310 -0.4464
 1831TIP3   OH226983   0.838   3.687   5.373 -0.0720  0.0937  0.4191
 1831TIP3    H126984   0.858   3.740   5.295  1.0124 -1.4485 -0.3854
 1831TIP3    H226985   0.755   3.645   5.352  1.5787 -2.6321 -1.2751
 1832TIP3   OH226986   5.692   1.942  12.206 -0.2132  0.4219  0.6727
 1832TIP3    H126987   5.655   2.029  12.220 -1.9486 -0.2647  0.6311
 1832TIP3    H226988   5.616   1.886  12.193  0.9247 -0.8233 -0.9716
 1833TIP3   OH226989   0.950   4.956  15.321 -0.0174  0.1534 -0.4079
 1833TIP3    H126990   0.879   4.990  15.266  0.4054 -1.0427 -1.7446
 1833TIP3    H226991   0.998   5.034  15.349  0.5191  0.7846 -2.8161
 1834TIP3   OH226992   1.512   3.108   3.840  0.1961  0.4523  0.4245
 1834TIP3    H126993   1.433   3.154   3.868 -1.0333 -1.8994  1.0365
 1834TIP3    H226994   1.576   3.125   3.909 -0.9164 -0.4268  1.7099
 1835TIP3   OH226995   2.360   1.029  14.532  0.1130  0.0623 -0.3358
 1835TIP3    H126996   2.319   1.056  14.614  1.1500 -0.6225  0.4474
 1835TIP3    H226997   2.293   1.042  14.465  0.2909  3.9680 -0.0017
 1836TIP3   OH226998   5.815   5.715   2.807  0.4637 -0.5688 -0.0119
 1836TIP3    H126999   5.827   5.793   2.753 -0.7358  0.6348  1.3605
 1836TIP3    H227000   5.767   5.654   2.751 -1.9271  1.1435  0.0197
 1837TIP3   OH227001   3.832   0.609  16.336  0.3131  0.1274 -0.1373
 1837TIP3    H127002   3.822   0.526  16.382  1.2630  0.5637  0.9215
 1837TIP3    H227003   3.870   0.586  16.252  0.2691 -0.5338  0.0158
 1838TIP3   OH227004   3.990   5.513   0.598  0.2198  0.6203 -0.6839
 1838TIP3    H127005   4.053   5.482   0.663 -1.9520 -0.5764  1.0024
 1838TIP3    H227006   3.925   5.443   0.592 -1.2342  1.9924 -1.9107
 1839TIP3   OH227007   6.197   3.734   2.115 -0.1893 -0.3529  0.5458
 1839TIP3    H127008   6.142   3.656   2.125 -0.8707  0.1430  0.7498
 1839TIP3    H227009   6.220   3.735   2.022 -1.4250  0.0161  0.2319
 1840TIP3   OH227010   2.848   2.318  13.116 -0.5421  0.6281  0.4038
 1840TIP3    H127011   2.778   2.296  13.178  1.5015  1.2104  3.1490
 1840TIP3    H227012   2.883   2.233  13.089 -1.8871  0.3495 -0.5609
 1841TIP3   OH227013   4.045   1.986  13.632  0.6651 -0.1429  0.5551
 1841TIP3    H127014   4.036   2.079  13.610  0.6773  0.0547  1.3549
 1841TIP3    H227015   4.136   1.965  13.614  0.4913 -0.1881 -0.3072
 1842TIP3   OH227016   2.696   3.874  14.605 -0.0127 -0.0320 -0.3644
 1842TIP3    H127017   2.604   3.869  14.628 -0.4129 -0.2101 -1.8707
 1842TIP3    H227018   2.729   3.785  14.615 -0.0205  0.0117  0.0688
 1843TIP3   OH227019   4.406   3.216  11.758 -0.0858 -0.1659  0.3462
 1843TIP3    H127020   4.318   3.255  11.759 -1.0620 -2.2380  1.4972
 1843TIP3    H227021   4.465   3.291  11.773 -1.3455  1.7002 -2.9551
 1844TIP3   OH227022   5.485   3.295  13.402  0.3825  0.2270  0.1139
 1844TIP3    H127023   5.560   3.299  13.343  0.8738  1.8018  0.7801
 1844TIP3    H227024   5.517   3.245  13.478 -0.2403 -1.7679 -0.8800
 1845TIP3   OH227025   0.405   5.569  13.072 -0.0101  0.6618  0.2584
 1845TIP3    H127026   0.440   5.487  13.108  0.8268 -0.0478 -2.0055
 1845TIP3    H227027   0.342   5.541  13.006  0.2399  1.8251 -0.5067
 1846TIP3   OH227028   0.455   0.348   6.783 -0.7449 -0.1068  0.1058
 1846TIP3    H127029   0.544   0.382   6.783 -0.7133 -0.1698  1.1602
 1846TIP3    H227030   0.466   0.253   6.776 -0.7662 -0.0640 -0.6085
 1847TIP3   OH227031   4.155   2.870   4.662 -0.3072 -0.1775  0.2333
 1847TIP3    H127032   4.154   2.813   4.739  0.0055 -1.1343 -0.4613
 1847TIP3    H227033   4.086   2.934   4.679 -1.5422 -1.5117  0.4607
 1848TIP3   OH227034   0.142   5.705   1.244 -0.0097  0.3220  0.4197
 1848TIP3    H127035   0.202   5.630   1.256  0.7617  0.7101 -0.8422
 1848TIP3    H227036   0.200   5.781   1.239 -0.7943  1.0417  1.7732
 1849TIP3   OH227037   4.951   5.379   4.262 -0.5661  0.3205 -0.1556
 1849TIP3    H127038   4.938   5.293   4.302  0.9307 -0.5485 -1.4240
 1849TIP3    H227039   5.037   5.373   4.221  0.0897  2.8349  0.7006
 1850TIP3   OH227040   3.755   2.768  13.080  0.2399 -0.1113  0.0556
 1850TIP3    H127041   3.820   2.710  13.120  2.3139  1.5690 -0.6613
 1850TIP3    H227042   3.687   2.779  13.147  2.1798  0.3873  2.0665
 1851TIP3   OH227043   1.788   2.210   1.607  0.2041 -0.4752 -0.4466
 1851TIP3    H127044   1.798   2.119   1.578  1.3626 -0.3208 -0.5408
 1851TIP3    H227045   1.717   2.245   1.553  0.7872 -0.8700 -1.4818
 1852TIP3   OH227046   4.245   0.155  16.166 -0.2828  0.1555  0.3831
 1852TIP3    H127047   4.252   0.241  16.209 -0.5774  0.0111  0.7247
 1852TIP3    H227048   4.229   0.176  16.074 -0.4091  0.4690  0.4751
 1853TIP3   OH227049   4.326   1.376   3.089 -0.9371 -0.1687  0.8285
 1853TIP3    H127050   4.310   1.470   3.080  0.6296  0.1220  0.7136
 1853TIP3    H227051   4.355   1.348   3.002 -0.4121 -0.5308  1.1128
 1854TIP3   OH227052   0.141   2.394  15.536 -0.0923 -0.0684 -0.2588
 1854TIP3    H127053   0.118   2.309  15.498 -0.2361 -0.2972  0.3285
 1854TIP3    H227054   0.229   2.413  15.503  0.7721 -1.3841  1.1746
 1855TIP3   OH227055   0.025   5.255  10.633  0.4639  0.4873  0.2202
 1855TIP3    H127056  -0.005   5.165  10.651 -0.2628  0.2216 -1.9999
 1855TIP3    H227057  -0.045   5.311  10.667  0.1130  0.1179  0.1211
 1856TIP3   OH227058   3.648   2.265   3.529  0.9227  0.1094  0.0008
 1856TIP3    H127059   3.738   2.255   3.561  0.4392  0.0104  1.3658
 1856TIP3    H227060   3.612   2.177   3.530  0.1060  0.4433  1.6262
 1857TIP3   OH227061   0.748   1.047   1.093 -0.0055  0.7631  0.5135
 1857TIP3    H127062   0.781   0.958   1.107 -0.9443  0.4884  1.0652
 1857TIP3    H227063   0.727   1.079   1.181 -2.1468  0.5409  0.1271
 1858TIP3   OH227064   2.070   0.987   1.456 -0.0926 -0.1744  0.1657
 1858TIP3    H127065   1.975   0.977   1.459 -0.0731 -0.3803  0.1109
 1858TIP3    H227066   2.084   1.081   1.440 -0.2870 -0.1540  0.1143
 1859TIP3   OH227067   5.365   2.693   0.434  0.4237 -0.1161  0.3194
 1859TIP3    H127068   5.423   2.666   0.505  0.0018 -0.4847  0.5256
 1859TIP3    H227069   5.354   2.615   0.381  0.1421 -0.0396  0.2624
 1860TIP3   OH227070   1.669   0.229   2.539  0.1401  0.3986 -0.1062
 1860TIP3    H127071   1.727   0.247   2.613  2.5169 -1.1849 -1.4767
 1860TIP3    H227072   1.668   0.311   2.490 -0.7754  1.1912  1.1545
 1861TIP3   OH227073   3.936   3.437   5.664 -0.4951 -0.5882 -0.0590
 1861TIP3    H127074   3.973   3.357   5.702 -1.6765 -0.4887  1.4027
 1861TIP3    H227075   3.891   3.407   5.585 -2.5430 -1.7741  1.4398
 1862TIP3   OH227076   5.041   0.739  14.820  0.1750  0.0157 -0.2030
 1862TIP3    H127077   5.056   0.724  14.914  1.2619  1.9546 -0.0044
 1862TIP3    H227078   4.948   0.761  14.814  0.1300  0.0217  0.4454
 1863TIP3   OH227079   4.443   3.101  12.034 -0.2980 -0.8010  0.0143
 1863TIP3    H127080   4.535   3.124  12.051 -0.9447  0.6067  1.9901
 1863TIP3    H227081   4.423   3.143  11.950  0.6345 -0.4102 -0.0241
 1864TIP3   OH227082   4.673   2.476  14.259 -0.5081  0.6505 -0.0800
 1864TIP3    H127083   4.710   2.534  14.193  1.5588 -0.8387 -0.3387
 1864TIP3    H227084   4.584   2.458  14.229 -0.1556  1.2969 -1.5820
 1865TIP3   OH227085   5.856   4.592  12.937  0.0163  0.2657 -0.3009
 1865TIP3    H127086   5.929   4.643  12.971  0.5354 -1.1225  0.7570
 1865TIP3    H227087   5.886   4.560  12.852 -0.6633  2.3888 -1.4286
 1866TIP3   OH227088   3.091   2.696   0.573 -0.1799  0.2771  0.4935
 1866TIP3    H127089   3.042   2.643   0.510 -0.0167  0.3829  0.2767
 1866TIP3    H227090   3.046   2.780   0.575 -0.6084  0.0430  1.0485
 1867TIP3   OH227091   6.564   2.771  14.888  0.7584 -0.0278  0.5734
 1867TIP3    H127092   6.596   2.749  14.976  1.5604 -2.9288 -0.3199
 1867TIP3    H227093   6.642   2.767  14.832 -0.1763 -1.5325 -0.7317
 1868TIP3   OH227094   6.201   1.556   2.763 -0.0175 -0.0192 -0.5229
 1868TIP3    H127095   6.147   1.493   2.716 -0.7856 -1.1919  1.7397
 1868TIP3    H227096   6.226   1.510   2.844  0.8313  1.9911  0.4343
 1869TIP3   OH227097   2.438   4.727  11.543  0.1454 -0.2002  0.6199
 1869TIP3    H127098   2.355   4.750  11.501 -0.0738 -2.3234 -0.2129
 1869TIP3    H227099   2.414   4.684  11.624  0.5181  1.0173  1.4111
 1870TIP3   OH227100   6.174   1.660   1.897  0.2602  0.4182  0.1401
 1870TIP3    H127101   6.236   1.683   1.966 -0.5167 -0.3890  1.1410
 1870TIP3    H227102   6.089   1.686   1.931 -0.2727 -1.0356 -0.0057
 1871TIP3   OH227103   5.590   1.693  16.734  0.1381 -0.1725 -0.3627
 1871TIP3    H127104   5.676   1.670  16.767  0.7646  0.8683 -1.2185
 1871TIP3    H227105   5.529   1.663  16.801  1.2327  0.0377  0.7425
 1872TIP3   OH227106   3.640   6.707  15.039 -0.0258 -0.1628 -0.0939
 1872TIP3    H127107   3.634   6.716  14.944  1.0720 -1.2159 -0.2758
 1872TIP3    H227108   3.630   6.797  15.072 -0.0049  0.2633 -1.2133
 1873TIP3   OH227109   0.675   3.186   4.641  0.6901 -0.1326 -0.1102
 1873TIP3    H127110   0.691   3.238   4.720  1.3616  0.5981 -0.7048
 1873TIP3    H227111   0.620   3.241   4.587  2.1055  0.3546 -1.1144
 1874TIP3   OH227112   5.490   1.763  13.740  0.9621  0.6505  0.2096
 1874TIP3    H127113   5.508   1.757  13.646  0.1692  0.2839  0.0736
 1874TIP3    H227114   5.550   1.831  13.771  2.8635 -0.7775 -0.1358
 1875TIP3   OH227115   1.176   3.484  14.413  0.7599 -0.2310  0.1363
 1875TIP3    H127116   1.214   3.572  14.414  1.4598 -0.5182 -0.3744
 1875TIP3    H227117   1.247   3.428  14.382 -0.3878 -0.6273 -1.9611
 1876TIP3   OH227118   5.281   0.404  12.547  0.3932 -0.7477 -0.1838
 1876TIP3    H127119   5.284   0.340  12.475  0.9787 -0.1067 -0.7453
 1876TIP3    H227120   5.216   0.468  12.519  1.9346  0.5167 -1.0506
 1877TIP3   OH227121   6.721   6.495  15.179  0.2554 -0.1925 -0.4133
 1877TIP3    H127122   6.691   6.446  15.256  0.3752  1.0347  0.4605
 1877TIP3    H227123   6.756   6.576  15.216 -1.8099  1.4899 -1.8825
 1878TIP3   OH227124   5.356   3.793   5.908  0.3141  0.2972 -0.0594
 1878TIP3    H127125   5.327   3.874   5.950  1.3065  0.3966  0.4481
 1878TIP3    H227126   5.343   3.725   5.974 -2.9508 -0.4702 -1.3032
 1879TIP3   OH227127   5.872   0.222  10.949  0.1387  0.2237 -0.1756
 1879TIP3    H127128   5.908   0.298  10.904 -0.5091  1.1741  0.8542
 1879TIP3    H227129   5.815   0.180  10.885  2.8318 -1.2468 -1.8036
 1880TIP3   OH227130   4.560   3.877  11.188  0.0382 -0.4429  0.3819
 1880TIP3    H127131   4.533   3.963  11.156  0.3224 -1.1374 -1.8660
 1880TIP3    H227132   4.527   3.874  11.278  0.5564  2.2444  0.7559
 1881TIP3   OH227133   3.401   1.722  16.321 -0.1067  0.7949 -0.1154
 1881TIP3    H127134   3.372   1.687  16.406  0.0339  1.1748  0.0915
 1881TIP3    H227135   3.322   1.762  16.284 -0.5228 -0.5867 -0.8038
 1882TIP3   OH227136   6.088   2.679  17.152  0.1040 -0.2323 -0.1758
 1882TIP3    H127137   6.041   2.606  17.112  2.4532 -1.9678  0.0213
 1882TIP3    H227138   6.082   2.663  17.246 -1.8537  1.5549  0.0999
 1883TIP3   OH227139   5.126   1.685   1.069  0.4367  0.4118 -0.0781
 1883TIP3    H127140   5.203   1.741   1.058  0.2076  0.6772 -0.3651
 1883TIP3    H227141   5.132   1.621   0.998 -0.4426  1.4220 -1.0971
 1884TIP3   OH227142   0.270   0.818  16.158 -0.1773  0.4537 -0.3398
 1884TIP3    H127143   0.335   0.753  16.128 -1.0453 -0.8911  0.5861
 1884TIP3    H227144   0.277   0.816  16.253 -0.5560  1.3970 -0.2887
 1885TIP3   OH227145   3.153   4.290   2.936  0.0838 -0.0376  0.0377
 1885TIP3    H127146   3.144   4.278   3.031 -1.8705  0.2519 -0.0838
 1885TIP3    H227147   3.131   4.382   2.922 -0.0922 -0.1993 -0.7518
 1886TIP3   OH227148   0.987   1.950  12.243  0.2204 -0.1303  0.5167
 1886TIP3    H127149   0.922   1.913  12.183 -0.5174  0.0356  1.1999
 1886TIP3    H227150   0.975   1.902  12.325  1.0190 -0.1513  0.6326
 1887TIP3   OH227151   5.941   5.480   3.616  0.6299  0.1652  0.0944
 1887TIP3    H127152   5.897   5.404   3.578  0.3662  0.6369 -0.5612
 1887TIP3    H227153   5.996   5.443   3.686  0.8225 -0.6729 -0.4808
 1888TIP3   OH227154   1.448   0.845   0.284 -0.0805 -0.4859 -0.3323
 1888TIP3    H127155   1.486   0.808   0.363  0.5408 -1.7534 -1.1943
 1888TIP3    H227156   1.378   0.785   0.260  0.3253 -0.6186 -1.2251
 1889TIP3   OH227157   3.092   1.681  11.651  0.1724 -0.5373  0.1063
 1889TIP3    H127158   3.007   1.693  11.607  0.3129  2.5930  0.4998
 1889TIP3    H227159   3.069   1.649  11.738 -0.4736 -1.1144 -0.2594
 1890TIP3   OH227160   2.582   1.725   6.697  0.1860 -0.5947  0.6034
 1890TIP3    H127161   2.584   1.720   6.602 -0.7748 -1.2481  0.6054
 1890TIP3    H227162   2.489   1.733   6.719  0.4651  0.6465  1.4462
 1891TIP3   OH227163   5.997   2.598  11.614 -0.2023  0.6369  0.0755
 1891TIP3    H127164   6.039   2.520  11.577 -0.9304 -0.4675  1.4653
 1891TIP3    H227165   6.068   2.660  11.627  0.6713 -0.4076  0.4282
 1892TIP3   OH227166   3.309   6.088   0.089  0.0048  0.2602  0.0824
 1892TIP3    H127167   3.278   6.035   0.163  0.2683  0.5142  0.3794
 1892TIP3    H227168   3.251   6.065   0.017 -0.8425  0.6770  0.6073
 1893TIP3   OH227169   4.351   0.368  15.155  0.3862  0.4218 -0.4613
 1893TIP3    H127170   4.262   0.373  15.122 -0.5054 -3.4218  0.7658
 1893TIP3    H227171   4.344   0.389  15.248  0.3893 -1.3566 -0.0211
 1894TIP3   OH227172   4.062   1.943  17.085  0.2237 -0.1003 -0.2717
 1894TIP3    H127173   4.064   1.911  17.175 -1.3862  0.6338  0.0539
 1894TIP3    H227174   4.027   2.032  17.091  0.2037  0.0108 -1.6149
 1895TIP3   OH227175   2.343   1.367  14.898  0.0165  0.1978  0.1130
 1895TIP3    H127176   2.439   1.366  14.899  0.0189  0.5956  0.5082
 1895TIP3    H227177   2.318   1.379  14.989 -0.4136 -0.0382  0.0252
 1896TIP3   OH227178   4.999   0.968   4.636 -0.1091  0.6809 -0.1572
 1896TIP3    H127179   4.987   0.978   4.542  0.6717 -0.0633 -0.3442
 1896TIP3    H227180   5.044   0.884   4.646  0.7336  1.2238  0.8047
 1897TIP3   OH227181   3.392   2.708   0.903 -0.6388  0.0905 -0.7323
 1897TIP3    H127182   3.421   2.720   0.812 -1.5785  1.5239 -0.8756
 1897TIP3    H227183   3.297   2.705   0.897 -0.7735  1.3676  0.2967
 1898TIP3   OH227184   5.222   0.113   0.611 -0.0045  0.1023 -0.1674
 1898TIP3    H127185   5.287   0.059   0.566  0.5525  0.8769 -0.3231
 1898TIP3    H227186   5.144   0.058   0.615  0.1920 -0.3006 -1.3298
 1899TIP3   OH227187   0.906   1.989   4.088  0.5906 -0.4574 -0.0932
 1899TIP3    H127188   0.865   2.075   4.094 -0.1131 -0.8524  1.1644
 1899TIP3    H227189   0.892   1.950   4.175 -1.4529 -2.8664 -1.3789
 1900TIP3   OH227190   4.381   2.241   5.356  0.0586 -0.1714  0.0318
 1900TIP3    H127191   4.472   2.230   5.385  0.3750  1.0144 -0.4365
 1900TIP3    H227192   4.383   2.320   5.302 -1.3718  0.2137  0.5059
 1901TIP3   OH227193   4.775   2.412  15.553 -0.0138 -0.1770  0.0911
 1901TIP3    H127194   4.689   2.451  15.538  0.3238  0.1888 -1.0110
 1901TIP3    H227195   4.827   2.440  15.477  0.7394 -1.3550  0.1508
 1902TIP3   OH227196   1.079   3.290   4.167  0.0296 -0.2838 -0.3003
 1902TIP3    H127197   1.123   3.256   4.245  2.4732 -0.0802 -1.4960
 1902TIP3    H227198   1.061   3.212   4.114  0.9711 -0.2023 -0.7635
 1903TIP3   OH227199   1.493   5.079  13.206 -0.6306  0.6215  0.4250
 1903TIP3    H127200   1.587   5.065  13.201 -0.5747  1.3990 -1.6306
 1903TIP3    H227201   1.455   5.003  13.161 -0.9086  1.0757 -0.1093
 1904TIP3   OH227202   6.575   6.312  11.419  0.8586  0.4338 -0.1818
 1904TIP3    H127203   6.657   6.267  11.398  1.3273  0.3170  1.7726
 1904TIP3    H227204   6.587   6.346  11.507 -0.3433  2.4836 -0.7321
 1905TIP3   OH227205   0.656   3.667  12.784  0.8004 -0.0224  0.0046
 1905TIP3    H127206   0.722   3.728  12.815  0.8700 -0.3486  0.5052
 1905TIP3    H227207   0.636   3.612  12.860 -0.1922  0.2006 -0.0895
 1906TIP3   OH227208   5.769   5.870  10.459 -0.5327  0.1419 -0.8222
 1906TIP3    H127209   5.801   5.789  10.420  0.9874  2.5791 -5.4242
 1906TIP3    H227210   5.848   5.915  10.488 -1.2246  0.5189  0.5190
 1907TIP3   OH227211   0.876   2.556   5.150  0.5350  0.0376 -0.0914
 1907TIP3    H127212   0.888   2.543   5.244  1.3952  0.4494 -0.1409
 1907TIP3    H227213   0.803   2.497   5.128  0.0951  0.1925  0.8853
 1908TIP3   OH227214   4.835   4.951   2.166  0.0496 -0.1425 -0.4980
 1908TIP3    H127215   4.879   4.948   2.251 -1.6639 -1.4503  0.4141
 1908TIP3    H227216   4.806   4.861   2.151  0.8719 -0.0763 -2.8112
 1909TIP3   OH227217   4.549   4.468  13.483  0.1444  0.5941  0.5208
 1909TIP3    H127218   4.559   4.446  13.576  0.7374 -0.4705  0.2240
 1909TIP3    H227219   4.564   4.385  13.438 -0.9833  0.9130 -0.4873
 1910TIP3   OH227220   4.145   1.507   1.423  0.5302  0.3017  0.4783
 1910TIP3    H127221   4.205   1.548   1.360  0.1971  0.3433  0.1871
 1910TIP3    H227222   4.110   1.581   1.474 -0.2996  0.4195 -0.2450
 1911TIP3   OH227223   2.799   1.703  16.428  1.1533  0.4417 -0.2336
 1911TIP3    H127224   2.706   1.718  16.409  0.8430 -1.5586 -0.5073
 1911TIP3    H227225   2.813   1.745  16.513 -0.1993  0.1294  0.1643
 1912TIP3   OH227226   2.509   0.804   3.012  0.0395  0.5009 -0.0534
 1912TIP3    H127227   2.544   0.731   2.962  4.4220  1.4196  1.2029
 1912TIP3    H227228   2.464   0.763   3.086  2.7736 -1.0572  0.8673
 1913TIP3   OH227229   4.514   0.025   0.417 -0.1684  0.1518 -0.6174
 1913TIP3    H127230   4.431   0.034   0.464  0.1580 -0.8362  0.1969
 1913TIP3    H227231   4.529  -0.070   0.414  1.1714  0.3365 -0.3026
 1914TIP3   OH227232   4.213   3.692   1.339 -0.2072 -0.0458  0.5509
 1914TIP3    H127233   4.258   3.649   1.266 -1.2233 -0.6598  0.2597
 1914TIP3    H227234   4.135   3.638   1.353 -0.9407  1.0822  0.9193
 1915TIP3   OH227235   0.599   0.286   5.123 -0.0166  1.0811  0.6503
 1915TIP3    H127236   0.542   0.238   5.064 -1.0492  0.7087  1.9170
 1915TIP3    H227237   0.666   0.222   5.149  1.0961  1.5492 -0.9204
 1916TIP3   OH227238   4.819   5.137  13.541 -0.0108  0.4425  0.0611
 1916TIP3    H127239   4.837   5.051  13.578 -0.4263 -1.2167 -3.2823
 1916TIP3    H227240   4.903   5.184  13.548  0.9680 -1.1763 -0.3467
 1917TIP3   OH227241   3.686   1.819  16.371  0.2669  0.0496  0.0109
 1917TIP3    H127242   3.600   1.784  16.347  1.6435 -3.0770 -0.8203
 1917TIP3    H227243   3.729   1.748  16.418  2.3301  1.6339  0.6819
 1918TIP3   OH227244   3.371   3.581   5.248 -0.1866 -0.3087  0.1921
 1918TIP3    H127245   3.383   3.645   5.318 -0.0252 -0.4616  0.3063
 1918TIP3    H227246   3.291   3.535   5.270 -0.1984 -0.2776  0.2143
 1919TIP3   OH227247   0.857   6.742   3.984  0.0211  0.3337  0.3017
 1919TIP3    H127248   0.809   6.692   3.918  0.4490  2.6415 -1.9296
 1919TIP3    H227249   0.792   6.802   4.021  0.6133  1.9841 -1.1896
 1920TIP3   OH227250   5.461   5.065  11.270  0.2090  0.2001  0.8414
 1920TIP3    H127251   5.524   5.124  11.313  0.6639  0.5072 -0.2151
 1920TIP3    H227252   5.514   5.016  11.207 -0.4812 -0.1009  0.4885
 1921TIP3   OH227253   3.104   0.461  12.155 -0.1333  0.1221 -0.4277
 1921TIP3    H127254   3.171   0.394  12.166  0.6424  1.0207  0.5830
 1921TIP3    H227255   3.148   0.543  12.176 -1.2428  0.8742 -0.9299
 1922TIP3   OH227256   0.592   4.108   5.046 -0.1331  0.3677 -0.0159
 1922TIP3    H127257   0.545   4.087   5.127 -0.0583  0.5190  0.0672
 1922TIP3    H227258   0.663   4.165   5.074 -0.3923  0.8126 -0.2480
 1923TIP3   OH227259   2.216   3.684  14.790 -0.3095 -0.4799 -0.5505
 1923TIP3    H127260   2.279   3.715  14.725 -2.1109 -0.1751 -2.2641
 1923TIP3    H227261   2.269   3.646  14.859  1.7555  0.3167 -1.6097
 1924TIP3   OH227262   6.200   6.475   0.884 -0.1796 -0.0846 -0.3954
 1924TIP3    H127263   6.211   6.396   0.832 -0.3743 -0.4323  0.0830
 1924TIP3    H227264   6.121   6.460   0.935  1.2990 -0.8159  1.8467
 1925TIP3   OH227265   6.836   1.930  13.284  0.4671  0.1007  0.1822
 1925TIP3    H127266   6.773   1.881  13.336  0.8133 -0.1126  0.4059
 1925TIP3    H227267   6.887   1.863  13.238  0.7906  0.2567  0.3092
 1926TIP3   OH227268   3.446   2.947   3.117 -0.5077  0.4319 -0.1604
 1926TIP3    H127269   3.455   2.956   3.212  1.7879  0.5242 -0.3267
 1926TIP3    H227270   3.528   2.983   3.082 -0.5482 -1.2026 -2.0750
 1927TIP3   OH227271   2.110   6.298  16.084  0.2767 -0.3864 -0.2027
 1927TIP3    H127272   2.161   6.358  16.029  1.1812 -0.7958  0.1767
 1927TIP3    H227273   2.126   6.327  16.173  2.3093 -2.3202  0.1490
 1928TIP3   OH227274   4.067   3.245  17.160 -0.3077  0.2349  0.1907
 1928TIP3    H127275   4.086   3.152  17.173 -1.5585 -0.0175  0.3214
 1928TIP3    H227276   4.051   3.279  17.249 -0.2488  0.4863  0.1072
 1929TIP3   OH227277   1.178   0.335  14.773 -0.2654  0.4019 -0.2553
 1929TIP3    H127278   1.130   0.412  14.802  0.6875  0.7856  0.3765
 1929TIP3    H227279   1.257   0.370  14.731  0.9872 -0.1842  1.4723
 1930TIP3   OH227280   5.393   0.464   4.136  0.6282  0.1271  0.2648
 1930TIP3    H127281   5.414   0.418   4.217 -1.4263 -0.6522  0.3973
 1930TIP3    H227282   5.438   0.413   4.068 -1.4367 -2.0955  0.4300
 1931TIP3   OH227283   6.301   4.133  11.501 -0.1822  0.1128 -0.4237
 1931TIP3    H127284   6.315   4.065  11.435  0.1974 -0.6985  0.4717
 1931TIP3    H227285   6.207   4.133  11.517 -0.2444  0.1434 -0.7759
 1932TIP3   OH227286   1.010   4.113  16.390  0.3106  0.0905 -1.1962
 1932TIP3    H127287   0.926   4.125  16.434 -0.2042 -2.9120 -1.1708
 1932TIP3    H227288   1.071   4.090  16.460  0.0959 -2.0547 -1.6467
 1933TIP3   OH227289   3.248   2.950   3.460  0.0977 -0.6592 -0.1581
 1933TIP3    H127290   3.175   2.987   3.410  0.5161  1.6218  0.7969
 1933TIP3    H227291   3.212   2.935   3.548  0.1894 -1.7740 -0.2872
 1934TIP3   OH227292   4.189   5.691  16.047  0.2740  0.4424 -0.1085
 1934TIP3    H127293   4.280   5.663  16.050  0.3914  0.7125 -0.9689
 1934TIP3    H227294   4.188   5.766  15.987 -0.6553 -0.1799 -0.9214
 1935TIP3   OH227295   6.099   2.898   4.441 -0.5010 -0.5098  0.3057
 1935TIP3    H127296   6.078   2.897   4.348  0.0072  0.3474  0.1730
 1935TIP3    H227297   6.157   2.822   4.452  2.5608  1.4857 -0.8772
 1936TIP3   OH227298   5.242   2.141  16.762 -0.1061 -0.4042 -0.1783
 1936TIP3    H127299   5.172   2.199  16.794  0.0906  1.0335 -2.1919
 1936TIP3    H227300   5.249   2.073  16.830 -0.8537  1.4900  1.9284
 1937TIP3   OH227301   4.229   5.227  14.557  0.1161 -0.2615  0.0156
 1937TIP3    H127302   4.181   5.310  14.559 -1.9351 -1.3859  1.1680
 1937TIP3    H227303   4.306   5.245  14.503 -0.2112  2.3931  0.2919
 1938TIP3   OH227304   4.489   1.919   0.079  0.3234  0.2150  0.0957
 1938TIP3    H127305   4.477   1.952   0.169  1.9203 -0.8961  0.7425
 1938TIP3    H227306   4.562   1.969   0.045  1.2482 -0.9854  0.2642
 1939TIP3   OH227307   4.166   2.153  11.911  0.6556 -0.4180  0.1492
 1939TIP3    H127308   4.243   2.129  11.962 -0.3232  0.9720  2.4391
 1939TIP3    H227309   4.107   2.195  11.974 -0.6002  1.5825 -2.1696
 1940TIP3   OH227310   6.699   0.409   1.775  0.3758 -0.2065  0.6446
 1940TIP3    H127311   6.725   0.497   1.747 -0.7875  0.1395  0.5633
 1940TIP3    H227312   6.616   0.393   1.728 -0.5641 -0.4467  2.3031
 1941TIP3   OH227313   4.226   6.558  15.551  0.2460 -0.5074 -0.2142
 1941TIP3    H127314   4.149   6.590  15.598 -0.1634 -0.4800 -0.8954
 1941TIP3    H227315   4.294   6.622  15.572 -0.1418 -0.0654 -0.2856
 1942TIP3   OH227316   5.622   1.549   2.661 -0.0577  0.2987 -0.1013
 1942TIP3    H127317   5.690   1.607   2.697 -1.0112  0.5260  1.4047
 1942TIP3    H227318   5.545   1.605   2.653 -0.4873 -0.3237 -0.3594
 1943TIP3   OH227319   1.903   3.808   4.526 -0.0948  0.4326 -0.4983
 1943TIP3    H127320   1.954   3.801   4.445  1.2732  0.4445  0.3347
 1943TIP3    H227321   1.963   3.846   4.590 -0.5471 -1.2231  1.0169
 1944TIP3   OH227322   0.445   2.486   4.220  0.3019  0.3396 -0.4490
 1944TIP3    H127323   0.449   2.573   4.180  1.0729  0.4851 -0.0674
 1944TIP3    H227324   0.426   2.502   4.312 -0.0306  0.0796 -0.4721
 1945TIP3   OH227325   6.043   2.768   3.160  0.0472 -0.0160 -0.3479
 1945TIP3    H127326   5.992   2.837   3.118  0.0748  0.4542  0.3611
 1945TIP3    H227327   5.986   2.691   3.159 -0.7473  0.5417  0.5742
 1946TIP3   OH227328   1.775   4.667   1.134  0.2085  0.5575 -0.1677
 1946TIP3    H127329   1.745   4.597   1.191 -0.1993  1.0638  0.2471
 1946TIP3    H227330   1.698   4.692   1.083 -0.3032  2.2995  1.3540
 1947TIP3   OH227331   2.264   4.136   0.490  0.1240 -0.2515  0.0698
 1947TIP3    H127332   2.321   4.060   0.479  0.9964  0.5660 -1.2896
 1947TIP3    H227333   2.176   4.098   0.500  0.7464 -1.4803  1.0635
 1948TIP3   OH227334   3.853   1.383  14.761  0.1591  0.3946  0.0107
 1948TIP3    H127335   3.923   1.342  14.711  0.2403 -1.4478  1.5235
 1948TIP3    H227336   3.895   1.459  14.803  1.1835 -0.4540  0.5777
 1949TIP3   OH227337   6.591   2.236  10.840 -0.4811  0.1711  0.3933
 1949TIP3    H127338   6.622   2.318  10.879 -0.0953  0.8484 -1.2307
 1949TIP3    H227339   6.531   2.264  10.771 -1.2142 -0.9756  0.5367
 1950TIP3   OH227340   6.039   6.707  12.201  0.3084  0.1169  0.2453
 1950TIP3    H127341   5.945   6.709  12.220 -0.0552 -1.7348 -0.9939
 1950TIP3    H227342   6.043   6.703  12.105  1.5552 -1.4780  0.3254
 1951TIP3   OH227343   5.013   6.638   1.416 -0.0625 -0.8842 -0.3879
 1951TIP3    H127344   4.994   6.712   1.358 -0.5061  1.2936  2.3086
 1951TIP3    H227345   4.929   6.592   1.425 -0.3767 -0.2962 -0.2662
 1952TIP3   OH227346   4.325   6.431  12.787 -0.1327 -0.4039 -0.0756
 1952TIP3    H127347   4.411   6.395  12.810  0.0873 -0.3369 -0.7919
 1952TIP3    H227348   4.313   6.505  12.848  0.3934 -0.3039 -0.0909
 1953TIP3   OH227349   6.509   1.059   2.031 -0.5748 -0.4476 -0.1215
 1953TIP3    H127350   6.467   0.984   2.073 -0.0874 -1.3043 -1.1124
 1953TIP3    H227351   6.436   1.110   1.995 -0.8520 -1.2846 -0.7908
 1954TIP3   OH227352   2.765   1.968  13.565  0.0016 -0.1419 -0.4035
 1954TIP3    H127353   2.724   2.000  13.485  0.2957 -2.9905 -1.8258
 1954TIP3    H227354   2.692   1.934  13.617 -0.1099  1.0898  0.2937
 1955TIP3   OH227355   3.413   2.347  15.583  0.0564 -0.2260 -1.2387
 1955TIP3    H127356   3.475   2.332  15.655 -0.2107 -1.8189 -1.2960
 1955TIP3    H227357   3.423   2.439  15.561 -0.1337  0.4270  1.1059
 1956TIP3   OH227358   4.996   4.502   0.970  0.1545  0.1551 -0.3007
 1956TIP3    H127359   4.912   4.457   0.967  0.2328 -0.0905  0.9923
 1956TIP3    H227360   5.007   4.537   0.881 -0.4175 -1.4214 -1.0376
 1957TIP3   OH227361   2.775   5.772  16.577  0.0007  0.6344 -0.5889
 1957TIP3    H127362   2.716   5.697  16.580  0.8996 -0.0579  0.5393
 1957TIP3    H227363   2.724   5.841  16.534 -1.2564 -0.2480 -0.5573
 1958TIP3   OH227364   1.262   2.914   2.763  0.2761  0.0551  0.5059
 1958TIP3    H127365   1.315   2.897   2.840  0.2990  0.4061  0.5656
 1958TIP3    H227366   1.301   2.991   2.722  0.9972 -0.8185 -0.5158
 1959TIP3   OH227367   1.109   4.338  13.461 -0.7186 -0.3753  0.5086
 1959TIP3    H127368   1.062   4.416  13.490 -2.1537 -0.9844 -0.0344
 1959TIP3    H227369   1.181   4.328  13.523  0.7400  2.4580 -0.5340
 1960TIP3   OH227370   0.948   2.901  10.479  0.0138  0.3216 -0.4497
 1960TIP3    H127371   0.981   2.827  10.531  1.1364 -0.1099 -1.7210
 1960TIP3    H227372   0.856   2.907  10.503  0.1039 -0.9422  0.3375
 1961TIP3   OH227373   1.993   1.070   1.840 -0.4579 -0.0908 -0.6494
 1961TIP3    H127374   1.954   1.127   1.907 -0.9096 -0.7582 -0.3347
 1961TIP3    H227375   2.080   1.107   1.826 -1.1486  1.3543 -1.2822
 1962TIP3   OH227376   5.146   1.315   0.962  0.1602  0.5485 -0.0636
 1962TIP3    H127377   5.210   1.324   0.892 -0.2086 -1.6558 -0.7574
 1962TIP3    H227378   5.065   1.352   0.926  0.9671  3.4755  0.8685
 1963TIP3   OH227379   0.408   0.615   3.653 -0.1139 -0.5069 -0.2123
 1963TIP3    H127380   0.393   0.531   3.698  0.5952 -0.2754  0.4796
 1963TIP3    H227381   0.502   0.629   3.660 -0.4111  1.1562  1.1976
 1964TIP3   OH227382   4.844   5.593  14.434  0.0988  0.0918 -0.0449
 1964TIP3    H127383   4.897   5.617  14.510  0.4011 -0.3285 -0.1183
 1964TIP3    H227384   4.851   5.667  14.375 -0.1832  0.4464  0.3603
 1965TIP3   OH227385   4.833   6.060  11.642 -0.1200 -0.0176  0.2530
 1965TIP3    H127386   4.915   6.035  11.599 -1.2371 -0.0962 -1.9894
 1965TIP3    H227387   4.781   5.980  11.643 -1.4883  0.7838 -1.6132
 1966TIP3   OH227388   5.703   6.161   3.205 -0.2351  0.5343  0.3711
 1966TIP3    H127389   5.694   6.066   3.200 -1.2332  0.5925  0.7867
 1966TIP3    H227390   5.797   6.176   3.214 -0.0030 -0.3700 -0.3848
 1967TIP3   OH227391   4.054   0.908  11.847  0.1158  0.0788 -0.0456
 1967TIP3    H127392   4.062   0.835  11.908  0.5058 -0.4232 -0.6845
 1967TIP3    H227393   4.013   0.977  11.898  2.2882  0.4012  1.3912
 1968TIP3   OH227394   4.745   4.666   2.087 -0.6502 -0.5781 -0.5048
 1968TIP3    H127395   4.806   4.598   2.116  2.1193  0.9971 -2.2435
 1968TIP3    H227396   4.660   4.639   2.123  1.2465 -2.1679  3.2479
 1969TIP3   OH227397   3.432   0.754   1.050 -0.4111  0.5616  0.1435
 1969TIP3    H127398   3.417   0.683   0.987  1.2629 -0.3573  0.6866
 1969TIP3    H227399   3.524   0.778   1.037 -0.4144  1.2846  1.3012
 1970TIP3   OH227400   5.313   1.130  12.387 -0.2581  0.4211 -0.0138
 1970TIP3    H127401   5.296   1.089  12.472  2.0220 -1.4108 -0.3393
 1970TIP3    H227402   5.313   1.224  12.405 -1.0800  0.1342  1.7193
 1971TIP3   OH227403   4.086   1.419   0.893  0.2536 -0.4051  0.1611
 1971TIP3    H127404   4.042   1.503   0.906 -1.1735 -0.8956 -1.2101
 1971TIP3    H227405   4.147   1.435   0.820  1.5582 -0.0359  1.2925
 1972TIP3   OH227406   6.744   3.083   0.473  0.7712  1.0846  1.0725
 1972TIP3    H127407   6.773   3.171   0.447  1.8776  1.1971  2.5500
 1972TIP3    H227408   6.785   3.024   0.411 -0.0134  1.5956  0.0385
 1973TIP3   OH227409   4.156   4.561  13.385 -0.2245 -0.2929  0.1670
 1973TIP3    H127410   4.131   4.634  13.328 -1.0584  0.8710  1.9315
 1973TIP3    H227411   4.073   4.528  13.420  0.2948 -0.2389  1.5386
 1974TIP3   OH227412   2.807   6.403  17.059  0.2139  0.3259  0.4435
 1974TIP3    H127413   2.896   6.381  17.087  0.1721  1.1602  1.2769
 1974TIP3    H227414   2.750   6.362  17.124  0.0807  1.5663  1.1313
 1975TIP3   OH227415   1.763   5.868   5.105  0.1760  0.0680 -0.0448
 1975TIP3    H127416   1.684   5.903   5.146 -0.5443 -1.3143 -0.1913
 1975TIP3    H227417   1.745   5.874   5.011 -1.7911 -4.2885 -0.1944
 1976TIP3   OH227418   0.585   0.760   3.407 -0.0068  0.3938 -0.1503
 1976TIP3    H127419   0.587   0.724   3.495 -2.6054 -0.1303 -0.2443
 1976TIP3    H227420   0.582   0.684   3.349  0.8565  0.7412 -0.6795
 1977TIP3   OH227421   1.621   5.253  14.435 -0.4022  0.3196 -0.2599
 1977TIP3    H127422   1.661   5.336  14.408 -0.2349  0.5263  0.5863
 1977TIP3    H227423   1.654   5.239  14.524 -2.2172  0.5231  0.4942
 1978TIP3   OH227424   1.286   0.158   2.400 -0.5228  0.4139  0.0896
 1978TIP3    H127425   1.208   0.166   2.455 -1.2707  0.0780 -0.8893
 1978TIP3    H227426   1.319   0.070   2.418  0.7922  1.2257  1.9535
 1979TIP3   OH227427   6.638   3.299  13.265 -0.0670 -0.3963  0.5070
 1979TIP3    H127428   6.715   3.242  13.264  1.5354  1.5860  1.7422
 1979TIP3    H227429   6.669   3.379  13.306 -2.7264  0.6553  0.6373
 1980TIP3   OH227430   4.714   5.132   0.936  0.4097  0.2165  0.9036
 1980TIP3    H127431   4.669   5.179   0.865  0.6584 -2.6710 -1.3591
 1980TIP3    H227432   4.647   5.120   1.003 -1.2786 -0.9077 -0.8706
 1981TIP3   OH227433   6.464   2.276   4.029 -0.2918  0.7091  0.2294
 1981TIP3    H127434   6.480   2.249   3.939 -1.6331  1.0139 -0.1090
 1981TIP3    H227435   6.423   2.199   4.070  0.7874  0.3755  0.7591
 1982TIP3   OH227436   4.186   6.265  16.360  0.8673  0.2859 -0.0874
 1982TIP3    H127437   4.218   6.176  16.344  1.3919  0.8250 -2.3562
 1982TIP3    H227438   4.247   6.301  16.423  0.5655 -0.9797  0.9818
 1983TIP3   OH227439   0.847   3.131   1.994  0.2019 -0.1233  0.6063
 1983TIP3    H127440   0.928   3.169   2.028  1.1016 -0.2259 -1.3087
 1983TIP3    H227441   0.874   3.050   1.950 -1.1980 -1.0989  1.4388
 1984TIP3   OH227442   4.729   4.676  13.780  0.0928 -0.0565  0.1248
 1984TIP3    H127443   4.650   4.721  13.811  0.9551 -0.2071  2.7839
 1984TIP3    H227444   4.700   4.587  13.761 -0.5185  0.0731  0.4326
 1985TIP3   OH227445   3.702   3.484  12.683 -0.1782 -0.2758 -0.0997
 1985TIP3    H127446   3.648   3.438  12.747 -2.1875  1.2902 -0.5689
 1985TIP3    H227447   3.695   3.576  12.706  0.9227  0.1252 -1.2246
 1986TIP3   OH227448   1.530   6.290   4.439  0.1478  0.1114 -0.1455
 1986TIP3    H127449   1.497   6.302   4.350 -3.6142 -2.2143  0.7151
 1986TIP3    H227450   1.599   6.225   4.430 -0.9104 -0.8954 -1.2979
 1987TIP3   OH227451   3.050   2.681   0.188 -0.8569 -0.3426  0.2399
 1987TIP3    H127452   3.002   2.763   0.194 -0.2263  0.0853 -0.4405
 1987TIP3    H227453   2.990   2.615   0.223 -1.7905  0.2261 -0.2765
 1988TIP3   OH227454   0.398   3.816   5.965 -0.4963 -0.3832 -0.4779
 1988TIP3    H127455   0.395   3.736   6.016  1.1941  0.5584  1.2019
 1988TIP3    H227456   0.344   3.878   6.014 -0.6506 -0.0823 -1.0120
 1989TIP3   OH227457   1.079   4.376  11.987  0.5071 -0.2701 -0.8384
 1989TIP3    H127458   1.114   4.396  11.900  1.7015  1.9107  0.0772
 1989TIP3    H227459   1.156   4.371  12.044 -0.3710  0.2317  0.4376
 1990TIP3   OH227460   0.631   1.031   3.969  0.0266 -0.9573  0.3850
 1990TIP3    H127461   0.558   1.068   4.019  0.3534  1.6277 -0.8795
 1990TIP3    H227462   0.598   1.024   3.880  1.2913  0.2827 -0.2064
 1991TIP3   OH227463   6.740   3.204  12.357 -0.0310  0.1261  0.1233
 1991TIP3    H127464   6.741   3.113  12.387  0.4592  0.2418  0.4709
 1991TIP3    H227465   6.782   3.253  12.428  2.5226  0.2235 -1.3261
 1992TIP3   OH227466   3.480   0.986  15.381  0.3985  0.2687 -0.0464
 1992TIP3    H127467   3.420   1.051  15.343 -0.3923 -0.1002  0.5420
 1992TIP3    H227468   3.454   0.903  15.340  1.0311  0.2250 -0.3702
 1993TIP3   OH227469   5.166   6.668  16.997  0.7021 -0.4383 -0.7808
 1993TIP3    H127470   5.210   6.726  16.936  1.1688  0.6131  0.5046
 1993TIP3    H227471   5.236   6.614  17.034  0.7402  0.2909  0.2533
 1994TIP3   OH227472   2.263   1.168   2.821 -0.0844 -0.5985  0.8194
 1994TIP3    H127473   2.330   1.132   2.880  0.5063  0.4642  0.8144
 1994TIP3    H227474   2.195   1.201   2.880  0.0167 -0.4825  0.8719
 1995TIP3   OH227475   3.348   5.384   4.912  0.2573 -0.2600  0.5433
 1995TIP3    H127476   3.419   5.421   4.859 -0.2533  0.1429  0.1230
 1995TIP3    H227477   3.272   5.385   4.853 -0.6489  1.3725  1.6500
 1996TIP3   OH227478   2.559   3.988  11.887  0.2918  0.1152 -0.0497
 1996TIP3    H127479   2.488   4.051  11.895 -1.1426 -1.6014  1.7346
 1996TIP3    H227480   2.589   3.975  11.977  2.4688  0.2838 -0.6869
 1997TIP3   OH227481   2.832   3.354   2.206  0.3051 -0.8846  0.0777
 1997TIP3    H127482   2.773   3.334   2.279 -0.6059 -0.7207 -0.5857
 1997TIP3    H227483   2.819   3.448   2.190  0.0995 -1.0240 -0.6174
 1998TIP3   OH227484   0.529   0.278  13.887 -0.1313 -0.1626  0.3695
 1998TIP3    H127485   0.462   0.284  13.955 -0.2866  1.3510  0.1163
 1998TIP3    H227486   0.491   0.221  13.820  0.2043 -2.0417  1.7122
 1999TIP3   OH227487   4.629   6.728  16.822 -0.1667 -0.2521  0.4586
 1999TIP3    H127488   4.720   6.710  16.845 -0.1547 -0.5007  0.2279
 1999TIP3    H227489   4.611   6.815  16.858 -0.4714 -1.0360  2.3127
 2000TIP3   OH227490   3.643   4.191  12.340 -0.0954 -0.0699  0.2288
 2000TIP3    H127491   3.651   4.255  12.411  0.2302 -0.3022  0.4019
 2000TIP3    H227492   3.593   4.119  12.378  1.1991 -0.7839  0.6378
 2001TIP3   OH227493   3.632   0.953  13.843  0.1224 -0.0189  0.2916
 2001TIP3    H127494   3.698   0.980  13.779 -3.2350  0.8452 -3.1043
 2001TIP3    H227495   3.614   1.032  13.894  0.1524  0.3148 -0.2160
 2002TIP3   OH227496   0.327   1.177  12.368  0.3959  0.3241 -0.2901
 2002TIP3    H127497   0.287   1.122  12.301  0.8219 -0.1168 -0.1882
 2002TIP3    H227498   0.260   1.242  12.389 -0.6300 -0.9465  0.5350
 2003TIP3   OH227499   0.569   1.009  15.657  0.0758  0.2140 -0.4020
 2003TIP3    H127500   0.553   0.924  15.616 -2.2239  0.8294 -0.9268
 2003TIP3    H227501   0.658   1.032  15.629 -0.0912 -0.9966 -2.1131
 2004TIP3   OH227502   3.371   3.253   5.365  0.5273  0.0910 -0.2847
 2004TIP3    H127503   3.417   3.170   5.374  0.1070  0.0316  1.9567
 2004TIP3    H227504   3.341   3.254   5.274  3.1765 -0.7505 -1.2735
 2005TIP3   OH227505   6.098   6.494  13.641  0.0474  0.0578  0.5380
 2005TIP3    H127506   6.027   6.556  13.626 -0.3332 -0.7087 -1.1497
 2005TIP3    H227507   6.088   6.429  13.571  1.6337 -0.7880  1.0352
 2006TIP3   OH227508   3.974   6.200   5.978  0.1530 -0.4183 -0.5894
 2006TIP3    H127509   3.951   6.126   6.032 -0.7535 -0.3959 -0.9193
 2006TIP3    H227510   4.006   6.267   6.039 -1.4342 -0.1659  0.0056
 2007TIP3   OH227511   5.714   3.456   3.081  0.4033 -0.2229  0.2493
 2007TIP3    H127512   5.687   3.477   2.992 -0.9210  0.9744  0.9102
 2007TIP3    H227513   5.647   3.494   3.137  0.8071 -1.6017  1.7511
 2008TIP3   OH227514   0.759   3.613   6.381  0.4122  0.2312  0.0779
 2008TIP3    H127515   0.695   3.667   6.335  1.1603  0.7572 -0.3674
 2008TIP3    H227516   0.707   3.566   6.446 -0.5772 -0.0987 -0.9095
 2009TIP3   OH227517   6.448   1.057  14.737  0.2049 -0.0459 -0.4400
 2009TIP3    H127518   6.404   0.977  14.710 -0.4211  0.8189 -2.1090
 2009TIP3    H227519   6.532   1.056  14.690  0.3854  0.0638 -0.1248
 2010TIP3   OH227520   1.549   2.355   1.496 -0.0801  0.9150 -0.2611
 2010TIP3    H127521   1.496   2.405   1.433 -0.8857 -0.1262 -0.4334
 2010TIP3    H227522   1.491   2.285   1.526  0.4706  1.0532  1.2355
 2011TIP3   OH227523   1.903   3.499   1.791  0.0450  0.3934  0.4561
 2011TIP3    H127524   1.875   3.446   1.716 -1.5284  0.5573  0.8959
 2011TIP3    H227525   1.908   3.436   1.864  2.1263  0.1202  0.1526
 2012TIP3   OH227526   0.887   6.416  16.458  0.0222 -0.3819 -0.1419
 2012TIP3    H127527   0.954   6.413  16.390  1.0037  0.3074  0.7689
 2012TIP3    H227528   0.810   6.376  16.417  0.7955 -0.6337 -1.4104
 2013TIP3   OH227529   4.818   1.353  15.529  0.4467  0.0346 -0.2675
 2013TIP3    H127530   4.850   1.273  15.570 -0.8936 -1.0582 -1.2637
 2013TIP3    H227531   4.729   1.332  15.501 -1.2027  2.8955  2.2767
 2014TIP3   OH227532   4.597   6.614   6.401  0.8620  0.1484 -0.2824
 2014TIP3    H127533   4.511   6.581   6.373  1.1717  0.1934 -1.3355
 2014TIP3    H227534   4.642   6.635   6.319  1.1101  2.1182  0.3120
 2015TIP3   OH227535   2.104   6.565  11.168 -0.1489 -0.2253  0.3446
 2015TIP3    H127536   2.102   6.553  11.263  1.7031  1.3348  0.6483
 2015TIP3    H227537   2.103   6.476  11.132 -1.4116 -0.8227  1.7782
 2016TIP3   OH227538   1.012   0.455   3.589 -0.3628  0.5775 -0.6347
 2016TIP3    H127539   1.076   0.516   3.624  2.3267 -1.1698 -2.1195
 2016TIP3    H227540   1.062   0.374   3.573 -2.7514 -0.6429 -2.6488
 2017TIP3   OH227541   4.484   5.859  16.566 -0.2945 -0.0248  0.5448
 2017TIP3    H127542   4.533   5.832  16.489 -0.8063 -3.0095  1.1233
 2017TIP3    H227543   4.550   5.892  16.626  0.6106 -0.9788  0.1060
 2018TIP3   OH227544   2.116   2.523  12.908 -0.7339 -0.1554 -0.0775
 2018TIP3    H127545   2.161   2.499  12.827 -2.3454  1.3946 -1.5238
 2018TIP3    H227546   2.092   2.615  12.896 -0.7019  0.2397  2.3408
 2019TIP3   OH227547   1.060   5.122  14.513  0.2224 -0.8011 -0.0505
 2019TIP3    H127548   1.048   5.054  14.580 -0.4582 -0.5306  0.1152
 2019TIP3    H227549   1.133   5.175  14.545 -1.3628  0.5520  1.5392
 2020TIP3   OH227550   2.281   6.004   5.051  0.0927  0.5740  0.7008
 2020TIP3    H127551   2.285   6.077   5.113  2.5167 -0.6971  2.1786
 2020TIP3    H227552   2.281   6.046   4.965 -2.0545  2.3489  1.4604
 2021TIP3   OH227553   1.248   1.718  15.418  0.4790  0.6979 -0.4828
 2021TIP3    H127554   1.259   1.743  15.509  3.0990  1.4908 -0.9343
 2021TIP3    H227555   1.268   1.624  15.416 -0.6888  0.4231 -0.1140
 2022TIP3   OH227556   3.177   4.376  15.605  0.3121 -0.1645 -0.8329
 2022TIP3    H127557   3.169   4.330  15.689 -0.2445 -2.6349 -2.1607
 2022TIP3    H227558   3.096   4.355  15.559  0.4165  1.5227 -1.8703
 2023TIP3   OH227559   4.266   0.026   4.058 -0.1906  0.5895 -0.4716
 2023TIP3    H127560   4.256   0.008   4.152  0.0874  1.8293 -0.1902
 2023TIP3    H227561   4.245   0.119   4.049  1.6180  0.9678 -1.3313
 2024TIP3   OH227562   1.677   1.234   4.714 -0.0071 -0.4352  0.3667
 2024TIP3    H127563   1.764   1.203   4.690 -0.0476 -0.2157 -0.0888
 2024TIP3    H227564   1.623   1.212   4.638 -0.6227 -1.6848  1.1370
 2025TIP3   OH227565   1.984   5.359   0.248 -0.1710 -0.0910  0.5071
 2025TIP3    H127566   1.940   5.326   0.326 -1.3972  0.0284 -0.1127
 2025TIP3    H227567   2.077   5.363   0.273 -0.1940 -2.3520  1.1649
 2026TIP3   OH227568   6.142   2.966  11.300 -0.1584 -0.4587  0.7251
 2026TIP3    H127569   6.152   2.997  11.210  0.2184  0.5259  1.0953
 2026TIP3    H227570   6.208   2.896  11.308  1.2290  0.8143  0.8332
 2027TIP3   OH227571   4.930   5.201  16.268 -0.6254  0.1974  0.0898
 2027TIP3    H127572   4.890   5.275  16.223 -0.2399  1.2991  1.4901
 2027TIP3    H227573   5.019   5.230  16.286 -0.4678 -0.6217  0.6615
 2028TIP3   OH227574   1.117   4.213   0.671  0.4233 -0.5098 -0.7856
 2028TIP3    H127575   1.155   4.197   0.584  2.7845 -0.0971  0.1145
 2028TIP3    H227576   1.175   4.168   0.731 -1.0675 -0.6097  0.6382
 2029TIP3   OH227577   5.785   1.630  17.135 -0.3962  0.0715  0.2332
 2029TIP3    H127578   5.878   1.609  17.131 -0.3484  0.2094  0.6184
 2029TIP3    H227579   5.743   1.547  17.161 -0.2229  0.3882  1.6014
 2030TIP3   OH227580   4.583   4.835  16.936 -0.7802 -0.5686 -0.1433
 2030TIP3    H127581   4.500   4.805  16.897 -0.3878 -2.2250  0.2215
 2030TIP3    H227582   4.611   4.763  16.992 -0.9151  1.4127  2.6634
 2031TIP3   OH227583   4.052   5.470  15.012 -0.2593 -0.0254  0.3633
 2031TIP3    H127584   4.048   5.385  14.968 -1.8142  0.2427 -0.0974
 2031TIP3    H227585   4.144   5.495  15.009  0.5317 -2.4043  1.9578
 2032TIP3   OH227586   4.214   1.701  16.226 -0.6022  0.5386 -0.5225
 2032TIP3    H127587   4.144   1.738  16.280 -0.3192  0.3225 -0.0114
 2032TIP3    H227588   4.289   1.694  16.284 -0.3888  0.0010 -0.8581
 2033TIP3   OH227589   3.364   4.411  13.194  0.0978  0.3739 -0.0784
 2033TIP3    H127590   3.437   4.384  13.250  1.1880 -1.1619 -2.0646
 2033TIP3    H227591   3.394   4.391  13.105 -2.7251 -0.2663 -0.9897
 2034TIP3   OH227592   1.379   6.285   3.833  0.1670  0.3099  0.1134
 2034TIP3    H127593   1.345   6.209   3.785 -1.2173  0.7850  0.3059
 2034TIP3    H227594   1.335   6.360   3.793 -2.3825  0.6094  3.1500
 2035TIP3   OH227595   6.260   5.606  16.905 -0.6853  0.2584  0.2183
 2035TIP3    H127596   6.340   5.655  16.885  1.2794 -2.2991  1.2763
 2035TIP3    H227597   6.263   5.530  16.847 -2.4788  0.1691  0.1764
 2036TIP3   OH227598   5.784   2.229   5.340  0.3926 -0.1361  0.3566
 2036TIP3    H127599   5.842   2.156   5.319 -0.7782 -1.5008  1.6921
 2036TIP3    H227600   5.746   2.253   5.256  1.1255 -0.7590 -0.1734
 2037TIP3   OH227601   0.047   5.213   0.424 -0.1547 -0.2637  0.0143
 2037TIP3    H127602  -0.002   5.268   0.485 -0.4280  0.8507 -1.1591
 2037TIP3    H227603   0.096   5.276   0.371  0.7655 -1.2530 -0.3352
 2038TIP3   OH227604   4.828   3.571   6.127  0.4526  0.5414 -0.4026
 2038TIP3    H127605   4.851   3.621   6.205  0.0665 -1.2587  0.9468
 2038TIP3    H227606   4.911   3.556   6.082  1.4063 -1.8947  1.9208
 2039TIP3   OH227607   1.989   0.423   4.152  0.4882  0.5304  0.3634
 2039TIP3    H127608   1.930   0.436   4.078 -0.0015 -0.0182  0.6513
 2039TIP3    H227609   2.037   0.344   4.130  0.9780  0.8621  0.2255
 2040TIP3   OH227610   6.244   1.605   4.548  0.1302  0.1291 -0.3317
 2040TIP3    H127611   6.325   1.594   4.598 -0.2849 -2.5551 -0.0540
 2040TIP3    H227612   6.177   1.562   4.603 -1.7184  2.9933 -0.1429
 2041TIP3   OH227613   5.925   4.755   1.963  0.2241 -0.4645 -0.0912
 2041TIP3    H127614   5.898   4.762   1.871  0.8641 -1.2984 -0.3588
 2041TIP3    H227615   5.923   4.844   1.996  1.1195  0.0032 -1.2514
 2042TIP3   OH227616   3.197   2.157  12.067 -0.1003  0.1107  0.6214
 2042TIP3    H127617   3.123   2.099  12.048 -1.3892  1.3187  1.7407
 2042TIP3    H227618   3.265   2.129  12.006 -1.3950 -1.1663 -0.3238
 2043TIP3   OH227619   0.015   2.938  11.479  0.2405  0.3735 -0.4559
 2043TIP3    H127620  -0.009   2.856  11.437 -0.0598 -0.0551  0.5315
 2043TIP3    H227621   0.089   2.971  11.427  0.8190 -0.8696 -0.4534
 2044TIP3   OH227622   0.188   6.114   1.258 -0.5007 -0.3249 -0.4593
 2044TIP3    H127623   0.217   6.199   1.226 -0.4910  0.0365  0.4877
 2044TIP3    H227624   0.238   6.051   1.206  0.4075  0.2574 -0.3201
 2045TIP3   OH227625   6.024   0.621   5.908  0.6692 -0.0377 -0.0978
 2045TIP3    H127626   6.049   0.711   5.888  3.3345 -0.1169  2.1942
 2045TIP3    H227627   6.028   0.616   6.003 -1.7821 -2.0302  0.0093
 2046TIP3   OH227628   3.647   2.634   1.233 -0.1723 -0.3439 -0.1155
 2046TIP3    H127629   3.678   2.621   1.322  1.3747  0.2225 -0.5392
 2046TIP3    H227630   3.570   2.690   1.243  1.6437  2.2033  0.7445
 2047TIP3   OH227631   4.786   2.335   1.863  0.2727 -0.4634  0.6316
 2047TIP3    H127632   4.744   2.293   1.788 -0.6192 -0.3818  1.0623
 2047TIP3    H227633   4.834   2.265   1.907  1.0608 -0.4477 -0.1740
 2048TIP3   OH227634   5.794   0.741  15.174  0.4486 -0.2325 -0.1303
 2048TIP3    H127635   5.827   0.750  15.263 -1.0891  1.5439  0.3244
 2048TIP3    H227636   5.741   0.662  15.176 -0.9331  0.6878  1.0185
 2049TIP3   OH227637   3.453   5.136   5.054 -0.1699 -0.1525 -0.3533
 2049TIP3    H127638   3.455   5.041   5.053  1.2454 -0.1742  0.8833
 2049TIP3    H227639   3.375   5.159   5.004 -0.6223 -1.9512 -0.5441
 2050TIP3   OH227640   0.961   0.546   1.657  0.0611  0.3840 -0.0064
 2050TIP3    H127641   0.912   0.617   1.617  1.2765  0.7377 -0.9143
 2050TIP3    H227642   1.048   0.551   1.618  1.8886  1.7406  3.7981
 2051TIP3   OH227643   6.490   6.695   2.120 -0.7981 -0.4234  0.3032
 2051TIP3    H127644   6.495   6.710   2.026  1.4559 -0.3381  0.3885
 2051TIP3    H227645   6.430   6.621   2.130 -0.8886 -0.5790 -1.2144
 2052TIP3   OH227646   0.604   2.055  16.266 -0.1195  0.3442 -0.3905
 2052TIP3    H127647   0.640   1.989  16.325 -1.6445 -0.2438 -0.0718
 2052TIP3    H227648   0.665   2.058  16.193  0.1080 -1.2517 -0.2981
 2053TIP3   OH227649   5.618   1.432  13.075 -0.2518 -0.5212 -0.1184
 2053TIP3    H127650   5.604   1.353  13.023 -0.2253  0.0940 -1.0843
 2053TIP3    H227651   5.688   1.479  13.028 -2.4946  1.6696 -1.4779
 2054TIP3   OH227652   4.840   5.241   2.723  0.0655  0.1413  0.4014
 2054TIP3    H127653   4.872   5.161   2.765 -0.5858  0.3176  1.2682
 2054TIP3    H227654   4.834   5.218   2.630 -0.2777 -0.8793  0.6585
 2055TIP3   OH227655   5.492   4.382   5.977  0.1325  0.0171  0.3026
 2055TIP3    H127656   5.510   4.445   6.047 -0.4767  2.2468 -1.4377
 2055TIP3    H227657   5.428   4.322   6.014  1.6051 -0.3724  2.4088
 2056TIP3   OH227658   5.886   3.974  11.706  0.4192  0.6621  0.0476
 2056TIP3    H127659   5.817   3.935  11.651  1.0168 -1.5247  0.7541
 2056TIP3    H227660   5.840   4.005  11.784 -0.0114  0.9315 -0.3101
 2057TIP3   OH227661   2.879   6.420   2.925 -0.0717  0.5411  0.2486
 2057TIP3    H127662   2.843   6.393   2.840 -1.1654  0.0838  0.8389
 2057TIP3    H227663   2.973   6.426   2.910 -0.1723 -0.2523 -0.8042
 2058TIP3   OH227664   1.867   2.038  16.858  0.1684  0.2435  0.2088
 2058TIP3    H127665   1.926   1.968  16.834  0.9099  0.7625  0.4840
 2058TIP3    H227666   1.789   2.024  16.805  0.4416 -0.5866  0.0224
 2059TIP3   OH227667   0.525   4.547  11.712 -0.2244 -0.5342 -0.1715
 2059TIP3    H127668   0.452   4.580  11.660  0.9201  0.3886 -1.2535
 2059TIP3    H227669   0.580   4.500  11.650 -0.0584 -1.5254  0.6950
 2060TIP3   OH227670   5.605   2.860  10.726 -0.2294 -0.0997 -0.0355
 2060TIP3    H127671   5.591   2.775  10.767  1.6031 -0.6296 -0.3864
 2060TIP3    H227672   5.521   2.882  10.686 -0.1827 -2.8865 -1.9728
 2061TIP3   OH227673   2.570   0.081  16.250  0.3116 -0.6711 -0.4581
 2061TIP3    H127674   2.515   0.038  16.316 -0.3690  2.2828  1.1270
 2061TIP3    H227675   2.530   0.059  16.167  1.3245 -4.7323 -0.0472
 2062TIP3   OH227676   4.988   6.335  14.981 -0.2319  0.6008 -0.1391
 2062TIP3    H127677   4.941   6.381  14.912 -0.0041  0.8214 -0.1474
 2062TIP3    H227678   4.979   6.391  15.058 -0.3900  0.4096 -0.0170
 2063TIP3   OH227679   6.598   6.341  15.953 -0.3616  0.0626 -0.2209
 2063TIP3    H127680   6.508   6.371  15.966 -0.7633 -1.0805 -0.2323
 2063TIP3    H227681   6.615   6.283  16.028  0.5032  0.5387 -0.0248
 2064TIP3   OH227682   3.520   1.741  13.914  0.2385  0.6032  0.0215
 2064TIP3    H127683   3.471   1.661  13.898  0.1608  0.2468  1.8390
 2064TIP3    H227684   3.482   1.805  13.853 -2.1724  0.2136  1.0172
 2065TIP3   OH227685   5.852   2.279  14.134  0.1031  0.1168 -0.0949
 2065TIP3    H127686   5.900   2.197  14.137  1.8986  1.1347  0.9859
 2065TIP3    H227687   5.916   2.345  14.159 -1.7287  1.6496  0.8313
 2066TIP3   OH227688   1.783   3.184   5.024 -0.7181  0.2047  0.7420
 2066TIP3    H127689   1.822   3.173   4.937 -0.4684  0.4937  0.8163
 2066TIP3    H227690   1.847   3.147   5.084 -0.9059 -0.0261  0.8018
 2067TIP3   OH227691   0.781   0.437   2.917 -0.0767 -0.2629 -0.2216
 2067TIP3    H127692   0.792   0.505   2.850 -1.0943 -1.8269 -2.0842
 2067TIP3    H227693   0.765   0.357   2.867 -0.2938 -1.6224  1.9168
 2068TIP3   OH227694   0.841   5.013  11.047 -0.1853 -0.3980 -0.4352
 2068TIP3    H127695   0.846   5.069  10.969 -0.1624 -0.7592 -0.6949
 2068TIP3    H227696   0.824   5.074  11.119  3.0511  0.4136 -0.1744
 2069TIP3   OH227697   4.846   5.769  12.529  0.1589 -0.5538  0.2125
 2069TIP3    H127698   4.868   5.680  12.555  0.5375 -0.6312 -0.3521
 2069TIP3    H227699   4.928   5.818  12.540  0.1616 -0.4543 -0.2243
 2070TIP3   OH227700   6.470   5.180   5.005 -0.2748 -0.2704 -0.0348
 2070TIP3    H127701   6.549   5.139   4.970  1.3406  1.9042  0.8680
 2070TIP3    H227702   6.446   5.247   4.941 -0.9961 -0.4339  0.0492
 2071TIP3   OH227703   3.585   6.107  12.728 -0.2863 -0.1413  0.1022
 2071TIP3    H127704   3.592   6.025  12.778 -0.3499 -0.6923 -0.7664
 2071TIP3    H227705   3.494   6.109  12.697 -0.9399  1.3734  1.9378
 2072TIP3   OH227706   5.946   3.409  16.994 -0.8474 -0.5451  0.3302
 2072TIP3    H127707   5.874   3.454  16.949 -1.4939 -0.8558  1.0291
 2072TIP3    H227708   5.955   3.456  17.077 -1.5028 -1.6566  1.0498
 2073TIP3   OH227709   4.871   4.173  14.876 -0.8081  0.3765 -0.0719
 2073TIP3    H127710   4.946   4.188  14.934 -1.8562  3.0710  0.7455
 2073TIP3    H227711   4.804   4.134  14.932 -0.6083 -0.4034 -0.3732
 2074TIP3   OH227712   5.796   4.021   4.734  0.2217 -0.0128  0.1487
 2074TIP3    H127713   5.850   3.974   4.798  0.3964  0.8096  0.6211
 2074TIP3    H227714   5.859   4.076   4.687 -0.0282 -0.0132 -0.1889
 2075TIP3   OH227715   2.981   0.444   3.166  0.4813 -0.1940  0.1976
 2075TIP3    H127716   2.971   0.350   3.178  0.4911 -0.0141  1.7734
 2075TIP3    H227717   3.071   0.455   3.135 -0.3209 -0.8813 -2.6516
 2076TIP3   OH227718   5.082   6.735  15.716  0.5033 -0.0550 -0.4434
 2076TIP3    H127719   5.107   6.734  15.624 -1.1106  0.6921 -0.9234
 2076TIP3    H227720   5.019   6.807  15.723  1.0639  0.3174  1.3781
 2077TIP3   OH227721   6.264   5.495   1.191 -0.1132  0.2741 -0.1523
 2077TIP3    H127722   6.319   5.417   1.189  0.1541  0.3247  1.9891
 2077TIP3    H227723   6.276   5.536   1.106  0.5435 -1.4775 -0.9447
 2078TIP3   OH227724   1.920   5.265  13.857 -0.1898  0.2774 -0.5191
 2078TIP3    H127725   1.887   5.184  13.819  0.3075 -0.3587  0.3527
 2078TIP3    H227726   1.855   5.331  13.835 -0.8155 -0.4477 -0.8724
 2079TIP3   OH227727   5.213   1.466   4.254 -0.4260  0.5224 -0.3271
 2079TIP3    H127728   5.129   1.509   4.235  0.8828  2.9997 -0.9198
 2079TIP3    H227729   5.258   1.464   4.169  0.3934 -0.1443  0.1142
 2080TIP3   OH227730   3.177   3.643  12.354  0.0682 -0.5706  0.0146
 2080TIP3    H127731   3.128   3.687  12.424 -1.4456  0.9902 -1.8973
 2080TIP3    H227732   3.224   3.714  12.310  0.3165 -1.3870 -1.0622
 2081TIP3   OH227733   0.833   3.901  12.386 -0.4461  0.0026 -0.0146
 2081TIP3    H127734   0.832   3.964  12.458  0.5191 -0.4780  0.4397
 2081TIP3    H227735   0.785   3.825  12.420  0.4002 -0.4009  0.3041
 2082TIP3   OH227736   6.814   3.860   2.796 -0.0032 -0.2294 -0.2940
 2082TIP3    H127737   6.777   3.947   2.778  1.7764  0.5499 -0.3830
 2082TIP3    H227738   6.817   3.817   2.710 -0.0770 -0.0498 -0.3875
 2083TIP3   OH227739   4.713   6.804  11.016 -0.1027 -0.3030  0.6989
 2083TIP3    H127740   4.735   6.711  11.008  0.7249 -0.0163 -0.8323
 2083TIP3    H227741   4.720   6.838  10.927 -1.9877  0.9108  0.9539
 2084TIP3   OH227742   6.380   2.586  15.366 -0.1776 -0.1425  0.1287
 2084TIP3    H127743   6.314   2.525  15.335  1.1490 -1.2679 -0.6087
 2084TIP3    H227744   6.438   2.532  15.420  0.5224  0.6611  0.1898
 2085TIP3   OH227745   5.678   2.013  13.725 -0.0049 -0.1662 -0.1259
 2085TIP3    H127746   5.653   2.097  13.687 -0.8818  0.3011  1.4164
 2085TIP3    H227747   5.653   2.020  13.817  1.0829 -1.6474  0.3169
 2086TIP3   OH227748   1.521   1.938   5.413  0.3633  0.1754 -0.1269
 2086TIP3    H127749   1.543   2.000   5.481 -0.5950 -0.4779  0.8177
 2086TIP3    H227750   1.561   1.856   5.440 -0.5789 -0.2555  0.0297
 2087TIP3   OH227751   2.839   6.496  16.025 -0.5849 -0.3261  0.6385
 2087TIP3    H127752   2.888   6.454  16.096 -1.9426 -2.2779  0.5088
 2087TIP3    H227753   2.757   6.524  16.066 -0.5207  0.4231  0.2709
 2088TIP3   OH227754   1.708   1.388  12.725 -0.3638  0.5359 -0.2011
 2088TIP3    H127755   1.797   1.374  12.693 -0.2949  0.6398 -0.0510
 2088TIP3    H227756   1.653   1.369  12.649 -0.2680 -0.4327 -0.0377
 2089TIP3   OH227757   1.553   2.060  15.207 -0.0616 -0.4276  0.0580
 2089TIP3    H127758   1.580   2.037  15.296 -0.4389 -0.0382  0.2783
 2089TIP3    H227759   1.564   1.979  15.157 -0.4012 -0.8105  0.5901
 2090TIP3   OH227760   3.143   5.613  13.023 -0.3527  0.3755  0.3577
 2090TIP3    H127761   3.061   5.564  13.034 -0.3352  0.2234 -0.1864
 2090TIP3    H227762   3.192   5.594  13.103 -1.4840  1.7281  1.4431
 2091TIP3   OH227763   5.971   1.848  11.748 -0.6388 -0.2653  0.3076
 2091TIP3    H127764   5.967   1.932  11.793  0.7597  0.7841 -1.4034
 2091TIP3    H227765   5.904   1.795  11.791 -2.1368  1.9695  0.9207
 2092TIP3   OH227766   6.117   0.273  13.568 -0.1528  0.1372 -0.4079
 2092TIP3    H127767   6.148   0.206  13.630  0.7672 -0.3695 -1.3700
 2092TIP3    H227768   6.197   0.307  13.528 -0.7212  0.5210 -1.2446
 2093TIP3   OH227769   6.507   2.916  11.432  0.1099 -0.6041  0.0809
 2093TIP3    H127770   6.430   2.888  11.382  0.1803  0.8183 -0.8589
 2093TIP3    H227771   6.580   2.906  11.372  0.1588  1.3820 -0.2498
 2094TIP3   OH227772   5.748   3.189   2.189 -0.1718 -0.7679  0.0149
 2094TIP3    H127773   5.689   3.193   2.264 -1.2862  0.7839 -0.8738
 2094TIP3    H227774   5.719   3.113   2.140 -1.2984 -0.1853 -0.2665
 2095TIP3   OH227775   5.605   4.422   3.008  0.2401 -0.3872 -0.3170
 2095TIP3    H127776   5.555   4.361   2.954  0.5417 -1.6764  0.7917
 2095TIP3    H227777   5.672   4.367   3.050 -0.0705  0.5094  1.4612
 2096TIP3   OH227778   5.766   5.277   6.180 -0.5076 -0.3068  0.5114
 2096TIP3    H127779   5.675   5.281   6.151 -0.4919 -1.5744  0.2498
 2096TIP3    H227780   5.795   5.368   6.179 -1.3652 -0.0235 -0.7074
 2097TIP3   OH227781   0.924   6.488  13.533 -0.0624 -0.2606  0.2403
 2097TIP3    H127782   0.848   6.437  13.561  0.0342 -0.7344 -0.3380
 2097TIP3    H227783   0.958   6.527  13.614  0.3849 -1.8446  0.8673
 2098TIP3   OH227784   1.396   3.910   3.785  0.9364 -0.3234 -1.3354
 2098TIP3    H127785   1.350   3.974   3.730  2.5428  2.2738  0.1291
 2098TIP3    H227786   1.469   3.880   3.730 -0.2225 -1.5353 -2.2856
 2099TIP3   OH227787   4.942   0.314  17.098  0.1921  0.3503 -0.4920
 2099TIP3    H127788   4.943   0.401  17.137 -1.4955  1.4243 -2.6122
 2099TIP3    H227789   4.851   0.285  17.107  0.3616 -0.4776 -1.2865
 2100TIP3   OH227790   6.248   5.271  14.686  0.4414 -0.4111  0.4547
 2100TIP3    H127791   6.156   5.252  14.705  0.4810 -0.2873  0.7769
 2100TIP3    H227792   6.289   5.281  14.772  0.5185  0.6887  0.3080
 2101TIP3   OH227793   0.068   2.996  10.895  0.1270 -0.9580  0.3650
 2101TIP3    H127794  -0.026   3.003  10.877  0.1556  1.5318  0.8153
 2101TIP3    H227795   0.102   2.943  10.823 -1.5337 -1.4413 -0.1102
 2102TIP3   OH227796   1.846   1.530   2.575 -0.5654 -0.1569  0.3151
 2102TIP3    H127797   1.760   1.569   2.561 -0.1721  1.1219  1.3308
 2102TIP3    H227798   1.855   1.467   2.503 -1.0990  1.7783 -1.5519
 2103TIP3   OH227799   3.920   3.843   1.608 -0.3056 -0.3534 -0.3527
 2103TIP3    H127800   3.867   3.886   1.541 -0.8750 -0.3659  0.0732
 2103TIP3    H227801   3.903   3.893   1.688  0.1742 -0.4798 -0.1684
 2104TIP3   OH227802   0.154   5.146  13.017 -0.3722 -0.3783  0.2894
 2104TIP3    H127803   0.172   5.085  13.089 -0.0027 -0.2639  0.2982
 2104TIP3    H227804   0.061   5.133  12.997 -0.7304  0.2892  1.4315
 2105TIP3   OH227805   0.940   3.203   0.384 -0.8615  0.1965 -0.1343
 2105TIP3    H127806   1.018   3.154   0.357  0.2799  0.9645  1.6190
 2105TIP3    H227807   0.870   3.137   0.385 -0.1311 -0.6357 -1.1140
 2106TIP3   OH227808   5.693   6.378  16.594  0.3759  0.0653  0.4562
 2106TIP3    H127809   5.626   6.436  16.555  1.1164  0.3661 -0.4160
 2106TIP3    H227810   5.700   6.408  16.684  0.4867  1.1137  0.1164
 2107TIP3   OH227811   2.855   2.198  16.424  0.1162  0.3406 -0.2590
 2107TIP3    H127812   2.861   2.283  16.381  2.6419  0.3901  0.0785
 2107TIP3    H227813   2.935   2.152  16.398  1.5136  0.1230  3.7505
 2108TIP3   OH227814   2.236   3.473   3.151  0.2402  0.0667  0.3281
 2108TIP3    H127815   2.292   3.544   3.184 -0.0152  0.4947 -0.1519
 2108TIP3    H227816   2.217   3.497   3.061  1.3586 -1.3676 -0.3225
 2109TIP3   OH227817   2.026   3.144  15.563  0.5832  0.1420 -0.2225
 2109TIP3    H127818   2.049   3.143  15.470 -0.3405 -2.6218 -0.5023
 2109TIP3    H227819   2.107   3.170  15.607  1.7019 -0.6817 -1.6797
 2110TIP3   OH227820   3.570   3.838  14.687 -0.2889 -0.0901 -0.7848
 2110TIP3    H127821   3.636   3.787  14.733 -1.2339 -1.0291 -0.4248
 2110TIP3    H227822   3.558   3.916  14.740  0.4723  0.0563 -0.8218
 2111TIP3   OH227823   0.168   4.661  13.869  0.7764  0.0998  0.2266
 2111TIP3    H127824   0.126   4.576  13.864 -0.5674  0.7918 -1.1369
 2111TIP3    H227825   0.227   4.655  13.944 -0.2526 -1.5940  0.9457
 2112TIP3   OH227826   6.090   6.253   5.916 -0.3292 -0.9728 -0.8446
 2112TIP3    H127827   6.001   6.266   5.883 -0.7287 -1.7156 -0.0912
 2112TIP3    H227828   6.081   6.188   5.985  0.2919  1.3906  1.6093
 2113TIP3   OH227829   2.568   5.655   5.753 -0.3830  0.1824  0.6853
 2113TIP3    H127830   2.622   5.589   5.709  1.0717 -0.0461  2.6660
 2113TIP3    H227831   2.565   5.728   5.692 -0.4827 -0.9951 -0.7877
 2114TIP3   OH227832   4.013   2.370  15.516 -0.3260 -0.1549 -0.0981
 2114TIP3    H127833   4.006   2.423  15.595 -0.2716  1.0970 -0.9020
 2114TIP3    H227834   3.924   2.335  15.502 -0.4105 -0.1095  0.3128
 2115TIP3   OH227835   3.263   2.513   0.266  0.3646 -0.0427 -0.4370
 2115TIP3    H127836   3.224   2.475   0.345  0.4379 -0.4587 -0.5941
 2115TIP3    H227837   3.199   2.577   0.235  1.0773  1.3878  0.9045
 2116TIP3   OH227838   2.385   0.988  12.669 -0.1777  0.1144  0.2743
 2116TIP3    H127839   2.348   0.944  12.745  0.9913 -0.1430  0.7242
 2116TIP3    H227840   2.424   0.917  12.617 -2.5518  0.0324 -1.5660
 2117TIP3   OH227841   2.789   6.126  13.410  0.4650  0.8474 -0.3287
 2117TIP3    H127842   2.859   6.186  13.380 -1.7033  4.3982  1.0668
 2117TIP3    H227843   2.825   6.086  13.489  1.5325  1.3675 -0.5189
 2118TIP3   OH227844   6.518   5.492  11.975 -0.6094 -0.0955  0.1898
 2118TIP3    H127845   6.464   5.446  12.040 -1.8764  0.4925 -0.4051
 2118TIP3    H227846   6.535   5.426  11.907  0.6731 -0.6956  1.0511
 2119TIP3   OH227847   0.047   2.315  11.879 -0.1887  0.4263  0.0360
 2119TIP3    H127848   0.002   2.288  11.959 -1.1946  0.3635 -0.5331
 2119TIP3    H227849   0.102   2.241  11.856 -2.0135 -0.7206 -0.8480
 2120TIP3   OH227850   3.979   6.262   5.710 -0.0372 -0.3928 -0.1977
 2120TIP3    H127851   3.962   6.251   5.803  0.4533 -1.4176 -0.2112
 2120TIP3    H227852   3.907   6.218   5.666  0.1219 -0.5653 -0.2899
 2121TIP3   OH227853   3.925   4.859  12.647 -0.0715 -0.3380  0.2152
 2121TIP3    H127854   3.878   4.786  12.606  1.6016 -2.6375  2.1286
 2121TIP3    H227855   3.856   4.919  12.675 -1.4135 -0.1753 -3.0422
 2122TIP3   OH227856   2.979   4.657   0.879 -0.1214 -0.5316 -0.7856
 2122TIP3    H127857   2.929   4.734   0.853  0.4007  0.2033  0.2769
 2122TIP3    H227858   2.967   4.652   0.974  0.0254 -1.6455 -0.8088
 2123TIP3   OH227859   1.868   2.887   5.146  0.3257  0.3171  0.0953
 2123TIP3    H127860   1.892   2.972   5.183 -0.5179  0.5291  0.1788
 2123TIP3    H227861   1.937   2.868   5.083  0.6320  0.9690  0.2247
 2124TIP3   OH227862   2.617   5.592   2.829  0.0703  0.0702  0.0812
 2124TIP3    H127863   2.653   5.675   2.860  0.0955  0.0225  0.1799
 2124TIP3    H227864   2.588   5.548   2.909 -2.7555  1.2893 -0.1237
 2125TIP3   OH227865   0.188   6.708   3.586 -0.3006  0.2889 -0.4692
 2125TIP3    H127866   0.279   6.718   3.557 -0.0041 -0.8005  0.0407
 2125TIP3    H227867   0.147   6.654   3.518 -1.0486  2.1665 -1.5817
 2126TIP3   OH227868   6.355   3.074  12.586  1.0178 -0.0403  0.4825
 2126TIP3    H127869   6.372   3.153  12.637  1.5040 -1.1004  2.0480
 2126TIP3    H227870   6.274   3.039  12.623 -0.9956  1.3147 -2.3042
 2127TIP3   OH227871   0.446   0.974  13.430 -0.2249  0.4344  0.0095
 2127TIP3    H127872   0.415   1.051  13.477  1.7513  1.5412 -0.3744
 2127TIP3    H227873   0.384   0.904  13.454 -1.7710  1.9930  0.7629
 2128TIP3   OH227874   5.755   4.470  14.854 -0.7015 -0.1874 -0.0803
 2128TIP3    H127875   5.838   4.517  14.849  0.6347 -2.4842 -2.4802
 2128TIP3    H227876   5.768   4.404  14.922 -1.7331  1.3353  1.6631
 2129TIP3   OH227877   5.508   0.641   1.218 -0.8542 -0.2671  0.4068
 2129TIP3    H127878   5.468   0.685   1.292 -0.8585  0.5822 -0.0942
 2129TIP3    H227879   5.448   0.656   1.145 -0.5451 -0.5673  0.0848
 2130TIP3   OH227880   5.846   5.906   3.977  0.2492  0.2222  0.6885
 2130TIP3    H127881   5.924   5.852   3.969 -0.0710 -0.1007 -0.5056
 2130TIP3    H227882   5.854   5.970   3.907 -0.7182 -0.0392  0.3186
 2131TIP3   OH227883   3.548   5.490   1.918  0.0373 -0.3313 -0.0258
 2131TIP3    H127884   3.568   5.556   1.851 -1.2584  0.4171  0.2830
 2131TIP3    H227885   3.570   5.533   2.001 -1.4747  0.0133  0.2241
 2132TIP3   OH227886   4.697   2.246   3.204  0.2512  0.2213 -0.0089
 2132TIP3    H127887   4.764   2.310   3.227  0.3944  0.4552 -1.0423
 2132TIP3    H227888   4.652   2.284   3.129  0.2521 -0.8312 -0.5588
 2133TIP3   OH227889   6.739   1.071  14.681 -0.0694  0.2032  0.1915
 2133TIP3    H127890   6.775   1.085  14.593 -3.5318  2.0278 -1.1436
 2133TIP3    H227891   6.765   1.149  14.729 -0.6232  0.6398 -0.1959
 2134TIP3   OH227892   3.866   1.798  14.655 -0.3402  0.3738 -0.6655
 2134TIP3    H127893   3.924   1.848  14.597  0.8209  0.5264  0.5821
 2134TIP3    H227894   3.870   1.709  14.621  1.9600  0.0159  0.2905
 2135TIP3   OH227895   1.895   1.538   5.949  0.0700 -0.3975 -0.1930
 2135TIP3    H127896   1.920   1.504   5.863 -1.9197 -1.5630 -0.3892
 2135TIP3    H227897   1.871   1.460   5.999  0.2834  0.3446  1.1120
 2136TIP3   OH227898   6.165   3.380   5.180 -0.3946  0.0483 -0.2884
 2136TIP3    H127899   6.224   3.338   5.117  1.0645 -1.4671  1.9308
 2136TIP3    H227900   6.079   3.375   5.139  0.7313  0.9762 -2.9945
 2137TIP3   OH227901   2.009   4.826   1.297 -0.0479 -0.0444  0.4647
 2137TIP3    H127902   2.024   4.733   1.283  2.5686  0.3450  0.2142
 2137TIP3    H227903   2.032   4.868   1.214 -0.3345  0.8937  0.8393
 2138TIP3   OH227904   6.344   1.535  12.815  0.4859  0.7767 -0.1777
 2138TIP3    H127905   6.303   1.460  12.860  0.2426  0.6678 -0.5695
 2138TIP3    H227906   6.270   1.592  12.792  0.4553  0.2614 -1.4852
 2139TIP3   OH227907   3.445   2.916  13.025 -0.2783 -0.3705  0.0633
 2139TIP3    H127908   3.493   2.858  13.084  0.5336  0.0563 -0.1632
 2139TIP3    H227909   3.465   3.004  13.057 -0.4497 -0.1643 -0.3860
 2140TIP3   OH227910   6.343   0.573   0.951 -0.2204  0.2281 -0.0600
 2140TIP3    H127911   6.393   0.644   0.991  0.8766 -0.7399  0.3502
 2140TIP3    H227912   6.289   0.538   1.021 -0.7093  0.5969 -0.2452
 2141TIP3   OH227913   6.174   0.408  10.616 -0.0686 -0.4299  0.2452
 2141TIP3    H127914   6.261   0.377  10.640  1.1180  1.4304 -1.3136
 2141TIP3    H227915   6.140   0.342  10.556  0.6850 -0.7331  0.1416
 2142TIP3   OH227916   1.936   4.667  14.076 -0.1132  0.2355 -0.2785
 2142TIP3    H127917   1.911   4.754  14.106 -0.1337  0.3255 -0.5598
 2142TIP3    H227918   1.930   4.612  14.155 -1.4680  0.2005 -0.3753
 2143TIP3   OH227919   5.370   4.935   1.675 -0.5332 -0.2513  0.4646
 2143TIP3    H127920   5.457   4.907   1.704 -0.3920  0.0093  0.2962
 2143TIP3    H227921   5.386   4.984   1.594 -0.7692  0.3490  0.7698
 2144TIP3   OH227922   2.666   0.291  12.416 -0.0750 -0.4083 -0.4983
 2144TIP3    H127923   2.589   0.308  12.469  0.6279 -0.0916  0.4393
 2144TIP3    H227924   2.631   0.267  12.330 -1.2086  1.1824 -0.5311
 2145TIP3   OH227925   6.149   6.722  13.283 -0.3702  0.1425 -0.1395
 2145TIP3    H127926   6.084   6.662  13.319 -1.9778  0.6728 -1.9635
 2145TIP3    H227927   6.104   6.806  13.279  1.3478  1.1920  0.9800
 2146TIP3   OH227928   3.139   4.197  14.576  0.1772 -0.4580  0.6499
 2146TIP3    H127929   3.095   4.253  14.640 -0.7056  1.0171 -1.1433
 2146TIP3    H227930   3.070   4.164  14.519  1.1450  0.8375 -1.4272
 2147TIP3   OH227931   3.039   0.044   4.059 -0.0137  0.5806 -0.2722
 2147TIP3    H127932   3.039   0.112   3.991 -0.6867  0.1459 -0.7260
 2147TIP3    H227933   3.115  -0.010   4.038  0.3706  1.0340 -0.0687
 2148TIP3   OH227934   3.128   2.547  12.771 -0.4695 -0.0293  0.5260
 2148TIP3    H127935   3.136   2.616  12.705  0.7511 -1.0366 -0.4285
 2148TIP3    H227936   3.054   2.574  12.825 -2.3579  0.2339 -1.9918
 2149TIP3   OH227937   3.634   0.643   3.350  0.0548  0.4450  0.1351
 2149TIP3    H127938   3.572   0.633   3.278 -0.6891  0.3256  0.7735
 2149TIP3    H227939   3.605   0.722   3.396  0.0010  0.0530  0.7863
 2150TIP3   OH227940   6.422   3.386   0.800 -0.4735  0.0694 -0.2778
 2150TIP3    H127941   6.330   3.382   0.773 -0.6986 -0.8206  0.5302
 2150TIP3    H227942   6.420   3.366   0.894  0.6095 -0.8890 -0.4288
 2151TIP3   OH227943   4.195   5.776  15.134  0.0658  0.2270  0.2150
 2151TIP3    H127944   4.100   5.774  15.144  0.0480  0.9358  0.2633
 2151TIP3    H227945   4.226   5.701  15.186 -0.6744 -2.5382 -2.9869
 2152TIP3   OH227946   6.401   4.732  14.501  0.0796 -0.0061 -0.1173
 2152TIP3    H127947   6.348   4.680  14.440  2.3085 -0.2551 -2.0045
 2152TIP3    H227948   6.460   4.782  14.444 -0.5284  3.0923  1.6953
 2153TIP3   OH227949   0.675   1.533  11.788  0.1271 -0.0813 -0.1188
 2153TIP3    H127950   0.584   1.526  11.759  0.2650 -0.2914 -0.5074
 2153TIP3    H227951   0.704   1.442  11.796  0.5182 -0.0117 -0.6902
 2154TIP3   OH227952   3.030   4.156   2.516 -0.3415 -0.7355 -0.0914
 2154TIP3    H127953   2.983   4.202   2.585  0.6179  0.0399  0.0681
 2154TIP3    H227954   2.962   4.109   2.467 -1.4009  1.0147 -0.3905
 2155TIP3   OH227955   6.626   6.136  12.966 -0.3988 -0.5792  0.4212
 2155TIP3    H127956   6.667   6.050  12.967 -0.6509 -0.7068  0.0727
 2155TIP3    H227957   6.692   6.196  13.000  0.4439 -0.6168 -1.0738
 2156TIP3   OH227958   6.288   3.693  14.116  0.5209 -0.5052  0.7486
 2156TIP3    H127959   6.300   3.600  14.096 -1.4162 -1.5242  3.6137
 2156TIP3    H227960   6.225   3.724  14.051  1.1496 -1.1874 -0.2049
 2157TIP3   OH227961   1.419   3.668  12.224  0.2452  0.0208 -0.5954
 2157TIP3    H127962   1.358   3.742  12.221 -0.0538 -0.0862  1.5340
 2157TIP3    H227963   1.363   3.591  12.236  0.6813 -0.3224 -0.7178
 2158TIP3   OH227964   1.099   3.577   5.097 -0.0863 -0.2856  0.2457
 2158TIP3    H127965   1.062   3.489   5.094 -1.1483  0.1811 -1.1183
 2158TIP3    H227966   1.141   3.582   5.183 -1.4664 -1.5342  1.0434
 2159TIP3   OH227967   6.694   1.296  16.070  0.0709  0.3073  0.3210
 2159TIP3    H127968   6.780   1.325  16.041  0.1760 -1.1792 -0.9799
 2159TIP3    H227969   6.709   1.262  16.158  0.5940  0.9748  0.5041
 2160TIP3   OH227970   2.561   4.013   4.219 -0.4531  0.4295 -0.0107
 2160TIP3    H127971   2.550   4.056   4.304  0.0989 -0.0170  0.2970
 2160TIP3    H227972   2.653   3.985   4.218  0.2746  2.6373 -1.8031
 2161TIP3   OH227973   4.383   2.040   5.092 -0.0009  0.5549 -0.1009
 2161TIP3    H127974   4.301   2.040   5.141  0.0589 -2.7222  0.1902
 2161TIP3    H227975   4.448   2.006   5.153  0.6764 -0.8954 -1.5592
 2162TIP3   OH227976   2.648   5.032  11.340  0.8252 -0.0591 -0.1178
 2162TIP3    H127977   2.717   5.082  11.297  1.8021 -1.2256  0.0468
 2162TIP3    H227978   2.694   4.976  11.402 -0.2228 -1.2088 -0.3467
 2163TIP3   OH227979   2.832   4.920   0.296 -0.2367  0.0678 -0.0638
 2163TIP3    H127980   2.778   4.967   0.233  1.0631 -1.0207 -2.1267
 2163TIP3    H227981   2.916   4.967   0.296  0.5397 -1.2511 -0.9504
 2164TIP3   OH227982   5.385   4.829   4.534  1.1385 -0.2030  0.3010
 2164TIP3    H127983   5.356   4.755   4.587 -0.0742  1.9535  2.9374
 2164TIP3    H227984   5.321   4.834   4.463  0.9027 -1.3167  0.4250
 2165TIP3   OH227985   4.096   3.262   2.101 -0.0458  0.1461  0.3246
 2165TIP3    H127986   4.091   3.239   2.194 -1.3511 -1.2319 -0.0316
 2165TIP3    H227987   4.127   3.352   2.099  2.4602 -0.5993  1.9924
 2166TIP3   OH227988   5.618   4.331   2.585 -0.7197 -0.0864 -0.2902
 2166TIP3    H127989   5.556   4.345   2.657  0.4416 -1.0137  0.9318
 2166TIP3    H227990   5.563   4.325   2.507 -1.9206  2.3513  0.2667
 2167TIP3   OH227991   0.643   0.019   4.089 -1.2113  0.1036 -0.1604
 2167TIP3    H127992   0.551   0.045   4.080 -1.0825  2.0661  2.8752
 2167TIP3    H227993   0.686   0.096   4.126  2.0977 -0.1743 -2.9818
 2168TIP3   OH227994   0.554   2.311   3.532  0.3750 -0.1639 -0.1362
 2168TIP3    H127995   0.517   2.357   3.607 -0.3429 -2.4026  0.9501
 2168TIP3    H227996   0.506   2.346   3.457 -2.6259 -1.4771  1.0132
 2169TIP3   OH227997   1.548   5.351  14.030  0.0609  0.5398 -0.3264
 2169TIP3    H127998   1.499   5.434  14.034 -0.8649  0.0050 -0.2175
 2169TIP3    H227999   1.628   5.367  14.079 -0.9048  0.8529  1.2045
 2170TIP3   OH228000   3.834   1.567   5.057  0.4823  1.0195  0.2391
 2170TIP3    H128001   3.789   1.597   5.135  1.6732  0.1530  1.3096
 2170TIP3    H228002   3.924   1.598   5.068  0.6563  0.9345 -0.8240
 2171TIP3   OH228003   0.379   4.774  11.847 -0.0334 -0.1593 -0.8538
 2171TIP3    H128004   0.448   4.835  11.871 -0.6035  0.2518 -0.2260
 2171TIP3    H228005   0.357   4.729  11.929 -0.5508 -0.2473 -1.0345
 2172TIP3   OH228006   0.913   5.104  11.837 -0.8783  0.0521 -0.8583
 2172TIP3    H128007   0.899   5.091  11.931 -1.4260  0.9320 -0.8198
 2172TIP3    H228008   0.977   5.175  11.832 -0.9375  0.0851 -1.1576
 2173TIP3   OH228009   2.627   6.752   1.733  0.4387 -0.2401  0.0097
 2173TIP3    H128010   2.570   6.828   1.724 -0.8434 -0.9934  1.2512
 2173TIP3    H228011   2.700   6.782   1.786  0.1137  0.2130  0.2018
 2174TIP3   OH228012   3.395   6.548  10.865 -0.1278  0.2308 -0.3857
 2174TIP3    H128013   3.359   6.479  10.920  1.1465 -0.1066  0.0598
 2174TIP3    H228014   3.411   6.506  10.780 -0.3527  0.2580 -0.4410
 2175TIP3   OH228015   2.089   0.893  11.194 -0.6010  0.1120 -0.1167
 2175TIP3    H128016   2.101   0.945  11.115  0.2835  0.8162  0.4601
 2175TIP3    H228017   2.081   0.803  11.163  1.3722  0.1702 -0.9446
 2176TIP3   OH228018   2.229   0.653   4.618 -0.1290 -0.6944 -0.6378
 2176TIP3    H128019   2.142   0.623   4.590 -0.0423 -0.5102 -1.1119
 2176TIP3    H228020   2.230   0.638   4.712 -1.8635  2.1342 -0.0422
 2177TIP3   OH228021   4.880   3.804   2.478 -0.0291 -0.2997  0.2192
 2177TIP3    H128022   4.859   3.778   2.568 -0.4031 -2.5906 -0.4740
 2177TIP3    H228023   4.851   3.895   2.472  2.3572  0.8583  3.1674
 2178TIP3   OH228024   5.134   4.951   4.171  0.2972  0.0627  0.7359
 2178TIP3    H128025   5.124   4.881   4.107 -1.9058  1.1849 -0.2787
 2178TIP3    H228026   5.125   4.907   4.256 -0.3394 -0.9976  0.1439
 2179TIP3   OH228027   5.263   6.299   5.426 -0.4805 -0.3123  0.2137
 2179TIP3    H128028   5.215   6.301   5.343 -2.3476 -1.7825  1.1657
 2179TIP3    H228029   5.268   6.206   5.448  0.9511 -0.0234  1.2355
 2180TIP3   OH228030   0.038   3.709   1.830 -0.7986 -0.7727  0.5501
 2180TIP3    H128031   0.088   3.789   1.815 -1.3323 -0.0884  2.2172
 2180TIP3    H228032   0.029   3.670   1.743 -0.8555  1.1650 -0.3617
 2181TIP3   OH228033   0.142   2.230  12.160  0.5114 -0.1692  0.2919
 2181TIP3    H128034   0.144   2.135  12.163  1.0502 -0.3255 -2.3485
 2181TIP3    H228035   0.093   2.256  12.238  0.1412 -2.5928  0.9388
 2182TIP3   OH228036   0.047   1.384   0.214 -0.0256 -0.1065 -0.0303
 2182TIP3    H128037  -0.036   1.346   0.242 -0.7391  1.5583  0.2577
 2182TIP3    H228038   0.081   1.323   0.149 -0.9421 -1.3628  0.6326
 2183TIP3   OH228039   5.530   0.991   4.153 -0.5283  0.0592 -0.2350
 2183TIP3    H128040   5.482   1.035   4.083 -0.0191 -0.0691 -0.6820
 2183TIP3    H228041   5.568   0.914   4.110 -1.2517 -0.7170  0.4877
 2184TIP3   OH228042   3.377   5.170   1.246  0.0176 -0.4066 -0.0278
 2184TIP3    H128043   3.393   5.168   1.340 -1.0377 -0.4559  0.1675
 2184TIP3    H228044   3.412   5.254   1.216 -1.0352  0.3064  0.6876
 2185TIP3   OH228045   1.521   6.499   3.597  0.6368 -0.0460 -0.4158
 2185TIP3    H128046   1.492   6.553   3.524 -0.6924  0.8002  0.6644
 2185TIP3    H228047   1.458   6.519   3.667  3.9293  2.1765  2.2867
 2186TIP3   OH228048   1.855   4.290  14.555  0.2811  0.2211 -0.1308
 2186TIP3    H128049   1.763   4.263  14.558  0.9256 -2.1333  0.7925
 2186TIP3    H228050   1.892   4.258  14.638  2.3345 -0.5989 -1.2831
 2187TIP3   OH228051   2.104   4.295  12.130  0.3576 -0.6269 -0.4832
 2187TIP3    H128052   2.014   4.326  12.115 -0.2191 -1.5903  0.8061
 2187TIP3    H228053   2.102   4.258  12.218  2.1557 -0.2428 -0.2534
 2188TIP3   OH228054   1.629   4.016  11.623 -0.7617  0.6878 -0.0048
 2188TIP3    H128055   1.631   3.950  11.693  0.8370 -0.7422 -1.3061
 2188TIP3    H228056   1.551   3.993  11.571  0.4413 -1.0486 -1.1573
 2189TIP3   OH228057   1.648   6.585  12.587  0.6146  0.2799 -0.1881
 2189TIP3    H128058   1.650   6.643  12.511 -0.9097  0.0228 -0.4536
 2189TIP3    H228059   1.610   6.504  12.554 -1.3918  0.6254  1.1142
 2190TIP3   OH228060   1.545   3.676  17.098 -0.3576  0.1844 -0.0494
 2190TIP3    H128061   1.519   3.592  17.060  0.0611  0.2072 -0.3857
 2190TIP3    H228062   1.606   3.713  17.035 -2.0419  1.6665 -0.9148
 2191TIP3   OH228063   5.575   2.264   1.642  0.4782  0.0023 -0.3328
 2191TIP3    H128064   5.570   2.281   1.548  2.1643 -0.4280 -0.5337
 2191TIP3    H228065   5.554   2.348   1.683 -1.5102 -0.1060 -1.0277
 2192TIP3   OH228066   0.413   2.342   5.366  0.3617 -0.3956 -0.1728
 2192TIP3    H128067   0.322   2.312   5.362  0.5804 -1.5265  2.0332
 2192TIP3    H228068   0.465   2.261   5.361  1.3194  0.2646 -1.8757
 2193TIP3   OH228069   1.698   6.069   1.788 -0.0784 -0.4929  0.2882
 2193TIP3    H128070   1.685   5.980   1.755 -0.0868 -0.4575  0.1955
 2193TIP3    H228071   1.624   6.084   1.846 -0.5228 -0.2534 -0.3197
 2194TIP3   OH228072   3.075   5.533  14.478 -0.1320  0.0935  0.6177
 2194TIP3    H128073   2.982   5.534  14.500 -0.5628  2.4359 -0.9065
 2194TIP3    H228074   3.106   5.620  14.503  0.4370  1.1694 -3.0769
 2195TIP3   OH228075   4.899   1.520  11.674  0.4080 -0.5139 -0.3607
 2195TIP3    H128076   4.993   1.522  11.655  0.2602  0.1900 -1.0533
 2195TIP3    H228077   4.893   1.473  11.758  1.3011 -1.3321 -0.7278
 2196TIP3   OH228078   3.320   5.702   6.180  0.0812  0.3002 -0.1323
 2196TIP3    H128079   3.392   5.675   6.123 -0.0443  2.0850 -1.2409
 2196TIP3    H228080   3.248   5.644   6.158  1.0448 -1.2846  0.7394
 2197TIP3   OH228081   4.238   0.602  16.121 -0.1777 -0.0841 -0.0965
 2197TIP3    H128082   4.240   0.653  16.202  1.5328 -0.7780  0.3395
 2197TIP3    H228083   4.237   0.667  16.051  0.8417  0.5678  0.4698
 2198TIP3   OH228084   6.250   2.115   5.290  0.2280  0.3469 -0.1468
 2198TIP3    H128085   6.243   2.086   5.381  2.0705 -0.6122 -0.2625
 2198TIP3    H228086   6.312   2.188   5.293  0.0064  0.5523 -0.5897
 2199TIP3   OH228087   6.624   2.069   2.223 -0.2322  0.3311  0.3181
 2199TIP3    H128088   6.695   2.133   2.216 -0.3663  0.3982 -0.6816
 2199TIP3    H228089   6.578   2.076   2.139 -2.3470  1.3792  1.4715
 2200TIP3   OH228090   0.285   1.011   2.095  0.3024 -0.5524  0.4492
 2200TIP3    H128091   0.335   1.052   2.165  0.3744 -1.6149  1.0478
 2200TIP3    H228092   0.235   0.941   2.138 -1.1919  0.0412 -0.2370
 2201TIP3   OH228093   4.314   2.044   2.543 -0.6098 -0.6753  0.8296
 2201TIP3    H128094   4.317   2.060   2.637 -1.4961 -0.9533  0.9078
 2201TIP3    H228095   4.340   2.128   2.504 -1.1800 -0.2682  1.3053
 2202TIP3   OH228096   5.141   3.855   2.674 -0.7592  0.8155  0.0741
 2202TIP3    H128097   5.079   3.782   2.668  0.2575  0.0090 -1.2398
 2202TIP3    H228098   5.177   3.849   2.762 -1.6726  0.5643  0.4386
 2203TIP3   OH228099   2.131   2.864  11.848  0.4312 -0.5676  0.2242
 2203TIP3    H128100   2.063   2.855  11.915  0.8413 -0.8191  0.6121
 2203TIP3    H228101   2.129   2.957  11.825 -1.1524 -0.8515 -0.9552
 2204TIP3   OH228102   6.134   3.271   2.278 -0.0165 -0.2158  0.2788
 2204TIP3    H128103   6.229   3.286   2.280  0.0798  0.0808 -2.6046
 2204TIP3    H228104   6.125   3.176   2.267 -0.1169 -0.3640  1.5138
 2205TIP3   OH228105   2.968   1.357  13.664 -0.1272  0.0929  0.4952
 2205TIP3    H128106   2.973   1.355  13.760  0.0911  1.1924  0.5289
 2205TIP3    H228107   2.928   1.274  13.640  0.5345 -0.5396  1.4936
 2206TIP3   OH228108   6.211   3.221  13.860 -0.9027 -0.1385 -0.3801
 2206TIP3    H128109   6.237   3.239  13.770 -1.5353  0.4174 -0.4519
 2206TIP3    H228110   6.135   3.164  13.853 -0.4615 -0.7738 -0.1772
 2207TIP3   OH228111   0.505   6.094  15.974 -1.1193  0.0887 -0.0372
 2207TIP3    H128112   0.537   6.184  15.964  0.0648 -0.1691  1.1958
 2207TIP3    H228113   0.458   6.077  15.892 -1.1266  1.7214 -0.4162
 2208TIP3   OH228114   6.100   4.003  12.050  0.8083  1.0086 -0.0709
 2208TIP3    H128115   6.111   4.062  12.124 -0.2369 -0.4947  1.3481
 2208TIP3    H228116   6.189   3.981  12.024  1.2385  0.2494  1.8641
 2209TIP3   OH228117   6.430   1.109   3.641 -0.0878  0.4490 -0.1421
 2209TIP3    H128118   6.468   1.149   3.720  0.0602  0.5119 -0.2440
 2209TIP3    H228119   6.487   1.139   3.570 -0.8332  1.2547 -0.4232
 2210TIP3   OH228120   5.263   3.829   1.551  0.2389  0.4330  0.6812
 2210TIP3    H128121   5.254   3.846   1.645 -2.2288  1.3448  0.3480
 2210TIP3    H228122   5.216   3.901   1.509 -3.4585 -2.6192 -1.0426
 2211TIP3   OH228123   0.193   6.569  11.936  0.4655  0.0372 -0.0138
 2211TIP3    H128124   0.099   6.571  11.951  0.0279  0.9054 -2.3699
 2211TIP3    H228125   0.202   6.552  11.842  2.6283  0.8331 -0.0089
 2212TIP3   OH228126   1.969   3.557  16.969  0.3541 -0.4951  0.6082
 2212TIP3    H128127   1.987   3.486  16.907 -0.2319  0.5099 -0.7676
 2212TIP3    H228128   2.003   3.636  16.925  1.1841  0.0570  2.1905
 2213TIP3   OH228129   0.837   6.648  11.269  0.5255 -0.5134 -0.0376
 2213TIP3    H128130   0.857   6.707  11.196  1.2916 -0.1459  0.4507
 2213TIP3    H228131   0.864   6.697  11.347 -1.5948 -0.3133  0.6312
 2214TIP3   OH228132   5.867   4.288   3.717  0.5971  0.1292 -0.3185
 2214TIP3    H128133   5.817   4.214   3.750 -0.1965  1.1386  0.8077
 2214TIP3    H228134   5.937   4.301   3.782  0.4321  0.6756 -0.2470
 2215TIP3   OH228135   5.114   2.243   1.726 -0.4490 -0.3137  0.1208
 2215TIP3    H128136   5.197   2.202   1.751  0.1889 -0.2528 -1.7361
 2215TIP3    H228137   5.137   2.335   1.708 -1.0204 -0.1739  0.0809
 2216TIP3   OH228138   5.241   3.918  13.447 -0.3776  0.4125 -0.3417
 2216TIP3    H128139   5.229   3.902  13.353 -0.1092 -3.0365  0.1167
 2216TIP3    H228140   5.336   3.916  13.460 -0.4522 -1.9819  0.3234
 2217TIP3   OH228141   1.059   1.505  16.964 -0.8020  0.2132  0.3658
 2217TIP3    H128142   0.973   1.485  16.926 -0.6861 -4.5669  2.0328
 2217TIP3    H228143   1.041   1.576  17.025 -3.6610 -0.7091  0.7652
 2218TIP3   OH228144   0.404   2.641   5.356  0.4062  0.4108 -1.0169
 2218TIP3    H128145   0.435   2.552   5.340 -2.8359 -1.2480  0.9149
 2218TIP3    H228146   0.329   2.651   5.298 -0.5911  1.0218  0.3355
 2219TIP3   OH228147   1.997   5.082  11.965 -0.1419 -0.2427  0.4064
 2219TIP3    H128148   1.919   5.076  12.021  0.8949 -2.5898  1.7485
 2219TIP3    H228149   2.064   5.031  12.011  2.1968  1.5687 -0.7515
 2220TIP3   OH228150   4.726   0.802  11.546  0.4517  0.3129  0.1331
 2220TIP3    H128151   4.732   0.756  11.630  0.3816  1.0291  0.5358
 2220TIP3    H228152   4.643   0.772  11.509  1.5339 -1.7827 -0.7700
 2221TIP3   OH228153   5.108   3.130   6.009 -0.0622 -0.2430  0.1710
 2221TIP3    H128154   5.138   3.056   6.064 -0.5548 -2.3213 -2.1743
 2221TIP3    H228155   5.154   3.206   6.044  1.0718 -1.7715  2.2371
 2222TIP3   OH228156   6.117   4.987   2.390 -0.3516 -0.1320 -0.1060
 2222TIP3    H128157   6.101   4.895   2.411  0.2349 -0.6368 -1.7353
 2222TIP3    H228158   6.052   5.035   2.441 -0.8530 -1.4547  0.5519
 2223TIP3   OH228159   2.089   4.671   5.756 -0.5181  0.1884 -0.6242
 2223TIP3    H128160   2.062   4.759   5.781 -0.1068 -0.1674  1.2271
 2223TIP3    H228161   2.030   4.613   5.804  1.0048 -0.5488  0.4590
 2224TIP3   OH228162   3.070   2.898  15.076 -0.0139  0.5332  0.8960
 2224TIP3    H128163   3.121   2.869  15.000 -0.1564  0.2031  0.9260
 2224TIP3    H228164   3.132   2.950  15.127  0.2949  0.1428  0.9277
 2225TIP3   OH228165   5.337   4.031  12.771  0.3545  0.0677 -0.1478
 2225TIP3    H128166   5.324   4.120  12.802 -1.0467  0.2713 -1.2429
 2225TIP3    H228167   5.383   4.040  12.687  1.1858 -0.3156  0.2481
 2226TIP3   OH228168   0.845   2.486  11.703  0.8236 -0.5264  1.0736
 2226TIP3    H128169   0.924   2.504  11.651 -1.3489  2.6547 -1.5527
 2226TIP3    H228170   0.793   2.428  11.648  0.7702 -1.6290  2.2534
 2227TIP3   OH228171   3.488   3.486  14.777  0.3292 -0.6038  0.5763
 2227TIP3    H128172   3.446   3.404  14.752 -1.4537  0.3407  0.2727
 2227TIP3    H228173   3.507   3.530  14.694 -1.3187  0.4929  0.7430
 2228TIP3   OH228174   2.575   5.932   0.469  0.2554 -0.0840  0.5552
 2228TIP3    H128175   2.546   6.010   0.422 -0.8360 -0.0315  1.2640
 2228TIP3    H228176   2.506   5.867   0.451  1.2378 -0.9485 -0.1742
 2229TIP3   OH228177   3.487   2.083   5.963  0.1051  0.5969 -0.0809
 2229TIP3    H128178   3.543   2.025   5.912  0.5482  0.7915  0.1820
 2229TIP3    H228179   3.547   2.129   6.021 -0.6067 -1.5427  2.5599
 2230TIP3   OH228180   5.357   4.004   0.573  0.0540  0.7114  0.0756
 2230TIP3    H128181   5.388   4.085   0.532 -0.4241  0.5491 -0.6277
 2230TIP3    H228182   5.261   4.014   0.574 -0.0349 -0.0584 -0.4782
 2231TIP3   OH228183   2.369   2.252  16.719 -0.2521 -0.6023  0.4685
 2231TIP3    H128184   2.457   2.216  16.729  0.2315  0.6088  0.7879
 2231TIP3    H228185   2.334   2.254  16.809  0.2292  0.8855  0.6532
 2232TIP3   OH228186   2.327   3.551  15.640 -0.0649  0.4009 -0.1804
 2232TIP3    H128187   2.351   3.464  15.673  0.4464  0.9743  1.0433
 2232TIP3    H228188   2.263   3.534  15.572  1.1388 -1.0191 -1.0291
 2233TIP3   OH228189   2.077   2.698  14.946 -0.5235 -0.0717 -0.3957
 2233TIP3    H128190   2.017   2.767  14.917 -0.9526  0.2220  1.0973
 2233TIP3    H228191   2.022   2.640  14.999 -0.1157 -1.4584 -1.4506
 2234TIP3   OH228192   2.030   3.131   4.115 -0.0030  0.0854  0.3014
 2234TIP3    H128193   2.057   3.200   4.054 -0.0971 -1.3226 -1.4166
 2234TIP3    H228194   1.955   3.169   4.162  1.6724  2.1637  1.5036
 2235TIP3   OH228195   3.162   6.000   1.052  0.5488 -0.2051  0.4104
 2235TIP3    H128196   3.208   6.045   0.980 -0.0209  0.1520  0.2601
 2235TIP3    H228197   3.148   6.069   1.117 -0.2308 -0.1835  0.2276
 2236TIP3   OH228198   4.203   5.839   0.736  0.1522  0.3743  0.1791
 2236TIP3    H128199   4.147   5.778   0.689  0.0645  0.8528 -0.3411
 2236TIP3    H228200   4.282   5.790   0.755  0.2350  0.2177 -0.5718
 2237TIP3   OH228201   0.794   4.581  16.101  0.2554 -0.2488  0.3139
 2237TIP3    H128202   0.770   4.564  16.010 -3.6872  0.3539  1.0390
 2237TIP3    H228203   0.783   4.497  16.144 -3.4717  0.4449  1.0659
 2238TIP3   OH228204   1.524   6.290  13.276  0.1867  0.0227 -0.3202
 2238TIP3    H128205   1.484   6.286  13.189  1.2606  0.1533 -0.8457
 2238TIP3    H228206   1.517   6.382  13.301 -2.2620 -0.4022  0.8176
 2239TIP3   OH228207   6.559   1.554   4.670  0.5729  0.8439 -0.7688
 2239TIP3    H128208   6.609   1.511   4.601  0.7457  0.4215 -0.3829
 2239TIP3    H228209   6.570   1.647   4.653  1.2763  0.7521 -0.8501
 2240TIP3   OH228210   0.533   2.594   0.964  0.5553 -0.5371  0.3405
 2240TIP3    H128211   0.504   2.611   0.875 -0.8912  0.4739  0.9697
 2240TIP3    H228212   0.549   2.500   0.968 -0.7004 -0.7975 -0.6058
 2241TIP3   OH228213   3.893   6.464   2.958  0.2248  0.1728  0.0079
 2241TIP3    H128214   3.917   6.438   2.869  0.7474  0.8222 -0.0508
 2241TIP3    H228215   3.974   6.497   2.996 -0.3106  1.3057  0.2151
 2242TIP3   OH228216   2.346   3.065   2.953 -0.8771 -0.1966 -0.5709
 2242TIP3    H128217   2.416   3.003   2.931  1.0031  1.7186 -0.2745
 2242TIP3    H228218   2.372   3.147   2.911 -1.8305  1.1387  1.2991
 2243TIP3   OH228219   5.196   2.967  14.063  0.1311 -0.1884  0.5971
 2243TIP3    H128220   5.167   3.056  14.044  1.0247  0.1698  0.8219
 2243TIP3    H228221   5.116   2.916  14.067 -0.3154  0.3665 -0.7341
 2244TIP3   OH228222   1.502   0.284  16.689  0.6390  0.1329 -0.2794
 2244TIP3    H128223   1.475   0.297  16.598  0.6480  1.0340 -0.1528
 2244TIP3    H228224   1.420   0.276  16.738  0.6188  0.8861 -0.1877
 2245TIP3   OH228225   6.023   4.616  13.776 -0.1507 -0.0173  0.2580
 2245TIP3    H128226   5.973   4.653  13.849  0.9038 -0.2344  1.1134
 2245TIP3    H228227   5.983   4.530  13.762 -1.3939  0.6518 -0.5048
 2246TIP3   OH228228   1.978   1.291   0.831  0.8060  0.1437  0.1472
 2246TIP3    H128229   1.943   1.377   0.853 -0.3127 -0.1326 -0.4542
 2246TIP3    H228230   1.951   1.277   0.740 -2.5232 -2.4517  1.3347
 2247TIP3   OH228231   2.524   0.289   5.489 -0.1799  0.1040  0.2583
 2247TIP3    H128232   2.506   0.317   5.399 -1.6063  3.1282  1.3535
 2247TIP3    H228233   2.516   0.194   5.486  1.2775 -0.0744 -3.0708
 2248TIP3   OH228234   4.745   5.761   1.125 -0.4727  0.0337 -0.2415
 2248TIP3    H128235   4.663   5.722   1.095 -1.6581  1.2754  1.2414
 2248TIP3    H228236   4.758   5.725   1.213 -0.5831  1.4811  0.3887
 2249TIP3   OH228237   1.208   4.929   6.545  0.1853  0.0463  0.4588
 2249TIP3    H128238   1.295   4.900   6.571 -0.2374  0.5846  2.7474
 2249TIP3    H228239   1.178   4.984   6.618 -2.0616 -0.1246 -0.2413
 2250TIP3   OH228240   5.136   5.747   4.440  0.2025  0.0735  0.1031
 2250TIP3    H128241   5.144   5.823   4.381 -0.7511  0.2272  0.1504
 2250TIP3    H228242   5.068   5.773   4.502  0.6287 -0.4116  0.7760
 2251TIP3   OH228243   5.876   4.953   0.260 -0.0481 -0.1040  0.0773
 2251TIP3    H128244   5.919   4.973   0.177 -1.7589 -0.4080 -0.9222
 2251TIP3    H228245   5.838   5.036   0.288  0.0179 -0.1352  0.2626
 2252TIP3   OH228246   0.599   6.452  17.138  0.3702  0.5114 -0.3759
 2252TIP3    H128247   0.511   6.422  17.160  0.2655  1.4925  0.5824
 2252TIP3    H228248   0.626   6.393  17.067 -0.6115 -0.5167  0.0588
 2253TIP3   OH228249   6.489   0.410   0.026 -0.0703  0.6326  0.3680
 2253TIP3    H128250   6.509   0.368   0.109  0.6001 -0.1378 -0.1787
 2253TIP3    H228251   6.456   0.497   0.051 -0.2717  0.2613  1.4466
 2254TIP3   OH228252   2.257   3.134   4.354  0.1346 -0.5343  0.1737
 2254TIP3    H128253   2.172   3.174   4.373  0.8410  1.2554 -0.1573
 2254TIP3    H228254   2.284   3.176   4.272  2.4323  0.8632  1.5441
 2255TIP3   OH228255   4.132   1.111   3.505  0.1376  0.0884 -0.6680
 2255TIP3    H128256   4.152   1.037   3.447  0.5683  0.1409 -0.5947
 2255TIP3    H228257   4.066   1.077   3.566 -0.1639 -0.0289 -1.0595
 2256TIP3   OH228258   6.180   5.232   5.433 -0.8529  0.0464 -0.7359
 2256TIP3    H128259   6.137   5.290   5.370  1.5497  0.0728 -2.4855
 2256TIP3    H228260   6.180   5.146   5.390  2.7158  0.4755 -1.9656
 2257TIP3   OH228261   4.909   0.435   4.596  0.4736  0.5069 -0.2691
 2257TIP3    H128262   4.836   0.390   4.553  0.3472  0.4800 -0.0271
 2257TIP3    H228263   4.947   0.368   4.653  0.5502  0.5855 -0.2293
 2258TIP3   OH228264   1.242   5.217   2.789  0.0639 -0.9061  0.0480
 2258TIP3    H128265   1.266   5.125   2.803  2.2327 -0.4235 -0.1237
 2258TIP3    H228266   1.197   5.242   2.869 -0.2237 -2.0048  0.2575
 2259TIP3   OH228267   3.090   0.365  15.689 -0.0826  0.0429 -0.2583
 2259TIP3    H128268   3.077   0.427  15.616  1.5686  1.0617  0.2534
 2259TIP3    H228269   3.060   0.413  15.766  0.5427 -0.0724  0.0571
 2260TIP3   OH228270   5.068   1.793  13.820 -0.0195  0.3082  0.0304
 2260TIP3    H128271   5.147   1.843  13.801  0.8823 -1.7020 -1.9304
 2260TIP3    H228272   5.083   1.757  13.908  0.6358  0.9805  0.2054
 2261TIP3   OH228273   5.237   3.997  15.655  0.5193 -0.5234 -0.0982
 2261TIP3    H128274   5.314   3.975  15.602  0.5051 -0.6984 -0.0485
 2261TIP3    H228275   5.237   3.932  15.725 -0.9884 -2.0474 -1.4091
 2262TIP3   OH228276   2.560   2.615  11.459 -0.0712  0.4077 -0.2272
 2262TIP3    H128277   2.516   2.658  11.533  0.6855 -1.4542  1.3988
 2262TIP3    H228278   2.617   2.684  11.423 -1.0929  1.6022  0.3436
 2263TIP3   OH228279   6.238   4.119   1.789 -0.6214  0.3341 -0.6308
 2263TIP3    H128280   6.248   4.201   1.741  2.0981 -0.1276 -1.0163
 2263TIP3    H228281   6.298   4.058   1.746  1.5763 -0.3003  2.9126
 2264TIP3   OH228282   5.285   6.802   6.051 -0.0103 -0.2931 -0.0532
 2264TIP3    H128283   5.277   6.723   5.997  1.5838  0.9555 -2.3141
 2264TIP3    H228284   5.294   6.770   6.140  1.2584 -2.7175 -0.9648
 2265TIP3   OH228285   3.801   5.774  12.691  0.3286 -0.9742  0.2737
 2265TIP3    H128286   3.884   5.734  12.716  1.4999  1.1362 -0.0604
 2265TIP3    H228287   3.760   5.801  12.773  2.5030  2.7063  0.3530
 2266TIP3   OH228288   3.102   0.866   2.909 -0.4142 -0.4190 -0.5767
 2266TIP3    H128289   3.017   0.895   2.944 -1.2699 -3.6291  0.2904
 2266TIP3    H228290   3.157   0.944   2.914 -3.0915  1.6462 -0.5794
 2267TIP3   OH228291   4.001   0.385   3.780  0.1797 -0.1284 -0.8150
 2267TIP3    H128292   3.976   0.402   3.870  1.8376  0.8332 -0.4947
 2267TIP3    H228293   3.925   0.413   3.728 -0.4201  0.2050  0.2186
 2268TIP3   OH228294   1.728   0.943  14.498  0.1653  0.5467  0.2612
 2268TIP3    H128295   1.636   0.925  14.517 -0.1617  0.1097 -1.4846
 2268TIP3    H228296   1.739   1.036  14.516 -0.3254  0.3913  1.4700
 2269TIP3   OH228297   0.796   4.283  14.443 -0.2361 -0.4460  0.2659
 2269TIP3    H128298   0.702   4.268  14.446 -0.3316 -0.2150 -1.0623
 2269TIP3    H228299   0.833   4.201  14.411 -0.0778 -0.2469 -0.0694
 2270TIP3   OH228300   2.187   0.710   5.311  0.4980  0.2815 -0.4368
 2270TIP3    H128301   2.132   0.694   5.234  0.5833 -1.7632 -0.1236
 2270TIP3    H228302   2.138   0.774   5.363 -0.4705  0.2453 -1.2804
 2271TIP3   OH228303   2.200   1.939  14.125  0.6116  0.1175 -0.1035
 2271TIP3    H128304   2.215   2.033  14.128 -0.4199  0.3274 -0.8317
 2271TIP3    H228305   2.233   1.912  14.039  0.2811 -0.0639 -0.1755
 2272TIP3   OH228306   4.465   2.926   4.220  0.3233 -0.8997 -0.1325
 2272TIP3    H128307   4.375   2.949   4.196  0.6047 -0.4467 -0.7742
 2272TIP3    H228308   4.516   3.004   4.198  0.8097 -0.9890  0.6444
 2273TIP3   OH228309   3.967   1.514   4.277  0.3508 -0.0454  0.3447
 2273TIP3    H128310   3.958   1.419   4.272  0.7633 -0.2270  2.2997
 2273TIP3    H228311   3.891   1.543   4.328  0.8496  0.5231  0.7873
 2274TIP3   OH228312   5.194   4.647  16.176  0.3281  0.2983  0.2260
 2274TIP3    H128313   5.160   4.679  16.259  0.9369  1.2859  0.1177
 2274TIP3    H228314   5.210   4.727  16.125  0.1921 -0.2834 -0.7448
 2275TIP3   OH228315   6.577   3.336  16.092 -0.1204  0.4758  0.1233
 2275TIP3    H128316   6.583   3.429  16.070  0.2047  0.1422 -1.3548
 2275TIP3    H228317   6.496   3.307  16.050  1.5033 -0.6112 -2.5625
 2276TIP3   OH228318   3.902   6.302  15.558 -0.1846 -0.4138 -0.9652
 2276TIP3    H128319   3.949   6.284  15.476 -1.0117 -0.5174 -1.4280
 2276TIP3    H228320   3.851   6.380  15.539  2.0734  1.5475  0.4975
 2277TIP3   OH228321   3.628   2.191  11.753 -0.2681  0.4810  0.1367
 2277TIP3    H128322   3.675   2.274  11.753 -0.5429  0.6400  0.9073
 2277TIP3    H228323   3.696   2.125  11.743 -0.0467  0.7938 -0.4611
 2278TIP3   OH228324   3.578   3.290  14.381 -0.1633 -0.0324 -0.2373
 2278TIP3    H128325   3.592   3.383  14.396 -0.0552  0.1584 -1.4340
 2278TIP3    H228326   3.512   3.265  14.446 -0.3579  0.9178 -0.0540
 2279TIP3   OH228327   3.556   2.317   2.811 -0.0209  0.2802 -0.0431
 2279TIP3    H128328   3.589   2.230   2.788  0.2054  0.1248  0.8432
 2279TIP3    H228329   3.613   2.346   2.882 -0.0682  1.1776 -0.3533
 2280TIP3   OH228330   6.515   6.728   5.006 -0.2771  0.2506 -0.2005
 2280TIP3    H128331   6.608   6.710   4.994 -0.2112 -0.3755  1.0275
 2280TIP3    H228332   6.490   6.674   5.082 -2.2832 -1.7852 -2.1402
 2281TIP3   OH228333   1.506   4.589  13.435  0.0139  0.0511 -0.5476
 2281TIP3    H128334   1.461   4.536  13.501 -0.2672 -0.2144 -0.9468
 2281TIP3    H228335   1.577   4.534  13.404  0.7714  0.5523  0.2388
 2282TIP3   OH228336   4.874   1.221   1.385 -0.1305  0.1888 -0.2912
 2282TIP3    H128337   4.928   1.298   1.404 -0.6552  0.4736  0.0835
 2282TIP3    H228338   4.907   1.188   1.302  1.3220 -0.2655  0.4399
 2283TIP3   OH228339   5.362   3.363  16.411  0.5239  0.1883 -0.5254
 2283TIP3    H128340   5.402   3.357  16.324 -0.1375  0.0123 -0.8203
 2283TIP3    H228341   5.350   3.272  16.438  0.3489  0.2412 -0.4243
 2284TIP3   OH228342   6.235   6.315   3.243  0.0226  0.5033 -0.0763
 2284TIP3    H128343   6.276   6.245   3.193 -0.8447 -0.0658 -0.0163
 2284TIP3    H228344   6.231   6.389   3.182 -0.7640 -0.0925 -0.7734
 2285TIP3   OH228345   0.807   4.977  16.342 -0.4058 -0.1224 -0.0947
 2285TIP3    H128346   0.794   4.967  16.248 -2.0240 -0.4748  0.1377
 2285TIP3    H228347   0.834   5.068  16.353  1.4064 -0.5070 -1.0228
 2286TIP3   OH228348   3.440   1.319  17.128 -1.0065  0.2570 -0.1445
 2286TIP3    H128349   3.468   1.306  17.038 -1.1752  1.1096 -0.3319
 2286TIP3    H228350   3.354   1.277  17.133 -1.0331  0.2801 -0.4056
 2287TIP3   OH228351   3.438   0.227  15.404  0.1785 -0.0679  0.0636
 2287TIP3    H128352   3.433   0.199  15.313  1.6174  1.7725 -0.6566
 2287TIP3    H228353   3.520   0.277  15.409 -1.8163  3.4905  1.2472
 2288TIP3   OH228354   3.770   4.420  11.402  0.2721  0.3494  0.0942
 2288TIP3    H128355   3.711   4.479  11.357  0.1748  0.1460 -0.0470
 2288TIP3    H228356   3.852   4.426  11.353 -0.5764 -1.8612 -1.7776
 2289TIP3   OH228357   5.752   0.333   6.452 -0.6619  0.2425 -0.1716
 2289TIP3    H128358   5.804   0.406   6.486 -0.8692  0.1549  0.3389
 2289TIP3    H228359   5.817   0.273   6.415 -0.3885  0.1344  0.4595
 2290TIP3   OH228360   4.999   0.378  11.383 -0.1384  0.4024 -0.5085
 2290TIP3    H128361   4.954   0.432  11.448  0.2009 -0.0549  0.1212
 2290TIP3    H228362   4.934   0.312  11.357  0.1770 -0.3062  0.4582
 2291TIP3   OH228363   6.751   1.867  15.793 -0.4621  0.1607  0.1803
 2291TIP3    H128364   6.777   1.883  15.884  1.1493  1.0462 -0.4002
 2291TIP3    H228365   6.833   1.847  15.748 -0.5593  3.5751 -1.8566
 2292TIP3   OH228366   0.901   1.529   5.445  0.5309  0.2937  0.0118
 2292TIP3    H128367   0.915   1.515   5.352  0.1845  1.2066 -0.1840
 2292TIP3    H228368   0.810   1.503   5.460  0.5241  0.3421  0.0565
 2293TIP3   OH228369   1.279   3.465   0.692 -0.7069  0.7109  0.0927
 2293TIP3    H128370   1.234   3.540   0.654  0.2920  1.4388  0.2957
 2293TIP3    H228371   1.215   3.394   0.688 -1.0698  1.0915 -1.7644
 2294TIP3   OH228372   4.257   3.550   4.133  0.3424 -0.2295 -0.2412
 2294TIP3    H128373   4.215   3.485   4.076  2.0928 -1.1309 -0.5806
 2294TIP3    H228374   4.249   3.632   4.084 -0.3665 -0.5128 -0.6221
 2295TIP3   OH228375   6.762   3.809  15.087 -0.4019  0.1819 -0.4560
 2295TIP3    H128376   6.796   3.843  15.005  1.0721  1.6276  0.6883
 2295TIP3    H228377   6.816   3.732  15.106 -0.6998 -0.1137 -0.7891
 2296TIP3   OH228378   0.268   1.516  15.282  0.1486 -0.0167 -0.4864
 2296TIP3    H128379   0.230   1.441  15.327  0.5265 -0.7922 -1.4244
 2296TIP3    H228380   0.340   1.479  15.230 -0.1710  0.8583 -1.5887
 2297TIP3   OH228381   5.047   4.134   4.513 -0.1419  0.6776 -0.1163
 2297TIP3    H128382   5.066   4.083   4.592  0.9886  2.7709  1.0572
 2297TIP3    H228383   4.959   4.168   4.527 -0.8726 -0.8110 -0.8724
 2298TIP3   OH228384   0.725   2.508   1.611  0.0510  0.4631  0.3858
 2298TIP3    H128385   0.652   2.473   1.663 -0.0318  0.9125  0.5791
 2298TIP3    H228386   0.693   2.506   1.521  0.7825 -1.8383  0.1198
 2299TIP3   OH228387   5.159   6.536   3.790 -0.3637  0.0235  0.1287
 2299TIP3    H128388   5.188   6.456   3.748  0.3890  0.2425  0.2103
 2299TIP3    H228389   5.086   6.567   3.737 -1.7732 -1.5816  1.0341
 2300TIP3   OH228390   6.459   6.767  14.412  0.2475 -0.6986 -0.6249
 2300TIP3    H128391   6.380   6.818  14.428 -0.6057 -2.4710  1.2007
 2300TIP3    H228392   6.437   6.710  14.338  0.1999 -0.4377 -0.8115
 2301TIP3   OH228393   5.605   5.510  14.459  0.2903  1.1616 -0.0404
 2301TIP3    H128394   5.612   5.415  14.448  1.1448  1.3722 -1.8079
 2301TIP3    H228395   5.696   5.540  14.466 -0.0227  1.7457  1.8394
 2302TIP3   OH228396   2.885   1.943   5.479  0.5075 -0.1852  0.3854
 2302TIP3    H128397   2.908   1.994   5.557 -1.8836  1.2259  0.2684
 2302TIP3    H228398   2.825   1.875   5.511 -1.0816  0.8575 -0.2465
 2303TIP3   OH228399   0.978   0.968  12.702  0.1957 -0.5874  0.4473
 2303TIP3    H128400   1.060   1.003  12.667  0.2961  0.3703  1.5803
 2303TIP3    H228401   0.910   1.023  12.662  0.3790  1.3938  2.6078
 2304TIP3   OH228402   1.846   2.723   3.359  0.2545 -0.1918 -0.7601
 2304TIP3    H128403   1.917   2.712   3.422 -0.8854  0.7211  0.7419
 2304TIP3    H228404   1.862   2.809   3.319 -1.8446  1.7630  2.1903
 2305TIP3   OH228405   6.184   3.592  10.906 -0.6005  0.3430 -0.1471
 2305TIP3    H128406   6.090   3.574  10.906 -0.5717  0.0914 -1.3493
 2305TIP3    H228407   6.205   3.612  10.997 -1.3259 -2.2857  0.7016
 2306TIP3   OH228408   3.823   4.867  15.605  0.0230  0.4641 -0.1301
 2306TIP3    H128409   3.876   4.936  15.645 -0.0760  0.1093  0.6187
 2306TIP3    H228410   3.736   4.906  15.595 -0.5651 -0.1586  2.0970
 2307TIP3   OH228411   0.004   0.051   5.818 -0.4570 -0.3868 -0.6193
 2307TIP3    H128412  -0.083   0.073   5.786  0.0687  0.1057 -1.7687
 2307TIP3    H228413  -0.008   0.031   5.911 -2.1592 -2.5603 -1.2210
 2308TIP3   OH228414   5.184   3.615  13.482 -0.0273  0.5174  0.9022
 2308TIP3    H128415   5.257   3.570  13.526  1.1299  1.7207  0.3023
 2308TIP3    H228416   5.214   3.706  13.475 -0.5627  0.5679 -1.4917
 2309TIP3   OH228417   1.028   1.276  12.187 -0.3211  0.0501  0.4402
 2309TIP3    H128418   1.008   1.204  12.247  0.1672 -0.3275  0.1571
 2309TIP3    H228419   1.118   1.300  12.207  0.6753 -1.6355 -1.6979
 2310TIP3   OH228420   1.003   6.270  16.933 -1.0188  0.3651 -0.3888
 2310TIP3    H128421   0.992   6.193  16.878  0.5912 -0.4896  0.4041
 2310TIP3    H228422   1.001   6.236  17.023  0.0905  1.1630 -0.0372
 2311TIP3   OH228423   1.651   1.127  15.084 -0.1676 -0.1372 -0.0352
 2311TIP3    H128424   1.686   1.121  15.173 -1.1235 -0.3779  0.3438
 2311TIP3    H228425   1.694   1.204  15.046  1.1752 -0.7468  0.1927
 2312TIP3   OH228426   4.749   5.657  13.758  0.1864 -0.0447  0.3349
 2312TIP3    H128427   4.729   5.596  13.686 -2.9016  1.9311 -0.7080
 2312TIP3    H228428   4.785   5.735  13.715  1.5171 -0.0559  1.3536
 2313TIP3   OH228429   6.339   2.262  14.733 -0.5504 -0.2060 -0.1520
 2313TIP3    H128430   6.364   2.171  14.752 -0.5382 -0.2352 -0.3070
 2313TIP3    H228431   6.279   2.285  14.803  0.2742  0.0198  0.5023
 2314TIP3   OH228432   1.783   4.926   2.156  0.1967  0.5569  0.1305
 2314TIP3    H128433   1.718   4.996   2.152  2.2605  2.6382  0.2201
 2314TIP3    H228434   1.854   4.963   2.209  1.1388 -1.8971  0.7402
 2315TIP3   OH228435   6.362   6.169  11.327  0.0082  0.4261 -0.5266
 2315TIP3    H128436   6.335   6.138  11.413  0.8629 -2.2623 -1.1420
 2315TIP3    H228437   6.434   6.229  11.345  1.0317 -1.0786  0.6161
 2316TIP3   OH228438   6.738   0.049   2.006  0.3453 -0.2182 -0.0656
 2316TIP3    H128439   6.727   0.009   2.093 -0.9638 -1.9297 -0.9427
 2316TIP3    H228440   6.651   0.083   1.985  0.8423  0.8649 -0.4182
 2317TIP3   OH228441   3.059   0.017   0.112  0.0524  0.1695  0.0985
 2317TIP3    H128442   3.044  -0.078   0.116 -0.2868  0.0706 -2.3173
 2317TIP3    H228443   3.083   0.034   0.021  1.2542  2.2763  0.7424
 2318TIP3   OH228444   1.258   2.115  17.180 -0.5115  0.4423 -0.3441
 2318TIP3    H128445   1.275   2.140  17.089 -1.8281  0.9777 -0.4526
 2318TIP3    H228446   1.175   2.156  17.201 -2.0663 -2.6211 -0.0570
 2319TIP3   OH228447   1.350   6.672   5.388  0.2175 -0.3684  0.1103
 2319TIP3    H128448   1.367   6.691   5.481  0.6316 -1.0528  0.1778
 2319TIP3    H228449   1.437   6.661   5.350  0.0600  0.2052 -0.4291
 2320TIP3   OH228450   3.670   4.258  10.545  0.2242  0.7561  0.1359
 2320TIP3    H128451   3.681   4.325  10.477  0.6255  1.3314  0.7551
 2320TIP3    H228452   3.757   4.221  10.558 -0.3594 -1.5482 -1.8229
 2321TIP3   OH228453   0.971   4.238  17.142  0.1452 -0.0476 -0.0221
 2321TIP3    H128454   1.014   4.206  17.221 -2.0030  0.6665  1.5497
 2321TIP3    H228455   1.021   4.314  17.116  1.9114 -1.2894 -0.4314
 2322TIP3   OH228456   6.226   4.482   3.137 -0.0183  0.1024  0.7911
 2322TIP3    H128457   6.134   4.484   3.165 -0.7092 -1.3182 -1.0925
 2322TIP3    H228458   6.264   4.408   3.184 -0.2577 -0.1980  0.5233
 2323TIP3   OH228459   2.312   2.297   1.546  0.2301  0.5977 -1.1582
 2323TIP3    H128460   2.289   2.365   1.483  2.1004  1.5516 -0.9016
 2323TIP3    H228461   2.385   2.251   1.505 -0.1859 -0.4298 -0.7652
 2324TIP3   OH228462   4.985   3.077  11.856  0.0765 -0.4735 -0.0815
 2324TIP3    H128463   5.034   3.159  11.856 -0.7340  0.0249  0.2110
 2324TIP3    H228464   4.944   3.073  11.770 -0.9704  0.1136  0.3685
 2325TIP3   OH228465   6.245   1.131   6.204  0.4093  0.0497 -0.4415
 2325TIP3    H128466   6.189   1.053   6.202 -0.7075  0.8152 -0.2874
 2325TIP3    H228467   6.298   1.121   6.283 -0.2425 -0.2133 -0.0277
 2326TIP3   OH228468   2.267   5.547  16.547  0.1439 -0.8200  1.0064
 2326TIP3    H128469   2.351   5.501  16.548  0.7422 -0.8449 -5.6849
 2326TIP3    H228470   2.202   5.478  16.531 -0.1983 -0.2831 -0.0258
 2327TIP3   OH228471   5.362   4.287   6.340 -0.2600  0.1685 -0.2681
 2327TIP3    H128472   5.370   4.243   6.255  0.4227 -0.0769 -0.0837
 2327TIP3    H228473   5.298   4.357   6.325 -0.2267  0.0548 -0.9569
 2328TIP3   OH228474   4.618   5.836  12.074 -0.2252  0.8086 -0.2404
 2328TIP3    H128475   4.589   5.926  12.089 -0.8062  0.7048 -0.7492
 2328TIP3    H228476   4.605   5.821  11.981 -2.1227 -0.4967  0.1832
 2329TIP3   OH228477   4.800   4.068   4.763  0.0386 -0.0807 -0.2954
 2329TIP3    H128478   4.714   4.094   4.795 -0.5584  0.6433 -2.3272
 2329TIP3    H228479   4.782   4.022   4.681  1.4842 -1.8334  0.3015
 2330TIP3   OH228480   3.227   6.009   2.613 -0.3743 -0.8335 -0.1101
 2330TIP3    H128481   3.278   5.932   2.640  0.6691 -0.3449 -0.6338
 2330TIP3    H228482   3.290   6.081   2.618 -0.9928 -0.2362 -0.9085
 2331TIP3   OH228483   4.419   6.011  12.794  0.6299  0.2018  0.4072
 2331TIP3    H128484   4.434   5.940  12.732  2.7183  1.1677 -0.3106
 2331TIP3    H228485   4.461   5.981  12.875  0.9478  0.3426  0.2968
 2332TIP3   OH228486   2.788   3.280   0.852  0.2892  0.0326 -0.2997
 2332TIP3    H128487   2.832   3.204   0.815 -0.6122 -0.0913 -1.1525
 2332TIP3    H228488   2.714   3.244   0.901 -0.4433  0.3590 -1.1284
 2333TIP3   OH228489   1.614   3.897  11.918  0.3349  0.1637  0.2689
 2333TIP3    H128490   1.658   3.821  11.955 -0.0112 -0.2194 -0.1014
 2333TIP3    H228491   1.521   3.874  11.919  0.3291  0.0869 -0.9437
 2334TIP3   OH228492   0.623   1.717  15.946  0.0014  0.0535  0.2981
 2334TIP3    H128493   0.601   1.804  15.912 -0.6497 -0.0673  0.4113
 2334TIP3    H228494   0.540   1.669  15.948  0.0804 -0.0843  1.6498
 2335TIP3   OH228495   1.411   5.514   0.993 -0.3449  0.0195  0.4531
 2335TIP3    H128496   1.412   5.419   0.981 -0.6538  0.1514 -0.7573
 2335TIP3    H228497   1.489   5.533   1.045 -0.0819 -0.8570  0.3909
 2336TIP3   OH228498   2.057   4.894   5.965 -0.2027  0.2147  0.3609
 2336TIP3    H128499   2.051   4.928   6.054 -0.9097  1.9752 -0.3135
 2336TIP3    H228500   2.074   4.971   5.911  1.1692 -0.9269 -0.9483
 2337TIP3   OH228501   1.284   3.908  16.613 -0.2525 -0.1029 -0.2567
 2337TIP3    H128502   1.221   3.978  16.597 -0.0149  0.1152 -0.2477
 2337TIP3    H228503   1.322   3.890  16.527 -0.4721 -0.3785 -0.2985
 2338TIP3   OH228504   1.420   0.347   2.614 -0.3880  0.5262  0.1345
 2338TIP3    H128505   1.484   0.314   2.552  0.5685  1.1420  0.7680
 2338TIP3    H228506   1.375   0.268   2.646  1.8286 -0.2315  1.6031
 2339TIP3   OH228507   6.401   3.186   3.583  0.2675 -0.6584  0.2677
 2339TIP3    H128508   6.439   3.245   3.518 -0.1498 -0.0012  0.6140
 2339TIP3    H228509   6.316   3.225   3.604 -0.3584 -1.8073 -0.0707
 2340TIP3   OH228510   0.268   2.637  15.033  0.0197  0.7170  0.1416
 2340TIP3    H128511   0.342   2.586  15.000 -0.7632 -0.3176 -0.0710
 2340TIP3    H228512   0.199   2.572  15.048 -1.1222  1.7530 -0.4536
 2341TIP3   OH228513   2.165   3.537  10.892  0.4800 -0.3412 -0.0719
 2341TIP3    H128514   2.080   3.556  10.931  0.9411 -1.8179  1.8050
 2341TIP3    H228515   2.164   3.583  10.808 -1.7774  0.4484  0.3230
 2342TIP3   OH228516   4.862   5.063   3.340 -0.1430 -0.0206  0.0871
 2342TIP3    H128517   4.794   5.041   3.277  0.1146 -0.3663 -0.0737
 2342TIP3    H228518   4.931   5.104   3.288 -0.7469  1.5128  0.4198
 2343TIP3   OH228519   3.737   0.057  11.637  0.4759 -0.3990 -0.5278
 2343TIP3    H128520   3.783   0.086  11.716 -0.9790  0.3367  0.1048
 2343TIP3    H228521   3.691   0.136  11.607 -0.8490 -1.2188 -0.7437
 2344TIP3   OH228522   2.695   0.648   4.888 -0.0458  0.4467 -0.1711
 2344TIP3    H128523   2.676   0.645   4.795  0.1473 -0.4292 -0.1919
 2344TIP3    H228524   2.781   0.606   4.897 -0.3660 -0.0937  0.4742
 2345TIP3   OH228525   2.890   1.274  14.213 -0.3008 -0.1164 -0.7803
 2345TIP3    H128526   2.934   1.288  14.129 -0.1444  0.9170 -0.5360
 2345TIP3    H228527   2.960   1.263  14.276 -0.3912  0.5275 -0.5582
 2346TIP3   OH228528   3.149   1.725  13.146  0.0180 -0.0284  0.0674
 2346TIP3    H128529   3.067   1.731  13.194 -0.0288 -0.1349  0.0005
 2346TIP3    H228530   3.170   1.816  13.124 -0.8332 -0.1058 -1.1727
 2347TIP3   OH228531   5.125   3.965  16.888  0.5740 -0.3538  0.0840
 2347TIP3    H128532   5.153   3.991  16.976  1.9398  2.2034 -1.0279
 2347TIP3    H228533   5.205   3.960  16.837 -0.3666  0.1253 -1.4994
 2348TIP3   OH228534   2.376   2.795  11.666  0.2599 -1.2714  0.4990
 2348TIP3    H128535   2.309   2.811  11.600  0.4332  0.6008  0.7202
 2348TIP3    H228536   2.344   2.719  11.716 -0.8713 -1.4092 -0.4125
 2349TIP3   OH228537   1.213   5.143  16.741  0.3055  0.0166  0.1090
 2349TIP3    H128538   1.196   5.202  16.668 -1.8923  0.6332  1.0084
 2349TIP3    H228539   1.306   5.153  16.760  0.7931  0.2891 -2.1722
 2350TIP3   OH228540   6.143   6.317   5.435  0.4439  0.0027 -0.1860
 2350TIP3    H128541   6.067   6.281   5.481  0.9748 -1.5001 -0.4444
 2350TIP3    H228542   6.219   6.281   5.481  0.9887 -0.7829 -1.6159
 2351TIP3   OH228543   5.236   3.715   0.526 -0.1131  0.4762  0.3744
 2351TIP3    H128544   5.183   3.692   0.450 -0.7501 -0.3672  1.0398
 2351TIP3    H228545   5.305   3.771   0.492 -2.1046  2.6376 -0.3456
 2352TIP3   OH228546   6.824   6.777  16.819  0.3947 -1.0601 -0.9360
 2352TIP3    H128547   6.871   6.781  16.903 -4.0467 -3.2706  2.1083
 2352TIP3    H228548   6.831   6.686  16.792 -0.0634 -0.8626 -1.7458
 2353TIP3   OH228549   4.104   1.019   4.343  0.4000 -0.1065 -0.1089
 2353TIP3    H128550   4.156   1.007   4.422 -0.5500 -0.8530  0.4247
 2353TIP3    H228551   4.168   1.017   4.271  1.0499 -1.6595  0.4732
 2354TIP3   OH228552   2.583   1.394   2.948  0.1390  0.2725  0.5160
 2354TIP3    H128553   2.599   1.361   3.036  0.2341  1.5299  0.9984
 2354TIP3    H228554   2.531   1.473   2.962  0.3076  0.5819 -0.5386
 2355TIP3   OH228555   4.811   6.056   1.955  0.2006  0.2679  0.2040
 2355TIP3    H128556   4.879   5.998   1.921  0.2760  0.9730 -0.8950
 2355TIP3    H228557   4.828   6.140   1.912 -0.7883  0.7101  0.6536
 2356TIP3   OH228558   1.756   2.450   0.607  0.4027  0.2667 -0.2302
 2356TIP3    H128559   1.740   2.381   0.672  1.1973  1.0063  0.7835
 2356TIP3    H228560   1.842   2.430   0.571 -0.9988 -1.5119 -2.8737
 2357TIP3   OH228561   2.463   4.293   3.484 -0.1384  0.0900 -0.0302
 2357TIP3    H128562   2.451   4.310   3.577  1.4957  0.2498  0.1924
 2357TIP3    H228563   2.431   4.372   3.440 -0.9241  0.0065  0.3861
 2358TIP3   OH228564   4.619   5.928   0.780  0.1260  0.1159  0.3236
 2358TIP3    H128565   4.707   5.890   0.784 -0.1542 -0.6519 -0.5110
 2358TIP3    H228566   4.630   6.008   0.728  0.2867 -0.1557 -0.0725
 2359TIP3   OH228567   4.346   0.372  12.234 -0.4532  0.3375  0.4056
 2359TIP3    H128568   4.403   0.437  12.276 -0.4905  0.3468  0.4406
 2359TIP3    H228569   4.257   0.401  12.253 -0.4816  0.8797 -0.4910
 2360TIP3   OH228570   3.199   2.844   5.970  0.3126  0.5577 -0.2414
 2360TIP3    H128571   3.246   2.928   5.970  0.3674  0.5276 -0.0941
 2360TIP3    H228572   3.199   2.817   5.878  2.7711 -0.6474  0.0189
 2361TIP3   OH228573   5.540   6.067   2.366  1.1053 -0.4385  0.2325
 2361TIP3    H128574   5.609   6.018   2.410  0.9288  0.0229  1.0557
 2361TIP3    H228575   5.463   6.055   2.422  1.2807  1.4891  0.9799
 2362TIP3   OH228576   4.657   4.149   2.093 -0.0102 -0.6072  0.0530
 2362TIP3    H128577   4.630   4.228   2.140  0.1135 -0.8355  0.5096
 2362TIP3    H228578   4.740   4.123   2.134  0.5591 -0.3144 -0.8701
 2363TIP3   OH228579   0.837   5.304  14.519 -0.4585  0.2146  0.0762
 2363TIP3    H128580   0.781   5.326  14.444  1.1999  0.6990 -1.0734
 2363TIP3    H228581   0.882   5.225  14.492 -1.3490 -0.7946  1.4393
 2364TIP3   OH228582   1.625   1.751   1.004 -0.3339 -0.0760  0.0712
 2364TIP3    H128583   1.697   1.698   0.970  2.6517  1.3671  3.4983
 2364TIP3    H228584   1.596   1.705   1.082  0.2171  1.6871  1.3800
 2365TIP3   OH228585   3.316   0.653   0.061  0.2068 -0.0411 -0.1774
 2365TIP3    H128586   3.347   0.585   0.000  1.3120  1.8859 -1.8936
 2365TIP3    H228587   3.232   0.620   0.092  0.1132 -1.6427 -1.9124
 2366TIP3   OH228588   4.338   3.708   3.616 -0.8006  0.3767  0.5764
 2366TIP3    H128589   4.288   3.655   3.553 -0.1807  0.4743 -0.0171
 2366TIP3    H228590   4.311   3.798   3.597  1.6267  0.7352 -1.7171
 2367TIP3   OH228591   6.754   3.165   6.451 -0.8127  0.3743  0.5581
 2367TIP3    H128592   6.728   3.252   6.482  0.2340  0.7796  0.3439
 2367TIP3    H228593   6.671   3.119   6.436 -1.4122  1.6544 -0.2418
 2368TIP3   OH228594   5.792   0.326   2.698 -0.3285  0.8410 -1.3780
 2368TIP3    H128595   5.746   0.318   2.781  0.2118  0.6660 -1.0901
 2368TIP3    H228596   5.732   0.287   2.634 -1.1073  1.7394 -1.2169
 2369TIP3   OH228597   1.625   6.234   1.065 -0.1990  0.4289 -0.2849
 2369TIP3    H128598   1.594   6.276   0.984 -0.6433 -1.1639 -0.9934
 2369TIP3    H228599   1.719   6.226   1.053 -0.1508  0.9457 -0.2749
 2370TIP3   OH228600   3.511   0.153   2.148 -0.3229  0.3260  0.0445
 2370TIP3    H128601   3.540   0.177   2.236 -2.2095 -0.0158  0.8232
 2370TIP3    H228602   3.415   0.160   2.152 -0.4550  0.3396 -2.0052
 2371TIP3   OH228603   6.376   3.942  14.501 -0.3802 -0.6183 -0.1965
 2371TIP3    H128604   6.452   3.918  14.553 -0.8897 -2.9179 -0.4094
 2371TIP3    H228605   6.340   3.858  14.470 -0.0511  0.5524 -4.3444
 2372TIP3   OH228606   0.586   5.384  15.335 -0.2348 -0.4459 -0.2452
 2372TIP3    H128607   0.639   5.341  15.267  1.1467  0.7048  0.0526
 2372TIP3    H228608   0.636   5.462  15.358 -2.3451  0.9892 -0.2957
 2373TIP3   OH228609   2.808   2.899  16.722 -0.1383 -0.2779  0.0194
 2373TIP3    H128610   2.883   2.947  16.759  0.5391 -0.4451 -1.0983
 2373TIP3    H228611   2.734   2.924  16.778  0.8289 -0.4796  1.4364
 2374TIP3   OH228612   4.087   2.416   3.248 -0.2575 -0.0560 -0.5038
 2374TIP3    H128613   4.035   2.354   3.298  0.1156 -1.6703 -2.0198
 2374TIP3    H228614   4.141   2.460   3.313 -0.4008 -1.4688  0.6145
 2375TIP3   OH228615   3.489   3.410   1.407  0.2365 -0.4513  0.6475
 2375TIP3    H128616   3.539   3.455   1.475 -1.3410  0.8708  0.9979
 2375TIP3    H228617   3.477   3.476   1.339 -1.7443 -0.4147  0.9636
 2376TIP3   OH228618   3.982   6.782  16.579  0.2740  0.3264  0.3552
 2376TIP3    H128619   4.067   6.756  16.614 -0.1232 -1.8934 -0.1929
 2376TIP3    H228620   3.944   6.702  16.545 -0.9083  1.7302 -1.8947
 2377TIP3   OH228621   4.344   3.781  14.273  0.1880  0.1940  0.6315
 2377TIP3    H128622   4.405   3.762  14.345  1.1941  1.8964  0.2743
 2377TIP3    H228623   4.264   3.811  14.317  0.5371  0.5147  1.0602
 2378TIP3   OH228624   0.559   1.324  14.875  0.2648  0.2440 -0.2156
 2378TIP3    H128625   0.601   1.382  14.939  0.7089  0.9116 -1.0872
 2378TIP3    H228626   0.584   1.236  14.902 -0.2049  0.4550  0.9874
 2379TIP3   OH228627   6.714   2.208  14.795  0.2402 -0.1664 -0.1715
 2379TIP3    H128628   6.676   2.150  14.862 -0.8149  1.4289  0.6992
 2379TIP3    H228629   6.754   2.280  14.845 -0.4853  1.0208 -1.2206
 2380TIP3   OH228630   2.379   0.384  15.647 -0.1563 -0.3039  0.3164
 2380TIP3    H128631   2.429   0.318  15.695 -3.0019 -1.9137  1.2850
 2380TIP3    H228632   2.365   0.454  15.710 -1.1897 -0.9882  0.8730
 2381TIP3   OH228633   2.923   4.499  14.054  0.3590 -0.5039  0.2363
 2381TIP3    H128634   2.987   4.446  14.102 -1.2687 -1.5843  1.3280
 2381TIP3    H228635   2.906   4.574  14.111 -0.4814 -1.0242  0.6822
 2382TIP3   OH228636   5.856   2.295  14.597 -0.6337 -0.6497  0.0865
 2382TIP3    H128637   5.845   2.383  14.563 -1.5699 -1.6270 -2.3296
 2382TIP3    H228638   5.788   2.286  14.664 -2.9424 -0.6537 -2.1476
 2383TIP3   OH228639   1.400   4.385   3.400  0.1337 -0.6362 -0.2511
 2383TIP3    H128640   1.364   4.426   3.321 -0.2653 -0.0958  0.2031
 2383TIP3    H228641   1.416   4.294   3.375 -2.2476 -1.1108 -0.2664
 2384TIP3   OH228642   3.452   4.982   1.849  0.2190 -0.0048  0.3434
 2384TIP3    H128643   3.443   4.978   1.753 -0.1309 -1.2558  0.4071
 2384TIP3    H228644   3.476   5.073   1.867 -1.7195  0.7857 -0.7467
 2385TIP3   OH228645   5.855   0.123   4.221  0.2357  0.0885 -0.7117
 2385TIP3    H128646   5.950   0.107   4.225  0.0047 -1.0568  0.7308
 2385TIP3    H228647   5.841   0.156   4.132  1.9600  0.1286 -1.0120
 2386TIP3   OH228648   2.326   4.810  14.596  0.0796  0.2891 -0.0758
 2386TIP3    H128649   2.291   4.874  14.658 -0.5031 -0.9148  0.8753
 2386TIP3    H228650   2.404   4.775  14.639  0.1273  0.0161 -0.3832
 2387TIP3   OH228651   4.657   5.340   2.074  0.3159 -0.2045  0.5520
 2387TIP3    H128652   4.703   5.352   1.991 -1.1561  0.1979 -0.2276
 2387TIP3    H228653   4.680   5.251   2.101 -0.5214 -0.9971 -1.1675
 2388TIP3   OH228654   5.565   5.470   3.675 -0.0227 -0.3071  0.2084
 2388TIP3    H128655   5.538   5.394   3.726 -1.7241  0.8986  1.2136
 2388TIP3    H228656   5.483   5.513   3.649  0.8671  0.6320 -1.2068
 2389TIP3   OH228657   1.188   3.426  11.647  1.0663 -0.2834  0.0657
 2389TIP3    H128658   1.207   3.381  11.730 -0.4953 -0.5952  0.2774
 2389TIP3    H228659   1.136   3.364  11.597  0.3768  0.6274 -0.3681
 2390TIP3   OH228660   2.814   2.869  15.185 -0.0853 -0.0421 -0.4690
 2390TIP3    H128661   2.810   2.921  15.265  0.1533  1.0781 -1.1753
 2390TIP3    H228662   2.894   2.897  15.141 -0.6534 -0.0115 -1.5223
 2391TIP3   OH228663   1.663   0.690  10.939 -0.1064  0.3084 -0.2093
 2391TIP3    H128664   1.709   0.721  10.860  0.4177  0.3042  0.0893
 2391TIP3    H228665   1.621   0.769  10.974 -0.8770  0.1848 -0.8478
 2392TIP3   OH228666   3.247   4.054  14.989 -0.2546 -0.4488 -0.7830
 2392TIP3    H128667   3.185   3.991  14.953 -0.4877 -0.7155  0.0640
 2392TIP3    H228668   3.194   4.133  15.005 -0.4373 -0.7419  0.1264
 2393TIP3   OH228669   4.694   6.332   4.115 -0.1776 -0.8222  0.0736
 2393TIP3    H128670   4.720   6.249   4.075  0.1779 -1.7966  2.2156
 2393TIP3    H228671   4.637   6.307   4.187  0.7010  0.7308  1.3621
 2394TIP3   OH228672   2.944   3.642  13.006 -0.2908  0.2230 -0.3956
 2394TIP3    H128673   2.976   3.722  12.963  1.3529 -0.5206 -0.6510
 2394TIP3    H228674   2.936   3.668  13.098  0.4713  0.6449 -0.4292
 2395TIP3   OH228675   1.141   2.893  12.022 -0.7197 -0.3130  0.6168
 2395TIP3    H128676   1.057   2.899  11.977 -0.6997 -0.9262  0.5008
 2395TIP3    H228677   1.205   2.880  11.953 -0.5729 -0.2757  0.7445
 2396TIP3   OH228678   2.860   3.227  11.428  0.3923 -0.3203 -0.6964
 2396TIP3    H128679   2.892   3.278  11.353  1.0335 -0.7512 -0.7203
 2396TIP3    H228680   2.789   3.174  11.392  0.3714 -0.1614 -0.8895
 2397TIP3   OH228681   6.463   4.946  11.426  0.3694 -0.3396  0.3874
 2397TIP3    H128682   6.538   4.903  11.384  0.4211  0.0922  0.0255
 2397TIP3    H228683   6.485   5.039  11.424 -0.5023 -0.1381 -0.4046
 2398TIP3   OH228684   5.542   3.367  11.381 -0.2603 -0.0108 -0.1150
 2398TIP3    H128685   5.545   3.353  11.286  1.4647 -0.0881 -0.0929
 2398TIP3    H228686   5.627   3.334  11.412 -1.5673 -1.8435  1.7379
 2399TIP3   OH228687   4.524   6.015   0.349  0.3088 -0.5403 -0.1447
 2399TIP3    H128688   4.493   6.095   0.392  1.8414  0.0000  0.0102
 2399TIP3    H228689   4.545   5.956   0.422  0.1283 -0.7157 -0.2340
 2400TIP3   OH228690   2.681   4.942   1.943  0.5646 -0.3385 -0.7227
 2400TIP3    H128691   2.630   5.002   1.889 -0.1147 -0.2167  0.0345
 2400TIP3    H228692   2.718   4.998   2.012  1.7648 -0.4180 -1.2828
 2401TIP3   OH228693   0.417   0.961   3.802  0.1421  0.4844 -0.3678
 2401TIP3    H128694   0.339   1.016   3.811 -0.3945 -0.3153  0.0169
 2401TIP3    H228695   0.420   0.939   3.709 -0.6153 -0.2016 -0.2489
 2402TIP3   OH228696   4.467   5.012   0.425  0.0687  0.2414  0.4568
 2402TIP3    H128697   4.533   5.007   0.357  0.7011 -1.4176  1.1320
 2402TIP3    H228698   4.408   4.938   0.407 -1.0405  1.0901  0.4497
 2403TIP3   OH228699   2.086   5.089   1.932  0.6871 -0.1899 -0.4142
 2403TIP3    H128700   2.068   5.061   1.842  1.9863 -0.6527 -0.5447
 2403TIP3    H228701   2.179   5.110   1.932  0.6851 -0.1475  0.8169
 2404TIP3   OH228702   5.697   3.363   0.299  0.2972  0.3612  0.1450
 2404TIP3    H128703   5.760   3.292   0.309  0.0806  0.2118  0.4508
 2404TIP3    H228704   5.683   3.369   0.204 -0.4182 -0.6605  0.1668
 2405TIP3   OH228705   4.190   2.228   1.869 -0.3106  0.6049  0.0684
 2405TIP3    H128706   4.118   2.249   1.929  1.7140 -0.9595  3.3235
 2405TIP3    H228707   4.192   2.132   1.866  1.1091  0.6238 -0.5575
 2406TIP3   OH228708   4.455   1.052  11.421  0.1908 -0.8070 -0.7030
 2406TIP3    H128709   4.449   1.047  11.516  0.2589  1.4880 -0.5210
 2406TIP3    H228710   4.364   1.044  11.391 -0.2146  1.2587 -0.1996
 2407TIP3   OH228711   2.931   5.648  14.831 -0.2851  0.5714  0.0834
 2407TIP3    H128712   2.884   5.732  14.828  0.3248  0.9284  0.3485
 2407TIP3    H228713   3.022   5.673  14.847  0.2883  0.0072 -1.9414
 2408TIP3   OH228714   0.549   1.545   0.594  0.4690  0.2867 -0.5166
 2408TIP3    H128715   0.467   1.588   0.571 -0.1492 -0.2326  0.6452
 2408TIP3    H228716   0.555   1.471   0.534 -0.1879  0.0147 -0.2553
 2409TIP3   OH228717   5.358   4.261   5.385  0.6165 -0.0602  0.6666
 2409TIP3    H128718   5.340   4.185   5.440  1.5884  0.2149  1.3705
 2409TIP3    H228719   5.305   4.331   5.423 -0.5717 -0.4525 -0.2060
 2410TIP3   OH228720   3.976   3.763  11.209 -0.4069 -0.4730  0.5385
 2410TIP3    H128721   3.947   3.729  11.293  2.1599 -2.9310  0.5425
 2410TIP3    H228722   3.980   3.687  11.151 -1.4540  1.0339 -1.7125
 2411TIP3   OH228723   5.923   4.932   3.467  0.4399  0.4436  0.0472
 2411TIP3    H128724   6.003   4.963   3.509  0.5539  0.4467 -0.1706
 2411TIP3    H228725   5.911   4.843   3.499 -0.0626  0.8099  0.9285
 2412TIP3   OH228726   3.881   0.917   1.862 -0.0814  0.0754  0.5736
 2412TIP3    H128727   3.924   1.003   1.863  0.1300  0.0015 -0.7685
 2412TIP3    H228728   3.934   0.863   1.921  0.0601  0.7214  1.0575
 2413TIP3   OH228729   0.844   4.561  10.469  0.2404  0.1543 -0.3005
 2413TIP3    H128730   0.900   4.553  10.546  1.8545  0.6882 -1.3805
 2413TIP3    H228731   0.764   4.512  10.493  0.0774  1.4560  2.2213
 2414TIP3   OH228732   5.913   5.001  13.073  0.1756 -0.1134 -0.1732
 2414TIP3    H128733   5.875   4.914  13.089  3.7887 -1.7713  0.3756
 2414TIP3    H228734   5.991   4.983  13.020  1.0287  2.8173 -0.0628
 2415TIP3   OH228735   1.716   0.765  16.371 -0.1199 -0.5909  0.6808
 2415TIP3    H128736   1.756   0.799  16.451  1.2579 -0.0232 -0.2228
 2415TIP3    H228737   1.753   0.677  16.361  1.8044  0.3083 -0.7008
 2416TIP3   OH228738   0.800   2.371   6.654  0.4362 -0.0052  0.0069
 2416TIP3    H128739   0.763   2.361   6.566 -0.2889 -0.3565  0.3430
 2416TIP3    H228740   0.890   2.338   6.646  0.1834 -0.6022 -0.4618
 2417TIP3   OH228741   6.624   2.506   2.326 -0.1619  0.0011  0.0111
 2417TIP3    H128742   6.671   2.425   2.304  0.8097  0.0950  1.5770
 2417TIP3    H228743   6.578   2.529   2.246  2.3261 -0.2047 -1.5971
 2418TIP3   OH228744   5.971   2.760   2.107  0.2778  0.4270  0.1616
 2418TIP3    H128745   5.904   2.728   2.046  0.2454 -0.4210  0.6263
 2418TIP3    H228746   6.014   2.680   2.138  2.1542  0.9912 -0.8446
 2419TIP3   OH228747   4.997   1.815  13.407  0.1643 -0.3398 -0.5005
 2419TIP3    H128748   5.074   1.866  13.433 -0.4618  0.1332  0.5167
 2419TIP3    H228749   4.923   1.873  13.426 -0.4369 -0.6263 -1.8478
 2420TIP3   OH228750   4.192   6.193  10.592 -0.1520  0.9130  0.2767
 2420TIP3    H128751   4.161   6.102  10.586  0.8576  0.6426 -1.3409
 2420TIP3    H228752   4.155   6.237  10.516 -0.0365  1.6840  0.6538
 2421TIP3   OH228753   5.631   0.445  16.213 -0.0768 -0.5955 -0.5668
 2421TIP3    H128754   5.667   0.409  16.294  0.4173 -1.5099 -1.1868
 2421TIP3    H228755   5.632   0.373  16.151 -1.3763 -0.1736 -1.1133
 2422TIP3   OH228756   6.479   4.766  10.892 -0.3710  0.2254 -0.0026
 2422TIP3    H128757   6.401   4.755  10.837 -0.5691  2.0725 -0.1576
 2422TIP3    H228758   6.549   4.723  10.842 -1.2079 -1.2433  0.0275
 2423TIP3   OH228759   6.005   0.910  12.273  0.8287  0.2459  0.3173
 2423TIP3    H128760   5.941   0.936  12.206  2.8330  0.7879 -1.5162
 2423TIP3    H228761   5.968   0.831  12.313 -0.6092  0.0952 -1.2114
 2424TIP3   OH228762   1.139   3.513   1.484 -0.7783 -0.0426 -0.8488
 2424TIP3    H128763   1.102   3.427   1.502 -1.8966  0.5553 -0.2291
 2424TIP3    H228764   1.209   3.496   1.421 -0.7759 -1.4348 -0.4935
 2425TIP3   OH228765   0.154   1.390  13.518 -0.7481  0.5262 -0.1589
 2425TIP3    H128766   0.191   1.475  13.540 -0.3078  1.0150 -2.5501
 2425TIP3    H228767   0.061   1.398  13.542 -1.0567  2.2699 -1.6491
 2426TIP3   OH228768   1.983   5.995  15.435 -0.1643 -0.2602  0.0007
 2426TIP3    H128769   1.979   5.901  15.415 -0.1904  0.2304 -2.7242
 2426TIP3    H228770   1.951   6.002  15.525 -3.0566 -2.5833 -0.6801
 2427TIP3   OH228771   3.983   0.552  13.019  0.0602 -1.1097  0.0885
 2427TIP3    H128772   3.916   0.550  12.950  0.7307  0.0532 -0.6289
 2427TIP3    H228773   3.978   0.465  13.059  0.3894 -2.2517 -2.1514
 2428TIP3   OH228774   3.762   1.516  15.170  0.0923  0.2303 -0.0723
 2428TIP3    H128775   3.742   1.476  15.255 -1.2444  0.0246 -0.4454
 2428TIP3    H228776   3.793   1.604  15.191  2.3702 -0.7075  0.7381
 2429TIP3   OH228777   4.179   3.617   2.817 -0.3239 -0.5717 -0.3324
 2429TIP3    H128778   4.182   3.670   2.897 -1.9059  0.7496 -1.0824
 2429TIP3    H228779   4.176   3.681   2.746  0.1683 -1.7198 -1.4178
 2430TIP3   OH228780   2.615   5.399  16.920  0.2750  0.3030  0.0763
 2430TIP3    H128781   2.583   5.487  16.902 -0.5511  0.1849  0.8781
 2430TIP3    H228782   2.536   5.345  16.926  0.7146 -0.3185  0.4519
 2431TIP3   OH228783   3.200   1.212   0.736 -0.3853 -0.4984 -0.2416
 2431TIP3    H128784   3.276   1.186   0.684 -0.9177 -0.2055 -1.1905
 2431TIP3    H228785   3.179   1.135   0.789  2.4506  0.3584  2.4363
 2432TIP3   OH228786   4.846   5.597   4.848  0.0213 -0.0255  0.1038
 2432TIP3    H128787   4.896   5.520   4.873 -1.2949 -1.1069 -0.4656
 2432TIP3    H228788   4.865   5.609   4.754  0.5071  0.5835  0.2695
 2433TIP3   OH228789   0.559   1.996   1.452  0.1193 -0.3858  0.1251
 2433TIP3    H128790   0.569   2.091   1.461  2.6925 -0.5503 -0.4045
 2433TIP3    H228791   0.516   1.985   1.367  0.0541  0.2825  0.0643
 2434TIP3   OH228792   6.438   2.194  11.402 -0.1878 -0.0744 -0.0938
 2434TIP3    H128793   6.469   2.108  11.430  0.3489 -0.0172 -0.4921
 2434TIP3    H228794   6.388   2.227  11.476 -2.8250 -1.8940 -0.9100
 2435TIP3   OH228795   3.749   3.882   5.494  0.2075  0.5792 -0.1063
 2435TIP3    H128796   3.791   3.964   5.519  0.9304  0.0658  0.3984
 2435TIP3    H228797   3.792   3.815   5.547  0.3581 -0.2680 -1.2411
 2436TIP3   OH228798   4.448   6.712  11.202 -0.3674 -0.2262  0.3368
 2436TIP3    H128799   4.498   6.636  11.231  1.2117  0.9835  0.9135
 2436TIP3    H228800   4.503   6.755  11.137 -2.0044 -0.5026 -1.3229
 2437TIP3   OH228801   1.565   5.823  11.133  0.4192  0.3605 -0.3554
 2437TIP3    H128802   1.473   5.824  11.107  0.5486 -1.2160 -1.0052
 2437TIP3    H228803   1.563   5.840  11.227 -0.6145 -0.3142 -0.2329
 2438TIP3   OH228804   0.184   0.132  11.283 -0.0687  0.0452  0.5823
 2438TIP3    H128805   0.221   0.085  11.208  0.1899  2.9052 -1.2182
 2438TIP3    H228806   0.094   0.100  11.290 -0.4741  0.5093 -1.7444
 2439TIP3   OH228807   0.769   2.802  16.925  0.6129  0.2895 -0.5282
 2439TIP3    H128808   0.679   2.794  16.957  0.5644  0.8985 -0.4884
 2439TIP3    H228809   0.762   2.861  16.850  0.9674  0.2747 -0.5725
 2440TIP3   OH228810   3.395   4.330  16.770 -0.1624 -0.2190 -0.0471
 2440TIP3    H128811   3.313   4.364  16.734 -0.3371 -1.2095 -0.6215
 2440TIP3    H228812   3.408   4.247  16.724  0.8448 -0.3648  0.4888
 2441TIP3   OH228813   1.412   3.923  16.379  0.5374  0.8608 -0.4403
 2441TIP3    H128814   1.448   3.842  16.344  1.8310  1.7163 -1.1789
 2441TIP3    H228815   1.487   3.983  16.383  0.4769  0.9799  3.4694
 2442TIP3   OH228816   4.104   1.141   5.185 -0.2611  0.0791  0.2839
 2442TIP3    H128817   4.029   1.083   5.199 -0.5682  0.5558  0.6397
 2442TIP3    H228818   4.066   1.229   5.183  0.2482  0.2960  0.1487
 2443TIP3   OH228819   5.498   2.932  11.858 -0.4594  0.1868  0.0322
 2443TIP3    H128820   5.418   2.983  11.845  0.2828  0.8994 -2.3135
 2443TIP3    H228821   5.562   2.997  11.887 -0.7060 -0.3970  1.9932
 2444TIP3   OH228822   5.967   4.782  15.042 -0.1241 -0.2062 -0.3105
 2444TIP3    H128823   5.904   4.803  15.111 -1.4711  1.1492 -1.8627
 2444TIP3    H228824   6.021   4.712  15.079 -3.2521 -2.2611  0.7313
 2445TIP3   OH228825   2.585   6.278   5.086 -0.3198 -0.3050  0.8699
 2445TIP3    H128826   2.522   6.260   5.016  0.1253  0.9901  0.0957
 2445TIP3    H228827   2.552   6.229   5.161 -0.7065 -1.9098 -0.2773
 2446TIP3   OH228828   3.409   5.451   2.933 -0.0513  0.3383 -0.1544
 2446TIP3    H128829   3.383   5.367   2.972 -1.7145 -0.0753 -1.9702
 2446TIP3    H228830   3.504   5.452   2.940 -0.0091 -1.5695  0.2220
 2447TIP3   OH228831   6.364   5.281   0.436 -0.2117  0.2923  0.4877
 2447TIP3    H128832   6.287   5.232   0.409 -0.5852 -1.1109  3.5911
 2447TIP3    H228833   6.437   5.238   0.392 -0.8781 -0.8627  0.4560
 2448TIP3   OH228834   5.987   1.852  16.792 -0.2028  0.0724 -0.1412
 2448TIP3    H128835   6.008   1.931  16.743 -2.1421  0.1761 -0.8726
 2448TIP3    H228836   5.906   1.872  16.838  0.2178 -0.9092  1.0894
 2449TIP3   OH228837   2.329   4.952  16.019  0.5289 -0.1751 -0.0968
 2449TIP3    H128838   2.422   4.941  16.000  0.3243  1.4420 -2.3432
 2449TIP3    H228839   2.315   5.047  16.022 -0.5927 -0.2966  3.0413
 2450TIP3   OH228840   1.977   6.462  15.876  0.1173  0.2219 -0.3706
 2450TIP3    H128841   1.929   6.386  15.909 -0.5625  0.9511  0.3497
 2450TIP3    H228842   1.928   6.489  15.798  0.7256 -0.4406 -1.0067
 2451TIP3   OH228843   6.154   4.724  15.440 -0.5650  0.4668 -0.0708
 2451TIP3    H128844   6.155   4.641  15.393  0.5445  1.8566 -2.7790
 2451TIP3    H228845   6.210   4.710  15.516  1.3560 -0.7092 -1.6193
 2452TIP3   OH228846   2.938   1.562   3.596 -0.1026 -0.1097 -0.6124
 2452TIP3    H128847   3.004   1.621   3.559 -0.4082  0.3322 -0.4692
 2452TIP3    H228848   2.913   1.603   3.679  0.6130 -1.1238  0.1154
 2453TIP3   OH228849   1.797   4.254  15.502 -0.1141 -0.6093  0.9646
 2453TIP3    H128850   1.866   4.211  15.451 -0.9918 -2.3380  1.1488
 2453TIP3    H228851   1.761   4.184  15.557 -1.4105  0.4530  1.5277
 2454TIP3   OH228852   5.434   6.540   3.624 -0.0677 -0.1861 -0.0295
 2454TIP3    H128853   5.420   6.629   3.590  2.4647  0.0348 -0.7046
 2454TIP3    H228854   5.486   6.554   3.704  1.6805 -1.0640 -0.9582
 2455TIP3   OH228855   2.524   0.880   3.358  0.1354  0.2665  0.5120
 2455TIP3    H128856   2.582   0.822   3.407  1.1183 -0.3713 -1.2862
 2455TIP3    H228857   2.455   0.822   3.325 -0.4775  0.6741  1.0562
 2456TIP3   OH228858   2.840   6.675  10.667  0.1681  1.0615  0.0857
 2456TIP3    H128859   2.823   6.610  10.599 -0.5298  2.5394 -1.2235
 2456TIP3    H228860   2.864   6.624  10.744  1.5972 -0.6486 -1.4148
 2457TIP3   OH228861   2.823   3.955   4.206  0.0416  0.5362 -0.4550
 2457TIP3    H128862   2.916   3.963   4.185  0.2349 -0.5094 -0.0547
 2457TIP3    H228863   2.814   3.866   4.240 -1.2081  0.4488 -0.9803
 2458TIP3   OH228864   5.972   3.703   5.727  0.9817 -0.1616  0.3318
 2458TIP3    H128865   6.035   3.663   5.787  0.8301  0.5252  0.9672
 2458TIP3    H228866   5.941   3.781   5.774  0.7831  0.3345 -0.5993
 2459TIP3   OH228867   3.425   5.562  13.715  0.1240 -0.6638  0.2652
 2459TIP3    H128868   3.513   5.532  13.691  0.7314 -0.2272  1.8449
 2459TIP3    H228869   3.378   5.482  13.738 -0.5463 -1.1269 -2.3958
 2460TIP3   OH228870   4.303   2.956  11.019 -0.0558  0.7777  0.2472
 2460TIP3    H128871   4.276   2.908  10.940  0.6054 -0.0551  0.5115
 2460TIP3    H228872   4.287   3.048  10.998 -0.8704  0.4867 -0.4669
 2461TIP3   OH228873   4.252   1.022   3.065 -0.6037  0.0753  0.4781
 2461TIP3    H128874   4.180   1.075   3.099 -0.6144  0.1564  0.3312
 2461TIP3    H228875   4.218   0.932   3.067 -0.7713  0.1320  0.2520
 2462TIP3   OH228876   2.453   4.246  16.002  0.4481  0.1175 -0.0372
 2462TIP3    H128877   2.364   4.262  15.972  0.6524  0.6477 -0.3772
 2462TIP3    H228878   2.444   4.182  16.072 -0.1400 -0.3630 -0.5400
 2463TIP3   OH228879   5.608   3.669  12.308 -0.0362 -0.4281  0.1697
 2463TIP3    H128880   5.570   3.603  12.250 -3.0015  2.1412 -1.0963
 2463TIP3    H228881   5.591   3.637  12.396 -1.5738 -1.3160 -0.4139
 2464TIP3   OH228882   1.675   6.557   0.535 -0.4108  0.5962  0.2988
 2464TIP3    H128883   1.674   6.575   0.629  0.2143 -0.0148  0.4300
 2464TIP3    H228884   1.633   6.633   0.496  0.0576  1.2376  1.0112
 2465TIP3   OH228885   0.893   3.354  14.225 -0.9750  0.9258  0.7281
 2465TIP3    H128886   0.818   3.328  14.172 -0.7911  1.3422  0.2578
 2465TIP3    H228887   0.969   3.341  14.168 -0.7669  1.2926  0.9169
 2466TIP3   OH228888   3.351   1.018  13.133 -1.0332  0.3063 -0.0055
 2466TIP3    H128889   3.315   0.993  13.047  1.6267  0.4247 -1.2560
 2466TIP3    H228890   3.338   1.113  13.137 -2.2258  0.1485  0.2959
 2467TIP3   OH228891   2.533   5.852  14.027 -0.0996  0.5405  0.0793
 2467TIP3    H128892   2.540   5.821  13.937 -0.9712 -0.6536  0.4054
 2467TIP3    H228893   2.616   5.827  14.067  0.5949  1.7207 -0.5534
 2468TIP3   OH228894   0.086   2.648   0.141 -0.2602  0.1269  0.8420
 2468TIP3    H128895   0.029   2.579   0.175 -1.5174  1.2198  1.0293
 2468TIP3    H228896   0.101   2.624   0.050 -2.1792  0.5013  0.3829
 2469TIP3   OH228897   4.668   6.724   5.560  0.0022  0.3646  0.0426
 2469TIP3    H128898   4.747   6.762   5.598 -0.0900  0.5899  0.0113
 2469TIP3    H228899   4.700   6.654   5.503  0.1498  0.1343  0.4060
 2470TIP3   OH228900   2.684   5.449  11.848 -0.3094  0.2098  0.1827
 2470TIP3    H128901   2.633   5.476  11.924 -0.4541  0.0564  0.1424
 2470TIP3    H228902   2.624   5.394  11.798  0.0151 -0.2814  0.3245
 2471TIP3   OH228903   0.925   0.753  16.327 -0.0761  0.1320 -0.7009
 2471TIP3    H128904   0.850   0.733  16.271  0.2172  1.5366 -1.6303
 2471TIP3    H228905   1.001   0.747  16.268  0.2072  1.9328 -0.5573
 2472TIP3   OH228906   4.872   4.922   3.920 -0.1148  0.0670 -0.3436
 2472TIP3    H128907   4.955   4.875   3.922  0.0289  0.3334 -0.0372
 2472TIP3    H228908   4.887   4.995   3.860 -0.0263  0.3065 -0.0281
 2473TIP3   OH228909   5.543   4.081   1.726  0.3607  0.2638  0.1787
 2473TIP3    H128910   5.480   4.052   1.791 -2.0589 -0.1988 -2.1753
 2473TIP3    H228911   5.496   4.147   1.675  2.1601  0.6707 -1.0403
 2474TIP3   OH228912   1.044   2.188  16.137 -0.0498 -0.4271  0.3993
 2474TIP3    H128913   1.134   2.156  16.143 -0.0116 -0.6515 -0.9952
 2474TIP3    H228914   1.012   2.154  16.053 -0.8530  1.0774  0.0606
 2475TIP3   OH228915   1.189   3.713  11.898 -0.0412  0.0351  0.4051
 2475TIP3    H128916   1.237   3.769  11.959  0.4196 -0.1244  0.1985
 2475TIP3    H228917   1.247   3.638  11.884 -1.1648 -1.0990  1.6181
 2476TIP3   OH228918   1.304   4.777  11.220  0.3430 -0.3555  0.3369
 2476TIP3    H128919   1.247   4.701  11.208 -0.2386  0.2300 -0.6726
 2476TIP3    H228920   1.391   4.746  11.193  0.1135 -0.6686 -0.0521
 2477TIP3   OH228921   3.856   3.272   3.369 -0.3653  0.4290 -0.0762
 2477TIP3    H128922   3.844   3.245   3.277 -0.3235  0.8599 -0.2096
 2477TIP3    H228923   3.795   3.218   3.418  0.4945 -0.7018 -0.2070
 2478TIP3   OH228924   0.906   4.917  10.712  0.0810  0.4247 -0.0655
 2478TIP3    H128925   0.990   4.948  10.746  0.6018 -0.8695 -0.1031
 2478TIP3    H228926   0.861   4.996  10.684  0.9825  1.2183  0.6385
 2479TIP3   OH228927   3.429   1.144  16.416  0.4105 -0.0525 -0.2247
 2479TIP3    H128928   3.493   1.139  16.345  0.5317  0.8501 -0.1867
 2479TIP3    H228929   3.345   1.155  16.371  0.2978 -0.9611 -0.2646
 2480TIP3   OH228930   2.456   1.917  13.468 -0.9249 -0.0375 -0.3530
 2480TIP3    H128931   2.415   1.957  13.545  1.0598  0.0140  0.7650
 2480TIP3    H228932   2.481   1.830  13.498 -1.3850 -0.5457 -1.4127
 2481TIP3   OH228933   0.234   4.097  10.915  0.0255  0.0017 -0.1095
 2481TIP3    H128934   0.207   4.062  10.830 -0.9205  1.8021 -0.5966
 2481TIP3    H228935   0.241   4.191  10.902 -0.5322  0.3782  1.8991
 2482TIP3   OH228936   6.796   3.843   2.066 -0.1834  0.4821  0.2566
 2482TIP3    H128937   6.868   3.905   2.071  1.1353 -0.6931 -2.3109
 2482TIP3    H228938   6.817   3.788   1.990 -4.4538  0.9352 -1.5286
 2483TIP3   OH228939   2.386   5.752  11.051 -0.6015  0.2613  0.0838
 2483TIP3    H128940   2.313   5.792  11.004 -1.0265 -1.0031 -0.3572
 2483TIP3    H228941   2.406   5.673  11.002  0.0066 -0.2575  1.1338
 2484TIP3   OH228942   2.291   0.299   0.636 -0.4019  0.8992  0.1211
 2484TIP3    H128943   2.249   0.262   0.714  0.5529  0.4384  0.4286
 2484TIP3    H228944   2.370   0.246   0.624 -0.4075  1.1196 -1.0224
 2485TIP3   OH228945   6.801   2.843  16.502  0.1189 -0.2411  0.2266
 2485TIP3    H128946   6.797   2.748  16.511  0.6324 -0.4439 -1.3938
 2485TIP3    H228947   6.889   2.861  16.470  0.1658  0.8358  0.9040
 2486TIP3   OH228948   2.402   4.513  15.564 -0.3279 -0.1099  0.1722
 2486TIP3    H128949   2.443   4.593  15.532  0.1716 -1.0858 -1.8125
 2486TIP3    H228950   2.310   4.537  15.579  0.1528  1.1993  1.1174
 2487TIP3   OH228951   0.217   1.351   1.264 -0.0715  0.2264  0.0255
 2487TIP3    H128952   0.176   1.293   1.327  0.6841  1.3689  1.6272
 2487TIP3    H228953   0.310   1.325   1.265  0.5164  2.1954  1.6856
 2488TIP3   OH228954   0.922   6.479  14.073 -0.1129  0.1977 -0.0134
 2488TIP3    H128955   0.939   6.548  14.137  1.7035 -0.0787 -0.1372
 2488TIP3    H228956   1.004   6.429  14.069 -0.3921 -0.2031 -2.0620
 2489TIP3   OH228957   6.591   1.991   6.291  0.0684 -0.1766 -0.9529
 2489TIP3    H128958   6.642   1.951   6.361 -0.4637  1.8090  0.6811
 2489TIP3    H228959   6.509   2.016   6.333 -0.9387 -0.3725 -2.7149
 2490TIP3   OH228960   5.105   2.456   0.007 -0.0790 -0.2149  0.3503
 2490TIP3    H128961   5.027   2.405  -0.016 -1.4260  1.7385  0.3389
 2490TIP3    H228962   5.135   2.493  -0.076  1.1250 -1.2189  0.2972
 2491TIP3   OH228963   5.339   5.347  11.096  0.6283  0.8517 -0.3298
 2491TIP3    H128964   5.275   5.417  11.105 -1.1581 -0.7598  0.2712
 2491TIP3    H228965   5.405   5.365  11.163  0.1319  1.8778 -0.1041
 2492TIP3   OH228966   2.023   5.170  13.546  0.0380  0.3916  0.1015
 2492TIP3    H128967   1.981   5.108  13.607  0.3539  1.4515  1.4606
 2492TIP3    H228968   1.974   5.160  13.465 -0.4585 -1.0263  0.5367
 2493TIP3   OH228969   2.369   1.781  13.104  0.1070 -0.1371  0.2315
 2493TIP3    H128970   2.324   1.853  13.147 -0.9660  0.9859 -2.5029
 2493TIP3    H228971   2.318   1.766  13.024  2.0676 -1.8736 -0.7856
 2494TIP3   OH228972   2.432   1.544  14.649  0.2213  0.0759  0.1340
 2494TIP3    H128973   2.356   1.489  14.628 -0.1465  0.7582 -0.3961
 2494TIP3    H228974   2.508   1.491  14.626 -0.1446  0.1693 -1.4404
 2495TIP3   OH228975   5.281   6.607  13.265 -0.1661  0.3374 -0.5803
 2495TIP3    H128976   5.315   6.689  13.301  1.3191 -1.8958  3.8819
 2495TIP3    H228977   5.198   6.593  13.311  1.1279 -2.0148  1.2584
 2496TIP3   OH228978   0.719   1.685   1.941 -0.5857 -0.3422  0.1350
 2496TIP3    H128979   0.764   1.719   1.864 -0.8064  0.9576  0.5656
 2496TIP3    H228980   0.748   1.741   2.013 -2.1236 -0.0867  0.5926
 2497TIP3   OH228981   6.220   2.965   2.031  0.0894 -0.0856 -0.1264
 2497TIP3    H128982   6.232   3.030   1.963  0.8486 -0.8435 -0.7369
 2497TIP3    H228983   6.133   2.982   2.066  0.0077  0.8049 -0.7413
 2498TIP3   OH228984   2.773   3.481   2.636 -0.3051  0.2583  0.3303
 2498TIP3    H128985   2.716   3.502   2.562  1.2600  1.1291 -0.6865
 2498TIP3    H228986   2.814   3.398   2.612 -0.9747 -0.2827  0.9867
 2499TIP3   OH228987   5.493   1.097  11.537  0.2112 -0.0306 -0.0326
 2499TIP3    H128988   5.404   1.094  11.570  1.0522 -0.8492  2.3959
 2499TIP3    H228989   5.506   1.013  11.493 -0.5226  0.5370 -1.3709
 2500TIP3   OH228990   5.967   5.477  16.777  0.2831 -0.4055  0.2960
 2500TIP3    H128991   5.960   5.418  16.702 -2.4573 -0.5877  0.6034
 2500TIP3    H228992   6.027   5.546  16.748 -1.7415  0.2898 -2.6238
 2501TIP3   OH228993   3.891   5.375  13.143  0.4280 -0.2612  0.0932
 2501TIP3    H128994   3.860   5.431  13.214 -0.8175 -2.4938  1.4354
 2501TIP3    H228995   3.986   5.382  13.145  0.3190  1.2823  0.6078
 2502TIP3   OH228996   2.515   2.948   1.042 -0.0149 -0.4535  0.6317
 2502TIP3    H128997   2.456   2.873   1.032 -2.3041  1.3012 -0.1019
 2502TIP3    H228998   2.592   2.926   0.990  0.5358 -3.3051  2.4801
 2503TIP3   OH228999   4.243   5.901  14.520 -0.0373 -0.0260 -0.2393
 2503TIP3    H129000   4.184   5.976  14.531  1.5094  1.1983  0.0598
 2503TIP3    H229001   4.327   5.940  14.496  0.5465 -1.7555 -1.1672
 2504TIP3   OH229002   4.299   1.022  14.647 -0.1160  0.0965  0.1316
 2504TIP3    H129003   4.345   0.938  14.648  0.8849  0.5951 -1.2013
 2504TIP3    H229004   4.354   1.080  14.594 -0.5632  1.7415  1.3706
 2505TIP3   OH229005   3.044   0.339  12.415 -0.1688 -0.0857 -0.3485
 2505TIP3    H129006   3.037   0.385  12.331 -0.0629 -0.6426 -0.6766
 2505TIP3    H229007   3.104   0.266  12.396  1.0648  0.6429  0.6035
 2506TIP3   OH229008   6.259   0.663  11.347 -0.2355  0.1317  0.3725
 2506TIP3    H129009   6.203   0.630  11.418  1.6020  0.4123  2.0307
 2506TIP3    H229010   6.329   0.598  11.339  0.5785  1.0151  0.0908
 2507TIP3   OH229011   5.099   5.238  12.566 -0.1214 -0.4605 -0.1315
 2507TIP3    H129012   5.124   5.329  12.557  0.7221 -0.7856 -1.2134
 2507TIP3    H229013   5.169   5.198  12.618 -0.4639 -0.5041  0.3010
 2508TIP3   OH229014   4.535   6.820   4.013 -0.5470 -0.1865  0.1944
 2508TIP3    H129015   4.556   6.912   4.025 -0.8632 -0.1748  0.6978
 2508TIP3    H229016   4.439   6.817   4.012 -0.5881 -0.2258 -2.1406
 2509TIP3   OH229017   5.209   4.729   1.728  0.6258 -1.0128  0.3717
 2509TIP3    H129018   5.252   4.812   1.749  0.1345 -0.9200  1.0131
 2509TIP3    H229019   5.179   4.740   1.638  1.1992 -0.7671  0.2074
 2510TIP3   OH229020   3.598   3.760  12.123  0.5430  0.0319 -0.0368
 2510TIP3    H129021   3.647   3.802  12.052  0.2213 -1.5252 -1.2459
 2510TIP3    H229022   3.543   3.695  12.079  1.5443 -2.1657  1.7356
 2511TIP3   OH229023   0.428   1.067   2.583  0.2922  0.7314  0.6089
 2511TIP3    H129024   0.483   1.010   2.637  1.0959  0.8918 -0.0215
 2511TIP3    H229025   0.484   1.141   2.560 -0.4503  1.3237  0.6436
 2512TIP3   OH229026   5.710   1.829  11.131 -0.5436 -0.4813 -0.6008
 2512TIP3    H129027   5.728   1.863  11.043  2.9486  1.6641  0.7552
 2512TIP3    H229028   5.754   1.744  11.133  0.5504  0.0624 -0.5849
 2513TIP3   OH229029   3.982   4.085  13.156 -0.6537 -0.0998 -0.1539
 2513TIP3    H129030   4.071   4.093  13.191 -0.7575 -1.5927  0.5422
 2513TIP3    H229031   3.982   4.140  13.078  0.6768  0.4655  0.2144
 2514TIP3   OH229032   2.825   1.299  17.034 -0.0470 -0.0169  0.2817
 2514TIP3    H129033   2.752   1.357  17.012  1.5947  1.8426 -0.6502
 2514TIP3    H229034   2.870   1.344  17.106  0.2896 -1.0390  0.7252
 2515TIP3   OH229035   0.878   1.514  17.183  0.0267  0.3997 -0.0130
 2515TIP3    H129036   0.866   1.582  17.117 -2.1627  0.0756 -0.0099
 2515TIP3    H229037   0.850   1.433  17.139  0.7334 -0.1901  0.6054
 2516TIP3   OH229038   0.773   0.229   4.166  0.4085 -0.1275  0.1508
 2516TIP3    H129039   0.837   0.296   4.143  0.5813  0.0041  0.9959
 2516TIP3    H229040   0.703   0.277   4.211 -0.1701 -0.3054 -0.5265
 2517TIP3   OH229041   6.490   4.180  13.471 -0.4812 -0.1507  0.1437
 2517TIP3    H129042   6.502   4.227  13.389 -0.3910 -1.1118 -0.4121
 2517TIP3    H229043   6.449   4.243  13.530 -3.9172 -0.4342 -1.6873
 2518TIP3   OH229044   5.205   0.835   2.204  0.2199 -0.5187  0.4972
 2518TIP3    H129045   5.253   0.916   2.222 -1.5173  0.6085  0.3495
 2518TIP3    H229046   5.198   0.792   2.289 -0.0342  0.2090  0.8601
 2519TIP3   OH229047   0.643   5.874   6.044  0.0701  0.1573 -0.4911
 2519TIP3    H129048   0.622   5.935   6.115  0.5224  0.2101 -0.3987
 2519TIP3    H229049   0.605   5.791   6.072  1.7736 -0.2823  0.6929
 2520TIP3   OH229050   2.640   2.108  13.369 -0.1573  0.7075  0.1476
 2520TIP3    H129051   2.564   2.087  13.423 -0.0091 -1.7540 -0.5036
 2520TIP3    H229052   2.604   2.159  13.296 -1.3191 -0.8664 -0.4322
 2521TIP3   OH229053   0.823   2.023  15.974  0.1732 -0.6423  0.0960
 2521TIP3    H129054   0.838   2.017  15.880 -1.5650 -0.9084 -0.2083
 2521TIP3    H229055   0.772   2.103  15.985 -0.5881 -1.1878  0.6622
 2522TIP3   OH229056   1.645   6.604   2.032  0.2809 -0.2182 -0.4263
 2522TIP3    H129057   1.616   6.628   2.120  0.0812 -0.7913 -0.3312
 2522TIP3    H229058   1.618   6.678   1.977 -0.5866 -0.3439 -0.1913
 2523TIP3   OH229059   3.742   1.148  16.818  0.5109  0.4322 -0.2281
 2523TIP3    H129060   3.678   1.082  16.789  2.6321 -1.9835  0.2341
 2523TIP3    H229061   3.737   1.144  16.914  0.8559  0.7363 -0.1977
 2524TIP3   OH229062   5.335   6.269   6.324  0.0029  0.5080 -0.3227
 2524TIP3    H129063   5.370   6.356   6.305  1.2791 -0.2565 -1.6192
 2524TIP3    H229064   5.404   6.227   6.376 -1.0399  0.5866  1.1928
 2525TIP3   OH229065   4.025   3.234   3.761 -0.4992  0.6063  0.6578
 2525TIP3    H129066   4.096   3.271   3.709 -1.0878  0.8062 -0.0277
 2525TIP3    H229067   4.053   3.246   3.852  0.8600 -0.3906  0.3939
 2526TIP3   OH229068   0.435   4.054   5.581 -0.2571 -0.3667  0.0475
 2526TIP3    H129069   0.351   4.087   5.614  0.3198  0.0606  1.1597
 2526TIP3    H229070   0.500   4.115   5.615  0.4108  0.0954 -1.9516
 2527TIP3   OH229071   1.659   0.870  15.728  0.2050  0.3895 -0.5936
 2527TIP3    H129072   1.747   0.880  15.690 -0.1673  1.0397 -1.3068
 2527TIP3    H229073   1.674   0.871  15.822  0.9767  0.4135 -0.7065
 2528TIP3   OH229074   1.518   1.033  13.703 -0.0414  0.1949  0.4877
 2528TIP3    H129075   1.596   1.062  13.750  0.7994 -0.2573 -0.5699
 2528TIP3    H229076   1.545   1.032  13.611 -1.0244 -0.8121  0.1833
 2529TIP3   OH229077   0.432   2.870  13.712  0.1789 -0.0336  0.2144
 2529TIP3    H129078   0.486   2.797  13.742 -0.4341 -0.8440 -0.6243
 2529TIP3    H229079   0.453   2.879  13.619 -0.7650 -0.0435 -0.0107
 2530TIP3   OH229080   5.412   4.169   4.636 -0.1314 -0.5508 -0.0119
 2530TIP3    H129081   5.338   4.135   4.687 -0.1307 -1.8625 -0.8426
 2530TIP3    H229082   5.379   4.178   4.547  0.6232 -0.8827 -0.3392
 2531TIP3   OH229083   6.611   4.270   0.446 -0.5125  0.3032  0.6873
 2531TIP3    H129084   6.572   4.322   0.516 -1.5919  0.4712 -0.0145
 2531TIP3    H229085   6.619   4.331   0.372 -1.5330 -0.4343 -0.0547
 2532TIP3   OH229086   2.929   1.867  14.377 -0.5073  0.5540 -0.6786
 2532TIP3    H129087   2.984   1.940  14.405  0.4954 -0.0870 -0.9027
 2532TIP3    H229088   2.857   1.865  14.441  0.2438  0.8296  0.2048
 2533TIP3   OH229089   2.726   2.259   3.057  0.5706  0.0941  0.0852
 2533TIP3    H129090   2.777   2.239   3.136  0.5625  1.0956  0.3572
 2533TIP3    H229091   2.695   2.349   3.071  1.1818  0.5591 -1.3906
 2534TIP3   OH229092   2.593   0.746  13.460 -0.3127 -0.1177 -1.0268
 2534TIP3    H129093   2.526   0.810  13.437  0.5446  1.9348  1.7356
 2534TIP3    H229094   2.675   0.786  13.429  0.1629 -0.1472  0.1588
 2535TIP3   OH229095   4.707   3.606   4.336 -0.4043 -0.7080 -0.5924
 2535TIP3    H129096   4.617   3.634   4.322 -0.3014 -0.1717 -0.1757
 2535TIP3    H229097   4.725   3.625   4.428 -0.5711 -2.8087 -0.0559
 2536TIP3   OH229098   6.214   5.977   1.590 -0.2252 -0.3130 -0.0269
 2536TIP3    H129099   6.252   5.894   1.561  0.1238 -0.8393  1.8454
 2536TIP3    H229100   6.230   5.980   1.684 -0.4542  1.7784 -0.0015
 2537TIP3   OH229101   1.902   2.494  14.245 -0.1506 -0.0202  0.1983
 2537TIP3    H129102   1.994   2.519  14.252  0.3030 -1.2667 -0.7215
 2537TIP3    H229103   1.897   2.448  14.161 -1.5221 -0.3597  0.4446
 2538TIP3   OH229104   0.803   5.991  16.026  0.0123  0.2604 -0.0096
 2538TIP3    H129105   0.737   5.922  16.038  0.7969 -0.1372  2.8210
 2538TIP3    H229106   0.883   5.944  16.001  0.5114  0.0858  1.7828
 2539TIP3   OH229107   6.195   6.779  16.835  0.1666 -0.2442  0.3799
 2539TIP3    H129108   6.101   6.765  16.822  0.5111 -1.9343 -0.4980
 2539TIP3    H229109   6.207   6.776  16.930 -0.8154  1.2538  0.5970
 2540TIP3   OH229110   4.298   6.341   0.254 -0.0314  0.0097 -0.1195
 2540TIP3    H129111   4.303   6.413   0.318 -0.2603 -0.2658  0.2117
 2540TIP3    H229112   4.350   6.372   0.180  3.0744 -0.9838  1.4883
 2541TIP3   OH229113   2.658   0.758  12.388  0.4442 -0.3351 -0.4762
 2541TIP3    H129114   2.686   0.844  12.418  0.3009 -0.4297 -0.0753
 2541TIP3    H229115   2.737   0.704  12.391 -0.1358 -1.1701  2.6309
 2542TIP3   OH229116   0.741   2.767   1.392  0.7057 -0.6564 -0.4319
 2542TIP3    H129117   0.663   2.712   1.397  1.1536 -1.4442 -1.7637
 2542TIP3    H229118   0.733   2.825   1.468 -1.9164  0.3001 -1.3276
 2543TIP3   OH229119   2.777   6.043   3.564  0.8199 -0.5307  0.0358
 2543TIP3    H129120   2.789   5.986   3.488 -1.3840  1.4728 -1.9822
 2543TIP3    H229121   2.689   6.022   3.596 -0.5845  2.3187 -1.5139
 2544TIP3   OH229122   5.071   3.807  10.048  0.0701 -0.3074 -0.0085
 2544TIP3    H129123   5.124   3.727  10.045  0.0336 -0.4422  1.6873
 2544TIP3    H229124   4.998   3.785  10.106  0.0027  0.9110  0.3953
 2545TIP3   OH229125   5.172   1.994   2.455  0.0729  0.0403  0.0747
 2545TIP3    H129126   5.230   2.012   2.529  1.9384 -0.7047 -1.1390
 2545TIP3    H229127   5.179   1.900   2.441 -1.5675 -0.0909 -0.0370
 2546TIP3   OH229128   5.085   0.484  13.832 -0.0442  0.1069 -0.0588
 2546TIP3    H129129   5.085   0.472  13.927  0.2765 -0.3654 -0.1135
 2546TIP3    H229130   5.130   0.568  13.818  0.5001 -0.1378  0.1754
 2547TIP3   OH229131   3.153   0.134  15.068 -0.3798 -0.2079 -0.2003
 2547TIP3    H129132   3.227   0.075  15.083  1.1685  1.1494 -2.0171
 2547TIP3    H229133   3.132   0.168  15.155  2.3635  0.7127  0.2148
 2548TIP3   OH229134   6.577   2.736   2.736 -0.3054  0.0734 -1.0244
 2548TIP3    H129135   6.624   2.660   2.703 -0.1135 -0.9388  1.4025
 2548TIP3    H229136   6.639   2.778   2.795 -1.7507 -0.1907  0.7508
 2549TIP3   OH229137   5.540   1.251  10.773  0.2278  0.4771  0.3834
 2549TIP3    H129138   5.537   1.156  10.790 -1.6995 -0.2050 -2.9170
 2549TIP3    H229139   5.457   1.284  10.807  0.9020  1.0393  1.5377
 2550TIP3   OH229140   0.625   5.899   1.615 -0.1043  0.6590 -0.4571
 2550TIP3    H129141   0.718   5.885   1.633 -0.0616  0.3752 -0.8840
 2550TIP3    H229142   0.616   5.994   1.610  0.1189  0.6973 -0.1913
 2551TIP3   OH229143   4.197   3.577   5.061 -0.3012 -0.1318 -0.6509
 2551TIP3    H129144   4.224   3.540   5.145  0.3643  0.6700 -0.4905
 2551TIP3    H229145   4.153   3.506   5.016 -0.3440 -0.6801  0.2328
 2552TIP3   OH229146   3.829   5.188   3.165  0.1924 -0.1711 -0.3628
 2552TIP3    H129147   3.783   5.222   3.242 -1.8545  0.0530 -1.5989
 2552TIP3    H229148   3.768   5.123   3.128  0.9387  0.0143 -1.9955
 2553TIP3   OH229149   3.889   6.425   3.567 -0.3456 -0.0926  0.0515
 2553TIP3    H129150   3.903   6.518   3.555 -0.6571 -0.2718 -2.0306
 2553TIP3    H229151   3.815   6.419   3.628 -1.5702  1.0628 -1.2663
 2554TIP3   OH229152   2.903   1.112   1.869 -0.1235  0.0900  0.1288
 2554TIP3    H129153   2.825   1.114   1.813 -0.4364 -0.1434  0.5477
 2554TIP3    H229154   2.920   1.019   1.882 -0.0216  0.1456  0.3837
 2555TIP3   OH229155   0.735   5.446  13.374 -0.1474  0.0158 -0.2694
 2555TIP3    H129156   0.791   5.375  13.341  0.7341  0.3647  0.4333
 2555TIP3    H229157   0.695   5.483  13.296 -0.8670 -1.4455 -0.6322
 2556TIP3   OH229158   1.777   5.397  13.226 -0.0297 -0.0178 -0.0424
 2556TIP3    H129159   1.833   5.436  13.294 -0.4934 -0.0615  0.3696
 2556TIP3    H229160   1.806   5.306  13.221 -1.8816 -0.8276  2.1676
 2557TIP3   OH229161   2.440   1.152  15.154 -0.1302  0.1264  0.2516
 2557TIP3    H129162   2.376   1.147  15.225 -0.9321  1.0236 -0.3679
 2557TIP3    H229163   2.511   1.205  15.189  0.0490 -0.4506  0.7787
 2558TIP3   OH229164   4.223   3.866  15.829 -0.0590 -0.4030 -0.6890
 2558TIP3    H129165   4.259   3.949  15.860 -0.5139  0.1312 -1.5576
 2558TIP3    H229166   4.173   3.833  15.904  1.7061 -0.8853  0.3419
 2559TIP3   OH229167   0.596   2.784  15.545  0.5345  0.0935  0.5091
 2559TIP3    H129168   0.586   2.835  15.465  1.8967  0.4546  0.5331
 2559TIP3    H229169   0.631   2.700  15.515  0.9586  0.1974  0.6952
 2560TIP3   OH229170   2.467   0.463  14.312  0.0737  0.1191  0.4594
 2560TIP3    H129171   2.448   0.444  14.220  2.3738 -0.6424  0.0877
 2560TIP3    H229172   2.436   0.386  14.359 -0.3970  0.1691  0.2337
 2561TIP3   OH229173   6.325   0.096  11.944 -0.0300 -0.1241  0.3837
 2561TIP3    H129174   6.310   0.060  12.031 -0.2359 -1.1270 -0.0547
 2561TIP3    H229175   6.254   0.060  11.891  0.5943 -0.2201 -0.3994
 2562TIP3   OH229176   0.048   0.294  14.538 -0.7702 -0.8895  0.3054
 2562TIP3    H129177   0.034   0.200  14.536  0.5183 -1.1621  1.7409
 2562TIP3    H229178  -0.015   0.326  14.603 -1.0656 -0.7823 -0.0310
 2563TIP3   OH229179   1.447   0.479  12.047  0.2224  0.3352  0.3863
 2563TIP3    H129180   1.514   0.440  11.992 -0.0991  0.8114 -0.3643
 2563TIP3    H229181   1.461   0.573  12.039 -0.1551  0.4223  0.7076
 2564TIP3   OH229182   5.540   5.814   1.163  0.2547  0.4975 -0.2325
 2564TIP3    H129183   5.584   5.893   1.131  0.3833  0.2360 -0.7255
 2564TIP3    H229184   5.553   5.750   1.093  0.9097 -0.2346  0.5376
 2565TIP3   OH229185   6.388   3.046  12.238  0.8343  0.6255  0.1795
 2565TIP3    H129186   6.468   3.001  12.212 -0.3126 -1.1803 -0.5008
 2565TIP3    H229187   6.411   3.094  12.317  2.0496 -1.7281  1.3640
 2566TIP3   OH229188   2.015   0.783   5.845  0.2037 -0.1086  0.1215
 2566TIP3    H129189   2.026   0.726   5.921 -0.2032 -0.4767 -0.0895
 2566TIP3    H229190   1.985   0.866   5.882  0.5495 -0.1095  0.4096
 2567TIP3   OH229191   5.436   5.879   5.544  0.2646 -0.6455 -0.2168
 2567TIP3    H129192   5.463   5.903   5.455 -0.2637 -0.4005 -0.3161
 2567TIP3    H229193   5.405   5.789   5.536 -3.3075  0.4955 -1.1065
 2568TIP3   OH229194   1.236   4.708   3.799  0.0100 -0.2343 -0.7245
 2568TIP3    H129195   1.206   4.782   3.746  0.7909 -0.5078 -1.5792
 2568TIP3    H229196   1.331   4.706   3.785  0.0929 -0.9284 -0.0958
 2569TIP3   OH229197   0.317   5.823   5.654 -0.5886  0.0186 -0.1737
 2569TIP3    H129198   0.322   5.886   5.726  2.7567  0.9122 -0.9729
 2569TIP3    H229199   0.248   5.762   5.680 -1.6304  2.0408  2.2777
 2570TIP3   OH229200   2.876   5.103  15.993 -0.3794 -0.2665 -0.0953
 2570TIP3    H129201   2.897   5.058  16.076  0.0018 -1.7429 -0.9391
 2570TIP3    H229202   2.889   5.196  16.012  1.0306 -0.6678  1.1430
 2571TIP3   OH229203   4.186   0.376   5.893  0.7389  0.5026  0.4322
 2571TIP3    H129204   4.170   0.321   5.969  1.8776  0.3238  0.5593
 2571TIP3    H229205   4.151   0.326   5.819 -0.2910  0.6394  0.8033
 2572TIP3   OH229206   5.580   5.252   1.486 -0.4231 -0.1723  0.5134
 2572TIP3    H129207   5.585   5.327   1.545  2.0668  1.4345 -1.5164
 2572TIP3    H229208   5.504   5.268   1.431  0.4139  1.2307 -0.2791
 2573TIP3   OH229209   4.088   4.500  13.752  0.2401 -0.3730 -0.3949
 2573TIP3    H129210   4.067   4.431  13.816  0.2315 -2.5693 -2.6111
 2573TIP3    H229211   4.007   4.513  13.703  0.4814  0.6682 -0.5373
 2574TIP3   OH229212   0.256   0.039  11.589  0.3437  0.4200 -0.2011
 2574TIP3    H129213   0.164   0.064  11.585  0.0458 -0.0613  2.3182
 2574TIP3    H229214   0.274  -0.001  11.503 -0.7673  3.6385 -2.1285
 2575TIP3   OH229215   6.252   1.264   3.822  0.5681  0.1720 -0.1184
 2575TIP3    H129216   6.233   1.184   3.774 -0.7419 -0.4522  1.3639
 2575TIP3    H229217   6.348   1.270   3.822  0.6287 -0.1074 -2.2213
 2576TIP3   OH229218   5.791   4.924   2.607 -0.7359  0.8781 -0.0891
 2576TIP3    H129219   5.820   5.015   2.612 -1.5648  1.0634  2.0285
 2576TIP3    H229220   5.706   4.928   2.563 -0.7990  1.1155  0.0586
 2577TIP3   OH229221   1.328   3.534  15.004 -0.2021 -0.1872  0.2108
 2577TIP3    H129222   1.372   3.516  14.920 -0.1987  1.9963 -0.3339
 2577TIP3    H229223   1.398   3.568  15.060 -0.2399 -1.4782  1.0718
 2578TIP3   OH229224   4.619   5.318   2.879 -0.3420  0.1452 -0.4073
 2578TIP3    H129225   4.700   5.282   2.845 -0.2271  0.3385 -0.3370
 2578TIP3    H229226   4.641   5.351   2.967 -0.4210  0.4750 -0.5078
 2579TIP3   OH229227   4.959   5.534   3.163 -0.0892 -0.2486  0.2809
 2579TIP3    H129228   4.946   5.551   3.070 -0.3188 -1.1153  0.1443
 2579TIP3    H229229   4.952   5.620   3.204  1.3611  0.3547 -0.6295
 2580TIP3   OH229230   3.953   5.596  10.744  0.5176 -0.0645  0.0984
 2580TIP3    H129231   3.915   5.684  10.735  2.4091  0.7457 -0.4647
 2580TIP3    H229232   3.916   5.563  10.826  1.2321  2.0523  1.3452
 2581TIP3   OH229233   2.007   5.268  15.923 -0.2934  0.3401 -0.0349
 2581TIP3    H129234   2.092   5.241  15.887  0.1675  1.4613  0.1615
 2581TIP3    H229235   1.995   5.357  15.890 -2.5284 -0.5978 -2.0221
 2582TIP3   OH229236   1.238   1.886   1.766  0.3996  0.0308 -0.1066
 2582TIP3    H129237   1.166   1.882   1.829 -0.5079 -2.3279 -1.1883
 2582TIP3    H229238   1.316   1.866   1.818  0.2362  1.8512  0.9326
 2583TIP3   OH229239   2.818   0.645  16.476  0.1137 -0.1914 -0.0218
 2583TIP3    H129240   2.821   0.717  16.414 -1.4251 -1.1521 -1.2774
 2583TIP3    H229241   2.764   0.677  16.548 -0.1701  0.0659 -0.3501
 2584TIP3   OH229242   3.643   6.321  17.023  0.1699  0.4147  0.5390
 2584TIP3    H129243   3.571   6.367  16.979 -1.2724 -2.2643 -0.1139
 2584TIP3    H229244   3.622   6.228  17.013  2.5270 -0.4262  2.4309
 2585TIP3   OH229245   5.583   5.812  16.492 -0.5604  0.3215 -0.1462
 2585TIP3    H129246   5.526   5.823  16.568 -0.1364  0.1591  0.1993
 2585TIP3    H229247   5.670   5.838  16.523 -0.4287  0.4838 -0.6417
 2586TIP3   OH229248   2.443   2.200   4.130 -0.2248  0.2672 -0.2575
 2586TIP3    H129249   2.433   2.255   4.053 -0.2503 -0.1350 -0.5410
 2586TIP3    H229250   2.504   2.249   4.186 -1.6070  1.4355  0.3016
 2587TIP3   OH229251   2.627   1.588   4.267 -0.1240  0.4248 -0.2228
 2587TIP3    H129252   2.667   1.505   4.239 -0.5572 -0.6217  2.0196
 2587TIP3    H229253   2.691   1.627   4.326 -0.3963  1.1555 -0.4067
 2588TIP3   OH229254   6.623   2.383  12.773 -0.4104  0.2712 -0.4421
 2588TIP3    H129255   6.572   2.450  12.819  2.6749 -0.0091  4.0608
 2588TIP3    H229256   6.594   2.301  12.814  1.1821 -0.2373 -0.2911
 2589TIP3   OH229257   6.415   0.553  10.875 -0.2833 -0.3073  0.3989
 2589TIP3    H129258   6.410   0.615  10.803  1.4495 -0.9459 -0.3270
 2589TIP3    H229259   6.337   0.570  10.928 -0.8302  1.1493 -0.8310
 2590TIP3   OH229260   6.252   6.783   3.158 -0.1066  0.1176 -0.0475
 2590TIP3    H129261   6.198   6.785   3.078 -1.4353  1.0487  0.8371
 2590TIP3    H229262   6.340   6.806   3.127 -0.2559 -1.0026 -1.4573
 2591TIP3   OH229263   1.347   4.696  16.748  0.1652 -0.4393 -0.2479
 2591TIP3    H129264   1.427   4.696  16.800 -0.1522 -0.0420  0.2521
 2591TIP3    H229265   1.280   4.729  16.808 -0.3428 -0.6333 -0.7033
 2592TIP3   OH229266   3.155   6.439   4.814  0.2370  0.3028  0.2709
 2592TIP3    H129267   3.090   6.497   4.854 -1.2304  0.3652 -2.0325
 2592TIP3    H229268   3.135   6.353   4.849 -1.1001  0.3337 -0.3321
 2593TIP3   OH229269   4.318   5.479  11.374 -0.5417  0.0733 -0.1883
 2593TIP3    H129270   4.346   5.442  11.291  0.2894 -2.6841  1.2359
 2593TIP3    H229271   4.243   5.425  11.401  0.0255  0.0476  1.4566
 2594TIP3   OH229272   6.727   0.547  11.294  0.3295  0.4463 -0.0472
 2594TIP3    H129273   6.660   0.556  11.226 -0.3182  1.6736  0.7241
 2594TIP3    H229274   6.733   0.634  11.334 -0.4869 -0.5594  2.5255
 2595TIP3   OH229275   6.411   1.142   6.439 -0.0905  0.8757 -0.0918
 2595TIP3    H129276   6.419   1.231   6.403 -0.5051  0.8093 -0.3428
 2595TIP3    H229277   6.420   1.154   6.534 -1.0403  1.3006 -0.0464
 2596TIP3   OH229278   5.198   1.090  14.719 -0.1120  0.7434 -0.1220
 2596TIP3    H129279   5.106   1.082  14.745 -0.0343 -1.1733 -0.2663
 2596TIP3    H229280   5.201   1.060  14.628  0.4831  1.9548 -0.5178
 2597TIP3   OH229281   4.022   6.324  11.949  0.0185  0.3025 -0.3524
 2597TIP3    H129282   4.008   6.372  12.031 -1.9095 -0.0600 -0.4191
 2597TIP3    H229283   4.117   6.322  11.938  0.3419  0.1892  1.9681
 2598TIP3   OH229284   1.656   5.206  14.720  0.3746  0.2067  0.3101
 2598TIP3    H129285   1.563   5.230  14.726  0.3940  0.5345 -0.5150
 2598TIP3    H229286   1.702   5.282  14.755  0.3414  0.2186  0.3281
 2599TIP3   OH229287   0.204   1.605  15.565 -0.0196  0.3069 -0.4791
 2599TIP3    H129288   0.110   1.621  15.549 -0.1325  0.5156  0.3471
 2599TIP3    H229289   0.234   1.560  15.486 -0.6271  0.9893 -1.1178
 2600TIP3   OH229290   2.943   2.627  16.941  0.3900 -1.4134  0.0003
 2600TIP3    H129291   2.982   2.694  16.884 -1.7759  0.9579  1.1565
 2600TIP3    H229292   3.008   2.613  17.010 -0.8406  3.2564  2.5063
 2601TIP3   OH229293   5.487   5.413   5.051  0.0485  0.1414 -0.1379
 2601TIP3    H129294   5.493   5.317   5.050 -0.0301  0.1134  0.8479
 2601TIP3    H229295   5.519   5.438   5.138  0.3628  1.0348 -0.5002
 2602TIP3   OH229296   0.919   5.041   5.226  0.1013  0.0239  0.4002
 2602TIP3    H129297   0.898   5.047   5.319 -1.6314  0.4310  0.0256
 2602TIP3    H229298   0.918   4.947   5.207  0.4566 -0.0599  0.7893
 2603TIP3   OH229299   3.140   4.804  14.332 -0.2242 -0.0586  0.4225
 2603TIP3    H129300   3.220   4.835  14.289  0.3376 -0.7766  0.9229
 2603TIP3    H229301   3.128   4.863  14.406 -0.1273  0.0231  0.3722
 2604TIP3   OH229302   1.426   2.477  11.760 -0.0873  0.4684  0.1404
 2604TIP3    H129303   1.338   2.453  11.789  0.3019 -0.9361  0.2596
 2604TIP3    H229304   1.417   2.492  11.666 -0.2186 -1.1361 -0.1408
 2605TIP3   OH229305   4.746   3.744   4.000  0.3171  0.3988 -0.2296
 2605TIP3    H129306   4.656   3.743   4.032  0.1246  1.6913 -0.6563
 2605TIP3    H229307   4.791   3.678   4.052 -1.0649 -0.8759 -0.5831
 2606TIP3   OH229308   3.098   4.714  15.853  0.0199 -0.5317 -0.0771
 2606TIP3    H129309   3.021   4.740  15.904  0.1824 -0.3853  0.0952
 2606TIP3    H229310   3.138   4.643  15.904 -0.8960 -1.7435 -0.9616
 2607TIP3   OH229311   0.067   1.098   5.914 -0.4086 -0.3838  0.4532
 2607TIP3    H129312  -0.023   1.067   5.919 -0.1180 -1.1124  1.5708
 2607TIP3    H229313   0.120   1.020   5.932  0.4051  0.3417  1.2885
 2608TIP3   OH229314   4.043   5.338  13.454  0.2003  0.2355 -0.0866
 2608TIP3    H129315   4.062   5.423  13.494 -1.1466  0.6192 -0.2142
 2608TIP3    H229316   3.973   5.301  13.508  1.3982 -1.2402  0.5433
 2609TIP3   OH229317   0.654   3.502   2.802  0.2988  0.1091  0.0049
 2609TIP3    H129318   0.709   3.575   2.777  0.4659  0.3313  0.9896
 2609TIP3    H229319   0.710   3.445   2.855  0.2280 -0.8350 -0.8949
 2610TIP3   OH229320   5.107   5.324  14.531 -0.3496  0.7704 -0.2715
 2610TIP3    H129321   5.019   5.309  14.567  0.3218 -0.2107  1.0223
 2610TIP3    H229322   5.128   5.414  14.556 -0.4798  0.5850  0.5312
 2611TIP3   OH229323   2.439   4.997  13.485  0.0760  0.6564 -0.0161
 2611TIP3    H129324   2.487   4.981  13.404 -0.5410  0.6491 -0.3892
 2611TIP3    H229325   2.486   4.948  13.552  0.5428  0.5985 -0.3891
 2612TIP3   OH229326   1.114   3.212   3.716 -0.0766  0.1605  0.6155
 2612TIP3    H129327   1.161   3.208   3.632  0.5054 -2.0796  0.9940
 2612TIP3    H229328   1.173   3.260   3.774  0.7776 -0.6638  0.4616
 2613TIP3   OH229329   0.213   3.656  15.027  0.0829 -0.6445 -0.5566
 2613TIP3    H129330   0.209   3.749  15.048 -0.2426 -0.5261 -1.1202
 2613TIP3    H229331   0.263   3.617  15.099  0.7919  0.0616 -0.6490
 2614TIP3   OH229332   5.597   4.734  15.679 -0.6550  0.5746  0.3408
 2614TIP3    H129333   5.552   4.798  15.624 -1.4359 -0.6762 -0.5468
 2614TIP3    H229334   5.686   4.766  15.686 -0.2609  0.3529 -2.4471
 2615TIP3   OH229335   6.149   4.826  14.675  0.4115  0.7254 -0.1694
 2615TIP3    H129336   6.237   4.800  14.647 -0.3685 -1.3311 -0.9008
 2615TIP3    H229337   6.113   4.874  14.600 -0.6263 -2.2962 -1.7796
 2616TIP3   OH229338   2.681   3.241   5.228  0.0626 -0.0095  0.3381
 2616TIP3    H129339   2.766   3.204   5.251  0.0675 -1.2990 -1.5145
 2616TIP3    H229340   2.670   3.316   5.286  0.9539 -1.7367  2.8955
 2617TIP3   OH229341   2.594   0.132   9.824  0.2836 -0.6333  0.3187
 2617TIP3    H129342   2.682   0.164   9.804 -0.2340  0.4996 -0.2267
 2617TIP3    H229343   2.576   0.165   9.912 -0.4948  1.2512 -0.4772
 2618TIP3   OH229344   0.044   3.115  13.237  0.0625 -0.0376 -0.1730
 2618TIP3    H129345   0.054   3.209  13.219  0.6550  0.1356  0.9785
 2618TIP3    H229346   0.050   3.073  13.152 -1.7060  1.0828 -0.9013
 2619TIP3   OH229347   2.279   1.802  14.548  0.4669  0.0720  0.3748
 2619TIP3    H129348   2.298   1.783  14.456  1.2188 -0.3636  0.6125
 2619TIP3    H229349   2.349   1.758  14.597  0.0015  0.1863  1.1642
 2620TIP3   OH229350   5.206   6.326   0.963  0.0310  0.4819 -0.4758
 2620TIP3    H129351   5.241   6.325   0.874  0.1791 -0.5592 -0.4142
 2620TIP3    H229352   5.259   6.393   1.008  0.6120  0.3298 -0.9154
 2621TIP3   OH229353   0.526   0.749   4.231 -0.4248 -0.3458  0.0300
 2621TIP3    H129354   0.497   0.836   4.258 -0.8619  0.2531 -2.1937
 2621TIP3    H229355   0.613   0.739   4.270 -0.4450  1.0057  0.4513
 2622TIP3   OH229356   5.821   5.772   1.818 -0.2828 -0.0769  0.0728
 2622TIP3    H129357   5.899   5.813   1.856 -0.1965 -1.0748  1.0204
 2622TIP3    H229358   5.811   5.814   1.733  0.5998  0.9082  0.4284
 2623TIP3   OH229359   1.395   1.942   1.544 -0.1291  0.6677 -0.4294
 2623TIP3    H129360   1.440   1.889   1.478 -1.1167  0.1661 -0.7320
 2623TIP3    H229361   1.359   1.878   1.606 -2.0564  0.8804 -1.2602
 2624TIP3   OH229362   3.297   0.172  11.695 -0.2758 -0.2016 -0.3471
 2624TIP3    H129363   3.254   0.257  11.705  0.4628  0.3511 -1.6578
 2624TIP3    H229364   3.319   0.146  11.785  1.1866  1.9115 -0.0240
 2625TIP3   OH229365   3.712   3.210  14.716  1.0490  0.5756 -0.3969
 2625TIP3    H129366   3.734   3.121  14.744  1.6450  1.1191  0.9551
 2625TIP3    H229367   3.723   3.263  14.794 -2.8986  1.3216 -0.1775
 2626TIP3   OH229368   5.433   1.748  12.300  0.2355 -0.1200  0.6301
 2626TIP3    H129369   5.347   1.783  12.324 -0.1759 -0.8560  0.2620
 2626TIP3    H229370   5.422   1.718  12.210  0.9737  0.0714  0.4716
 2627TIP3   OH229371   4.950   2.819  11.024 -0.1070  0.7138 -0.0415
 2627TIP3    H129372   4.980   2.744  11.075  1.3764  1.0270 -0.4004
 2627TIP3    H229373   4.958   2.893  11.083  0.7254  0.9388 -0.4277
 2628TIP3   OH229374   4.376   1.776  15.776  0.3357 -0.0187 -0.3816
 2628TIP3    H129375   4.427   1.765  15.856  0.2946 -0.4878 -0.4145
 2628TIP3    H229376   4.384   1.869  15.754 -0.3992  0.3065  0.6703
 2629TIP3   OH229377   4.477   6.203  16.589 -0.3662 -0.7810 -0.5672
 2629TIP3    H129378   4.406   6.175  16.647  1.3812 -0.3949  1.9441
 2629TIP3    H229379   4.467   6.298  16.582  1.3853 -0.2642  2.1957
 2630TIP3   OH229380   3.081   1.607   0.362  0.2201  0.0554  0.3040
 2630TIP3    H129381   3.091   1.700   0.382 -0.1948  0.4018 -1.0017
 2630TIP3    H229382   3.166   1.581   0.327  0.1653  0.0974  0.1353
 2631TIP3   OH229383   4.178   3.156  11.482 -0.8183  0.1501  0.3826
 2631TIP3    H129384   4.265   3.174  11.446 -1.0551  0.1783 -0.1875
 2631TIP3    H229385   4.190   3.079  11.537 -0.4662  0.0504  0.1686
 2632TIP3   OH229386   2.689   6.690  11.683  0.0868  1.0769 -0.0953
 2632TIP3    H129387   2.639   6.612  11.710  0.5924  1.4368  2.1210
 2632TIP3    H229388   2.702   6.679  11.589 -1.6961 -0.4398 -0.2224
 2633TIP3   OH229389   6.159   1.621   2.424 -0.2059 -0.2405 -0.2690
 2633TIP3    H129390   6.104   1.546   2.401 -0.3333  0.1752 -1.3644
 2633TIP3    H229391   6.110   1.667   2.492 -0.1250 -1.1430  0.4195
 2634TIP3   OH229392   4.885   1.316   5.537 -0.1414  0.2222  0.1884
 2634TIP3    H129393   4.814   1.283   5.592 -0.8503 -0.0409 -0.8572
 2634TIP3    H229394   4.947   1.355   5.599 -1.0993  0.2875  1.1377
 2635TIP3   OH229395   2.763   2.186   4.359  0.2702 -0.3771  0.3682
 2635TIP3    H129396   2.736   2.100   4.327 -1.7981  0.3528 -0.0466
 2635TIP3    H229397   2.695   2.245   4.325  1.1066  1.2590  1.4637
 2636TIP3   OH229398   2.641   1.967  15.014  0.8480  0.0502 -0.5280
 2636TIP3    H129399   2.576   1.961  14.943  0.5100 -0.1219 -0.2079
 2636TIP3    H229400   2.723   1.988  14.970  0.1200  2.8261 -0.7583
 2637TIP3   OH229401   6.386   2.827   3.393  0.1033  0.2413 -0.1693
 2637TIP3    H129402   6.401   2.733   3.385  0.4542  0.2169  0.7309
 2637TIP3    H229403   6.302   2.835   3.436 -0.7282  0.3671 -1.7310
 2638TIP3   OH229404   3.188   2.125   1.353 -0.0118 -0.0151  0.0690
 2638TIP3    H129405   3.155   2.123   1.443 -1.7388  0.9145 -0.4897
 2638TIP3    H229406   3.117   2.087   1.300  1.5747 -1.9580 -0.7731
 2639TIP3   OH229407   4.857   2.050  11.911  0.7431 -0.0109 -0.0950
 2639TIP3    H129408   4.808   1.968  11.922 -0.4348  0.6676 -0.0924
 2639TIP3    H229409   4.797   2.118  11.941  1.0969  1.0016 -1.5563
 2640TIP3   OH229410   6.686   5.130   0.729  0.4118  0.0694 -0.5190
 2640TIP3    H129411   6.705   5.218   0.695  0.5293  0.8500  1.4526
 2640TIP3    H229412   6.756   5.113   0.792  0.6343 -1.6474 -1.1796
 2641TIP3   OH229413   5.040   5.567   5.136  0.1133  0.0699  0.3516
 2641TIP3    H129414   5.077   5.624   5.069  2.2858  0.8705  2.1139
 2641TIP3    H229415   4.954   5.605   5.155  0.3957  1.1242 -0.4210
 2642TIP3   OH229416   1.197   5.364   5.614  0.0259  0.3651 -0.3735
 2642TIP3    H129417   1.221   5.272   5.607  1.3250  0.5462  1.2105
 2642TIP3    H229418   1.137   5.369   5.688  0.0525  0.8168 -0.3770
 2643TIP3   OH229419   1.624   2.130   1.367 -0.1589  0.3049 -0.5601
 2643TIP3    H129420   1.666   2.216   1.363 -0.4536  0.5036  0.3941
 2643TIP3    H229421   1.568   2.127   1.289 -0.2386  1.0285 -0.5380
 2644TIP3   OH229422   2.829   1.575  15.045 -0.2110  0.3027  0.4895
 2644TIP3    H129423   2.815   1.525  14.964 -2.6261  0.1833  0.9235
 2644TIP3    H229424   2.893   1.522  15.094 -0.5099 -0.8678 -0.3258
 2645TIP3   OH229425   2.607   2.044  14.311 -0.0636  0.5301 -0.1888
 2645TIP3    H129426   2.597   1.950  14.299 -3.1770  0.9347 -1.5760
 2645TIP3    H229427   2.621   2.055  14.405  0.2722 -1.2867  0.0030
 2646TIP3   OH229428   0.722   3.578  12.216  0.3736  0.3663 -0.0885
 2646TIP3    H129429   0.700   3.486  12.224 -0.3247  0.4716 -0.6996
 2646TIP3    H229430   0.672   3.621  12.287  1.0700  0.2235  0.4964
 2647TIP3   OH229431   5.617   5.757  13.926  0.0631  0.2034  0.0303
 2647TIP3    H129432   5.610   5.675  13.877 -0.2824  0.1769  0.1201
 2647TIP3    H229433   5.647   5.730  14.013 -0.9151  0.0692  0.3380
 2648TIP3   OH229434   6.746   4.954  12.145  0.2505  0.3084  1.2275
 2648TIP3    H129435   6.751   5.028  12.205  0.2051  0.2526  1.3006
 2648TIP3    H229436   6.741   4.994  12.058 -1.4169  0.4537  1.3492
 2649TIP3   OH229437   5.846   1.752  15.106  0.2690 -0.7226 -0.2278
 2649TIP3    H129438   5.914   1.812  15.134 -1.9799  1.8993 -0.0230
 2649TIP3    H229439   5.835   1.769  15.013 -0.3160 -0.8850 -0.1966
 2650TIP3   OH229440   0.342   3.293   5.713 -0.1086 -0.2937 -0.4095
 2650TIP3    H129441   0.305   3.337   5.636  0.7724 -0.2404 -0.8101
 2650TIP3    H229442   0.365   3.364   5.773 -2.4273 -0.3853  0.7104
 2651TIP3   OH229443   4.188   5.736  14.330 -0.3749 -0.1645  0.2874
 2651TIP3    H129444   4.148   5.787  14.260  1.8736  0.9951 -0.2248
 2651TIP3    H229445   4.203   5.799  14.400 -0.1382 -0.7399  0.7645
 2652TIP3   OH229446   2.631   4.037  17.179 -0.1524 -0.3291 -0.2649
 2652TIP3    H129447   2.715   4.025  17.135  0.0890  0.0329  0.0963
 2652TIP3    H229448   2.653   4.077  17.263 -0.5733 -1.3555  0.3608
 2653TIP3   OH229449   0.437   1.880   0.215 -0.3349 -0.4773  0.0621
 2653TIP3    H129450   0.502   1.913   0.276 -0.6585 -0.4777  0.4119
 2653TIP3    H229451   0.388   1.814   0.264 -0.1658 -0.9585 -0.4063
 2654TIP3   OH229452   3.370   6.254  11.351  0.2919 -0.1131  0.2840
 2654TIP3    H129453   3.310   6.195  11.305  0.1511 -0.2113  0.5905
 2654TIP3    H229454   3.457   6.226  11.322  0.2170 -0.3676  0.2991
 2655TIP3   OH229455   6.678   5.505  13.426  0.0811 -0.0996 -0.0623
 2655TIP3    H129456   6.762   5.548  13.406 -0.8068  1.0300 -1.5091
 2655TIP3    H229457   6.658   5.535  13.515  1.1608 -0.3274  0.2821
 2656TIP3   OH229458   5.206   0.092   2.713 -0.6556 -0.1309  0.3889
 2656TIP3    H129459   5.125   0.129   2.748 -0.9911 -1.1498  0.7405
 2656TIP3    H229460   5.274   0.124   2.773 -0.9780 -0.3335  0.8744
 2657TIP3   OH229461   1.935   6.749  14.132 -0.0338 -0.4750  0.0061
 2657TIP3    H129462   1.913   6.672  14.080  1.0032 -0.9107  0.1914
 2657TIP3    H229463   1.942   6.820  14.068 -0.9175 -0.5306 -0.1735
 2658TIP3   OH229464   6.486   5.783  14.743  0.1152  0.7332 -0.0282
 2658TIP3    H129465   6.438   5.857  14.780  2.6146  3.2501 -1.4923
 2658TIP3    H229466   6.569   5.820  14.714  1.7445 -2.8074 -0.3377
 2659TIP3   OH229467   2.558   6.515   3.355  0.7333  0.3467 -0.2064
 2659TIP3    H129468   2.526   6.525   3.445  2.4897 -0.3286  0.5402
 2659TIP3    H229469   2.557   6.420   3.340  0.1161  0.4794 -1.0407
 2660TIP3   OH229470   3.078   1.014   1.171 -0.5064  0.2481  0.1533
 2660TIP3    H129471   3.028   1.025   1.252  0.7984  0.4755  0.9742
 2660TIP3    H229472   3.113   0.925   1.176  0.2532  0.5449  0.2555
 2661TIP3   OH229473   6.550   0.082   4.685 -0.2599 -0.3322 -0.1350
 2661TIP3    H129474   6.466   0.127   4.694 -0.6370 -1.2319  1.1181
 2661TIP3    H229475   6.561   0.070   4.591 -0.4992  1.6685 -0.4667
 2662TIP3   OH229476   0.239   2.576  14.601 -0.0098  0.2037  0.1426
 2662TIP3    H129477   0.147   2.549  14.591 -0.0445  0.4228 -0.1335
 2662TIP3    H229478   0.289   2.507  14.557 -0.0134 -0.1388  0.6646
 2663TIP3   OH229479   2.692   3.970  16.873  0.2273  0.1950 -0.4377
 2663TIP3    H129480   2.759   3.930  16.929 -0.2996  3.0420  2.5463
 2663TIP3    H229481   2.610   3.934  16.906  0.0662 -0.7375 -1.8095
 2664TIP3   OH229482   5.258   4.098   1.101  0.1878  0.3682 -0.2727
 2664TIP3    H129483   5.272   4.095   1.006  0.1735 -1.0065 -0.2423
 2664TIP3    H229484   5.307   4.175   1.130  2.5792 -0.7770 -1.0058
 2665TIP3   OH229485   0.869   4.447  11.245  0.4126  0.0319  0.2942
 2665TIP3    H129486   0.924   4.520  11.272 -0.0946  0.2021  0.8951
 2665TIP3    H229487   0.919   4.403  11.177  0.1246  1.7396 -1.0774
 2666TIP3   OH229488   4.854   0.645  13.404 -0.2040  0.1696  0.0218
 2666TIP3    H129489   4.898   0.618  13.485  0.3086 -0.1256 -0.3494
 2666TIP3    H229490   4.802   0.568  13.379 -0.8376  0.4764  0.3968
 2667TIP3   OH229491   3.666   6.695  14.023 -0.4090 -0.4379 -0.1857
 2667TIP3    H129492   3.685   6.624  13.961 -0.0648  0.3568 -1.0206
 2667TIP3    H229493   3.615   6.758  13.972 -2.6639 -1.0729  1.1562
 2668TIP3   OH229494   2.005   2.227   3.639 -0.0585  0.3008  0.5289
 2668TIP3    H129495   2.020   2.262   3.552 -0.3933  1.8546  1.0683
 2668TIP3    H229496   1.989   2.304   3.694  0.3995 -0.6208  2.0186
 2669TIP3   OH229497   3.128   1.261  11.781  0.7780  0.2880  0.5582
 2669TIP3    H129498   3.117   1.236  11.690  0.2281 -0.5701  0.8420
 2669TIP3    H229499   3.192   1.333  11.780  0.5439  0.4903 -0.5158
 2670TIP3   OH229500   6.447   1.380   0.788  0.0598 -0.1462 -0.0892
 2670TIP3    H129501   6.399   1.422   0.716  0.4696  3.3818  1.4555
 2670TIP3    H229502   6.400   1.407   0.867  0.1265 -3.1949  1.1098
 2671TIP3   OH229503   4.470   1.573   1.313  0.0680  0.5996  0.4495
 2671TIP3    H129504   4.443   1.581   1.222 -0.7067  2.3948  0.7925
 2671TIP3    H229505   4.555   1.530   1.310 -0.0184  0.4962 -1.0925
 2672TIP3   OH229506   6.275   5.380  15.337 -0.3402 -0.1969 -0.1881
 2672TIP3    H129507   6.333   5.389  15.261 -1.0337  2.1658 -0.5355
 2672TIP3    H229508   6.193   5.348  15.301 -0.3793  0.0303 -0.3063
 2673TIP3   OH229509   2.194   4.855  16.793 -0.4327  0.1923 -0.1976
 2673TIP3    H129510   2.152   4.925  16.842 -1.8471 -0.6139 -0.2273
 2673TIP3    H229511   2.213   4.788  16.858  0.5335  0.3923 -0.2447
 2674TIP3   OH229512   6.297   4.765  15.162  0.3294 -0.7184  0.1677
 2674TIP3    H129513   6.216   4.734  15.121 -0.9640  1.7445  0.6820
 2674TIP3    H229514   6.271   4.843  15.211  3.2306  0.9720 -0.7304
 2675TIP3   OH229515   4.911   1.004   3.636  0.1143  0.2215  0.4209
 2675TIP3    H129516   4.818   1.000   3.659 -0.4675 -0.2301 -1.7615
 2675TIP3    H229517   4.932   0.916   3.606  1.2682  0.3203  0.8873
 2676TIP3   OH229518   1.221   1.546  16.253  0.4716 -0.6634 -0.2241
 2676TIP3    H129519   1.221   1.641  16.240  1.2796 -0.6403 -0.1019
 2676TIP3    H229520   1.265   1.533  16.337 -0.9166 -1.0682  0.4587
 2677TIP3   OH229521   6.312   3.652  14.891 -0.2811 -0.0461 -0.2949
 2677TIP3    H129522   6.281   3.576  14.841 -2.2678  0.9122 -0.6249
 2677TIP3    H229523   6.296   3.629  14.982 -1.3080  0.1243 -0.4186
 2678TIP3   OH229524   0.634   1.444   2.374 -0.1164  0.1800 -0.7777
 2678TIP3    H129525   0.719   1.487   2.364 -0.3081  0.5015 -1.0414
 2678TIP3    H229526   0.652   1.370   2.432  0.0412  1.1213  0.4029
 2679TIP3   OH229527   5.301   3.085  13.324 -0.3226 -0.3718  0.3016
 2679TIP3    H129528   5.349   3.014  13.281 -0.5442 -0.5607  0.3631
 2679TIP3    H229529   5.365   3.155  13.334 -0.2869 -0.3024 -0.3945
 2680TIP3   OH229530   0.262   2.250  13.614  0.1893 -0.4250  0.5612
 2680TIP3    H129531   0.235   2.232  13.704 -0.4678 -2.4654 -0.0063
 2680TIP3    H229532   0.353   2.221  13.611  0.6529  0.8914  0.8740
 2681TIP3   OH229533   5.004   5.800   2.155  0.1527  0.1308 -0.4371
 2681TIP3    H129534   4.922   5.823   2.198 -0.3392 -2.1982 -0.0149
 2681TIP3    H229535   5.000   5.844   2.070 -0.2829  2.2118  0.6005
 2682TIP3   OH229536   5.586   1.890   1.840 -0.0982  0.3352  0.1247
 2682TIP3    H129537   5.595   1.861   1.749  0.6323  2.5778 -0.5793
 2682TIP3    H229538   5.670   1.931   1.860  0.1350 -0.9889  2.1928
 2683TIP3   OH229539   4.829   2.414  16.771 -0.1015  0.2808  0.3003
 2683TIP3    H129540   4.905   2.454  16.729 -0.8306  1.3434 -0.0510
 2683TIP3    H229541   4.778   2.378  16.698  0.5551 -1.3818  0.6062
 2684TIP3   OH229542   4.336   1.534   3.877 -0.7780  0.3859  0.0896
 2684TIP3    H129543   4.269   1.516   3.943 -2.0926 -1.3213 -1.5764
 2684TIP3    H229544   4.331   1.628   3.862 -1.4890  0.5653  1.3414
 2685TIP3   OH229545   6.508   2.935  14.307 -0.5102  0.7163  0.2389
 2685TIP3    H129546   6.557   2.979  14.377 -0.4286 -0.7230  1.1257
 2685TIP3    H229547   6.524   2.988  14.229  2.3672  0.4190  0.5117
 2686TIP3   OH229548   4.113   5.254   0.654  0.2033 -0.0452  0.3681
 2686TIP3    H129549   4.119   5.226   0.563  0.8956  0.1484  0.3467
 2686TIP3    H229550   4.132   5.175   0.705  2.6372  0.4402  0.3033
 2687TIP3   OH229551   6.358   6.160   4.849 -0.5409  0.3670 -0.4514
 2687TIP3    H129552   6.286   6.182   4.790 -0.5874 -0.3353 -0.6602
 2687TIP3    H229553   6.386   6.245   4.884 -0.6961  0.7709 -1.2633
 2688TIP3   OH229554   0.403   4.767   2.792 -0.9022 -0.2051  0.3375
 2688TIP3    H129555   0.341   4.824   2.838 -1.9586 -0.5574 -0.6201
 2688TIP3    H229556   0.378   4.679   2.818  0.2526 -0.3036  1.2157
 2689TIP3   OH229557   4.587   0.238   4.058  0.5369 -0.3548 -0.1752
 2689TIP3    H129558   4.524   0.259   4.126 -0.3376  0.1197 -1.0969
 2689TIP3    H229559   4.664   0.291   4.079  0.1321  0.0792  0.2196
 2690TIP3   OH229560   2.314   4.536   0.200 -0.1951 -0.2797 -0.1029
 2690TIP3    H129561   2.251   4.479   0.156  0.7959 -0.9674 -0.6769
 2690TIP3    H229562   2.361   4.478   0.261  1.6765 -0.4272 -1.5825
 2691TIP3   OH229563   6.377   0.541   5.032 -0.5678 -0.1555 -0.1769
 2691TIP3    H129564   6.435   0.465   5.031 -0.1368  0.1764 -0.8954
 2691TIP3    H229565   6.429   0.610   5.074 -1.5820 -0.7120  2.1604
 2692TIP3   OH229566   5.698   5.813  14.763  0.3031  0.2807  0.3574
 2692TIP3    H129567   5.781   5.861  14.767  0.5842  0.1522 -2.3947
 2692TIP3    H229568   5.639   5.871  14.715 -0.8301 -0.1886  1.1380
 2693TIP3   OH229569   4.109   3.998   4.819 -0.4834  0.0102  0.0665
 2693TIP3    H129570   4.143   3.982   4.907 -1.6834 -1.1365  0.3515
 2693TIP3    H229571   4.082   3.912   4.788 -1.4867  0.6257 -0.8283
 2694TIP3   OH229572   5.169   1.049   3.638  0.1849 -1.0440  0.9266
 2694TIP3    H129573   5.164   1.139   3.670 -0.6493 -0.3940 -0.8705
 2694TIP3    H229574   5.078   1.018   3.638  0.6183 -2.5713  3.1650
 2695TIP3   OH229575   3.786   2.234  14.573 -0.7693 -0.1718 -0.1179
 2695TIP3    H129576   3.827   2.224  14.488 -1.0631 -2.3727 -0.0790
 2695TIP3    H229577   3.716   2.298  14.560 -0.3502  0.0507 -1.3343
 2696TIP3   OH229578   5.113   6.392   4.502 -0.6005 -0.6144 -0.6837
 2696TIP3    H129579   5.194   6.395   4.451 -0.6523 -1.0046 -0.7958
 2696TIP3    H229580   5.044   6.409   4.438 -0.5882  0.0429 -0.5288
 2697TIP3   OH229581   3.133   3.383   6.569  0.6081 -0.1837 -0.0191
 2697TIP3    H129582   3.112   3.298   6.609  0.8539  0.1360  0.7967
 2697TIP3    H229583   3.052   3.433   6.574  0.9612  0.3028  1.2400
 2698TIP3   OH229584   3.589   4.313  14.075  0.3211  0.7851  0.5195
 2698TIP3    H129585   3.673   4.293  14.116  0.1549 -2.1411 -0.3496
 2698TIP3    H229586   3.532   4.241  14.102 -0.6143  0.3123 -2.4271
 2699TIP3   OH229587   3.914   3.599  13.508 -0.2374 -0.5666  0.3984
 2699TIP3    H129588   4.000   3.562  13.488  0.8112  2.4414 -1.3798
 2699TIP3    H229589   3.858   3.523  13.524  2.1983 -2.7503 -0.6742
 2700TIP3   OH229590   5.610   3.801  16.099 -0.0105 -0.1572  0.0903
 2700TIP3    H129591   5.587   3.893  16.110  0.5725  0.2304 -1.6248
 2700TIP3    H229592   5.700   3.802  16.067 -0.1582 -1.3019 -0.4145
 2701TIP3   OH229593   1.356   2.708   1.524 -0.2555 -0.3894  0.1016
 2701TIP3    H129594   1.422   2.767   1.488  1.4213 -1.2594  1.5683
 2701TIP3    H229595   1.311   2.671   1.448  1.3674 -0.1997 -0.9854
 2702TIP3   OH229596   0.051   3.115  15.291  0.9391 -0.5034  0.2200
 2702TIP3    H129597  -0.006   3.183  15.254 -0.6330 -1.9684 -0.1785
 2702TIP3    H229598   0.125   3.111  15.230  0.6033  0.2122 -0.2543
 2703TIP3   OH229599   3.414   1.659  10.929  0.0426  0.7126 -0.5830
 2703TIP3    H129600   3.443   1.569  10.948 -0.2483  1.0837  2.0812
 2703TIP3    H229601   3.476   1.691  10.863  0.0735 -1.4556 -1.6915
 2704TIP3   OH229602   3.726   0.058   5.561  0.0670  0.0161  0.4175
 2704TIP3    H129603   3.775   0.028   5.484  0.8927  3.3293 -0.4828
 2704TIP3    H229604   3.676   0.133   5.531  1.8016  2.6089  3.3902
 2705TIP3   OH229605   5.985   1.306  15.883  0.1313  0.4760 -0.0320
 2705TIP3    H129606   5.890   1.306  15.892  0.1867 -1.4193  1.3997
 2705TIP3    H229607   6.001   1.271  15.795 -0.5513 -1.4756  0.5585
 2706TIP3   OH229608   0.482   5.412   4.366  0.0097  0.2063  0.3813
 2706TIP3    H129609   0.478   5.485   4.304 -0.2826 -1.1527 -1.2675
 2706TIP3    H229610   0.576   5.395   4.376  0.2148  2.0813  2.4245
 2707TIP3   OH229611   3.820   3.413  13.183  0.0823  0.4933  0.1895
 2707TIP3    H129612   3.888   3.452  13.129 -0.1225  0.8504  0.1821
 2707TIP3    H229613   3.739   3.429  13.134  0.1797 -1.6184 -0.7541
 2708TIP3   OH229614   1.911   3.544   2.983 -0.0812 -0.0951 -0.1813
 2708TIP3    H129615   1.884   3.599   2.909 -1.9105 -1.7466 -0.8150
 2708TIP3    H229616   2.007   3.544   2.978 -0.1185  0.9235 -1.7248
 2709TIP3   OH229617   1.476   2.960  13.065  0.6231 -0.2316  0.0563
 2709TIP3    H129618   1.556   2.973  13.015  2.1322 -2.9187  1.5435
 2709TIP3    H229619   1.483   3.021  13.139  1.5401 -0.7241  0.3950
 2710TIP3   OH229620   3.286   3.899  14.313  0.0088 -0.1498 -0.5324
 2710TIP3    H129621   3.342   3.948  14.254  1.3169 -0.9568  0.0005
 2710TIP3    H229622   3.313   3.926  14.401 -0.2966 -0.7062 -0.2595
 2711TIP3   OH229623   6.575   5.381   6.182  0.3414 -0.5732 -0.0357
 2711TIP3    H129624   6.642   5.447   6.201  1.4520 -1.1058 -1.9125
 2711TIP3    H229625   6.597   5.307   6.239  0.5329 -0.2446  0.3206
 2712TIP3   OH229626   0.997   1.342   2.864 -0.1939 -0.4409  0.1289
 2712TIP3    H129627   0.951   1.395   2.930 -0.5667  0.3624 -0.7559
 2712TIP3    H229628   1.089   1.346   2.891 -0.3333 -0.0517  0.5608
 2713TIP3   OH229629   4.447   1.165   3.804 -0.0271  0.4675  0.1626
 2713TIP3    H129630   4.435   1.219   3.726  0.5616 -0.3543 -0.5294
 2713TIP3    H229631   4.523   1.201   3.848  1.3419 -0.6917 -1.1393
 2714TIP3   OH229632   0.835   2.543   3.511  0.3241 -0.7889  0.0992
 2714TIP3    H129633   0.924   2.552   3.477  0.4370  2.7541  0.9628
 2714TIP3    H229634   0.792   2.483   3.450  2.6025 -0.6758 -1.7538
 2715TIP3   OH229635   4.624   4.710   4.870 -0.1740  0.2180  0.0964
 2715TIP3    H129636   4.569   4.786   4.849 -1.1935 -0.4903  0.1004
 2715TIP3    H229637   4.696   4.715   4.807 -2.5208 -1.1982 -2.9991
 2716TIP3   OH229638   4.306   3.369   5.922 -0.2371 -0.2540 -0.5998
 2716TIP3    H129639   4.216   3.335   5.924 -1.5716  2.8508 -1.8755
 2716TIP3    H229640   4.346   3.327   5.846 -0.6817 -1.3551 -0.2594
 2717TIP3   OH229641   5.981   0.677   0.260  0.5186  0.2885  0.8604
 2717TIP3    H129642   6.053   0.655   0.202  0.9414 -0.6054  1.7015
 2717TIP3    H229643   5.981   0.773   0.262  1.4263  0.3084  0.5417
 2718TIP3   OH229644   0.361   0.339   0.165 -0.1390  0.3713  0.2550
 2718TIP3    H129645   0.310   0.372   0.091  2.0887 -1.5393 -2.3411
 2718TIP3    H229646   0.443   0.388   0.162  1.3988 -2.0667 -0.8818
 2719TIP3   OH229647   1.352   6.579  16.802  0.2565  0.0591  0.4565
 2719TIP3    H129648   1.283   6.520  16.772  1.0945 -0.0420 -1.3786
 2719TIP3    H229649   1.305   6.659  16.826 -0.4779  0.1052 -1.0479
 2720TIP3   OH229650   4.424   3.167   0.538 -0.4767 -0.0116 -0.1073
 2720TIP3    H129651   4.485   3.101   0.505 -0.8397 -0.0497 -0.7279
 2720TIP3    H229652   4.465   3.250   0.515  0.1933 -0.0008  1.0646
 2721TIP3   OH229653   3.676   3.383  15.527 -0.9604 -0.2759  0.2127
 2721TIP3    H129654   3.616   3.339  15.468 -1.4624  0.9006 -0.2004
 2721TIP3    H229655   3.656   3.476  15.516 -0.6264  0.0117  1.7728
 2722TIP3   OH229656   4.224   3.460  12.480  0.1742 -0.3000 -0.3557
 2722TIP3    H129657   4.135   3.495  12.471  0.7058  0.5458 -3.2726
 2722TIP3    H229658   4.274   3.531  12.518  0.0133 -0.0284 -0.6458
 2723TIP3   OH229659   5.239   2.717  14.848  0.9045  0.4607  0.0426
 2723TIP3    H129660   5.179   2.676  14.786  1.2705 -1.1044  0.6863
 2723TIP3    H229661   5.185   2.742  14.922  0.9594 -0.5873  0.4504
 2724TIP3   OH229662   0.862   0.397  12.826  0.3540 -0.0980  0.0618
 2724TIP3    H129663   0.945   0.444  12.833 -0.4294  1.4175 -0.4838
 2724TIP3    H229664   0.826   0.397  12.915  1.6240 -2.1944  0.6683
 2725TIP3   OH229665   2.282   4.484   5.310 -0.4048  0.2750  0.4050
 2725TIP3    H129666   2.326   4.493   5.225 -0.8706  0.4350  0.1774
 2725TIP3    H229667   2.189   4.477   5.288 -0.3429 -2.7048  0.6697
 2726TIP3   OH229668   0.418   4.410   0.019 -0.2570  0.7932 -0.9335
 2726TIP3    H129669   0.359   4.356  -0.034 -1.0121  0.0737  0.5682
 2726TIP3    H229670   0.365   4.485   0.044 -0.7032 -0.0101  0.6874
 2727TIP3   OH229671   4.534   1.817  10.526  0.3419  0.3241 -0.0952
 2727TIP3    H129672   4.534   1.722  10.538  0.1246  0.2200 -0.8616
 2727TIP3    H229673   4.473   1.849  10.592 -0.9550 -0.2359 -0.9866
 2728TIP3   OH229674   2.395   5.271   2.436 -0.3458  0.9167 -0.1158
 2728TIP3    H129675   2.406   5.307   2.348 -1.2881 -0.9398 -1.0558
 2728TIP3    H229676   2.378   5.348   2.491  2.3799  2.3577 -1.0885
 2729TIP3   OH229677   5.259   3.895   4.563 -0.4700 -0.1264  0.5925
 2729TIP3    H129678   5.210   3.839   4.623 -0.5087  1.0356  1.6818
 2729TIP3    H229679   5.349   3.863   4.569 -0.1575  0.9622  2.5345
 2730TIP3   OH229680   3.561   6.096  14.987  0.0170  0.2860 -0.2436
 2730TIP3    H129681   3.598   6.183  14.999  0.1806  0.1697  0.1181
 2730TIP3    H229682   3.625   6.049  14.934  0.4605  0.0421  0.4961
 2731TIP3   OH229683   5.420   4.514  16.478  0.1385 -0.6337 -0.5731
 2731TIP3    H129684   5.367   4.548  16.550  1.1326  0.4984 -0.3277
 2731TIP3    H229685   5.508   4.548  16.495 -0.0233  1.7636 -3.5262
 2732TIP3   OH229686   2.060   4.428   2.645 -0.3999 -0.0317  0.1503
 2732TIP3    H129687   2.149   4.428   2.681  0.3467  0.8261 -1.5491
 2732TIP3    H229688   2.013   4.493   2.696  0.2699  0.3115  0.3439
 2733TIP3   OH229689   6.627   6.325  13.701 -0.9224 -0.4428  0.0669
 2733TIP3    H129690   6.538   6.357  13.692 -1.2429 -1.3294  0.0069
 2733TIP3    H229691   6.682   6.404  13.696 -1.6171 -0.0131 -1.0340
 2734TIP3   OH229692   6.573   5.089   3.403 -1.0381 -0.4440  0.5252
 2734TIP3    H129693   6.530   5.007   3.381  0.1508 -1.4760  1.8291
 2734TIP3    H229694   6.665   5.066   3.414 -0.2202  1.5389 -1.4064
 2735TIP3   OH229695   5.636   3.063  15.334  0.7209  0.0662 -0.0537
 2735TIP3    H129696   5.721   3.026  15.360  0.7836 -0.7975 -1.4104
 2735TIP3    H229697   5.573   2.993  15.351  0.3007  0.6010  0.6691
 2736TIP3   OH229698   3.112   1.467  15.079 -0.1988 -0.4277 -0.0197
 2736TIP3    H129699   3.175   1.479  15.007  3.5603 -0.1906  2.9731
 2736TIP3    H229700   3.122   1.376  15.105 -1.1587 -0.3953  0.5142
 2737TIP3   OH229701   1.054   3.160  17.003 -0.0847  0.4518 -0.3068
 2737TIP3    H129702   1.087   3.235  17.053 -0.2840  0.4021 -0.1036
 2737TIP3    H229703   0.963   3.182  16.983 -0.5437 -0.3201  0.8851
 2738TIP3   OH229704   6.693   0.103   2.580  0.7039  0.0085  0.0630
 2738TIP3    H129705   6.716   0.039   2.513  0.3268  2.2865 -2.3694
 2738TIP3    H229706   6.598   0.106   2.580  0.7184  0.5513  0.1986
 2739TIP3   OH229707   2.320   2.058  13.131  0.2674 -0.2644  0.1187
 2739TIP3    H129708   2.293   2.085  13.219  0.1901 -0.0411  0.0268
 2739TIP3    H229709   2.251   2.091  13.073  0.9081  0.6173 -0.1545
 2740TIP3   OH229710   6.673   0.684   3.357 -0.1865 -0.1683  0.7009
 2740TIP3    H129711   6.734   0.742   3.312 -0.5445  0.2002  0.6873
 2740TIP3    H229712   6.588   0.726   3.349 -0.6573 -1.2453 -0.2675
 2741TIP3   OH229713   2.070   4.582   3.057  0.1839 -0.2587 -0.1934
 2741TIP3    H129714   2.069   4.507   3.118 -0.3749 -1.3496 -1.4848
 2741TIP3    H229715   2.084   4.658   3.113  0.4712 -1.2995  1.2110
 2742TIP3   OH229716   4.928   3.511  11.361  0.1851 -0.0348  0.1623
 2742TIP3    H129717   4.980   3.463  11.297  0.7776 -1.6288  1.7505
 2742TIP3    H229718   4.874   3.570  11.309  1.2535 -0.6420 -1.7268
 2743TIP3   OH229719   4.167   6.238  12.954  0.6289 -0.1844 -0.4724
 2743TIP3    H129720   4.212   6.280  12.881 -0.6893  2.1688 -0.0541
 2743TIP3    H229721   4.233   6.233  13.024  1.0193  0.5918 -0.7738
 2744TIP3   OH229722   1.715   4.611   1.838 -0.3900 -0.4622 -0.7363
 2744TIP3    H129723   1.711   4.559   1.758 -0.5296 -2.7127  0.6530
 2744TIP3    H229724   1.626   4.608   1.873 -0.1438 -0.2251 -0.0616
 2745TIP3   OH229725   1.177   2.487  12.008 -0.4222 -0.7316 -0.5042
 2745TIP3    H129726   1.196   2.394  11.995  1.9797 -0.1499 -1.7611
 2745TIP3    H229727   1.110   2.507  11.942 -1.2105 -1.6079  0.0043
 2746TIP3   OH229728   6.732   0.544   6.505 -0.0109 -0.6718  0.3776
 2746TIP3    H129729   6.793   0.598   6.555 -0.6868  0.1244  0.3542
 2746TIP3    H229730   6.676   0.503   6.571 -0.7905  0.2417  0.2893
 2747TIP3   OH229731   3.356   1.399   2.066 -0.1503  0.2928  0.4167
 2747TIP3    H129732   3.271   1.359   2.051  0.0204 -0.3120  0.9842
 2747TIP3    H229733   3.336   1.483   2.107 -0.4924  0.4416 -0.0556
 2748TIP3   OH229734   1.736   0.987  16.589 -0.4156  0.2871 -0.1214
 2748TIP3    H129735   1.644   0.969  16.607 -0.0962 -0.6342  0.6889
 2748TIP3    H229736   1.778   0.983  16.675  0.8376 -2.0647 -0.7702
 2749TIP3   OH229737   0.712   2.692   4.277 -0.0103 -0.3312  0.7463
 2749TIP3    H129738   0.757   2.615   4.242 -0.7883 -0.2261 -0.5508
 2749TIP3    H229739   0.663   2.727   4.203 -1.1073  0.3750  1.7606
 2750TIP3   OH229740   3.510   4.801  17.161 -0.2767  0.2693 -0.0700
 2750TIP3    H129741   3.601   4.825  17.180 -0.1765  0.3558 -0.6447
 2750TIP3    H229742   3.493   4.838  17.074 -0.8183  0.1336 -0.0262
 2751TIP3   OH229743   0.242   6.227   1.623 -0.4901  0.2659 -0.2512
 2751TIP3    H129744   0.162   6.238   1.571 -0.1988 -1.1154 -1.0477
 2751TIP3    H229745   0.297   6.302   1.598 -2.4222  2.7349  2.2077
 2752TIP3   OH229746   1.908   2.820  17.054  0.3565  0.4258 -0.3347
 2752TIP3    H129747   1.991   2.867  17.059  0.3639  0.4392 -0.6125
 2752TIP3    H229748   1.843   2.888  17.035  0.3105  0.3845 -0.3273
 2753TIP3   OH229749   5.232   0.622   3.521  0.2550  0.6896 -0.6322
 2753TIP3    H129750   5.220   0.645   3.429  1.3452 -0.3206 -1.0585
 2753TIP3    H229751   5.313   0.570   3.522 -0.8439 -1.0942  0.5821
 2754TIP3   OH229752   4.122   5.116  11.830  0.3608  0.3787  0.3692
 2754TIP3    H129753   4.169   5.197  11.850 -0.6770  1.2915 -0.7478
 2754TIP3    H229754   4.191   5.049  11.829  1.1402  1.0942  1.9968
 2755TIP3   OH229755   0.617   0.280  15.359 -0.3017  0.6992  0.5143
 2755TIP3    H129756   0.655   0.194  15.344 -0.6905  0.7090 -0.6642
 2755TIP3    H229757   0.620   0.292  15.453  0.5891 -0.2212  0.6181
 2756TIP3   OH229758   5.769   2.091  12.584 -0.4159 -0.0416  0.9320
 2756TIP3    H129759   5.675   2.085  12.568 -0.1384  1.9961 -2.5778
 2756TIP3    H229760   5.776   2.135  12.669 -2.6293  0.3813  0.9531
 2757TIP3   OH229761   3.217   0.629   2.834  0.0293 -0.3794  0.5844
 2757TIP3    H129762   3.161   0.701   2.862 -0.4377 -0.8598  0.8958
 2757TIP3    H229763   3.168   0.586   2.764  0.4573 -0.1960  0.1638
 2758TIP3   OH229764   5.227   1.472  11.208 -0.0116  0.4002 -0.6484
 2758TIP3    H129765   5.304   1.449  11.260 -0.1620 -0.6729 -0.8789
 2758TIP3    H229766   5.262   1.521  11.133  0.7147 -1.8137 -1.8374
 2759TIP3   OH229767   2.170   3.267   5.344 -0.7134 -0.0913 -0.1062
 2759TIP3    H129768   2.169   3.339   5.407  0.4984 -0.6744  0.6154
 2759TIP3    H229769   2.242   3.289   5.284  0.0710 -0.9814  0.4815
 2760TIP3   OH229770   3.796   5.768   2.012  0.6480  0.5083  0.4330
 2760TIP3    H129771   3.736   5.732   1.946 -0.0129 -0.2374  1.4185
 2760TIP3    H229772   3.739   5.802   2.080  1.2915  2.5249  0.0218
 2761TIP3   OH229773   5.953   6.332  14.296  0.0842 -1.1663 -0.5732
 2761TIP3    H129774   5.934   6.291  14.211  0.3023  1.0196 -1.7459
 2761TIP3    H229775   5.881   6.393  14.310  1.5027  0.6217 -0.6703
 2762TIP3   OH229776   4.122   0.759   2.552  0.1599 -0.5024 -0.3422
 2762TIP3    H129777   4.106   0.768   2.458  0.2164  0.6585 -0.2604
 2762TIP3    H229778   4.112   0.666   2.570  0.0373 -0.7179 -1.4802
 2763TIP3   OH229779   5.285   5.810   1.815  0.3930 -0.0649 -0.3425
 2763TIP3    H129780   5.255   5.843   1.730 -0.4958  1.6077  0.5666
 2763TIP3    H229781   5.378   5.835   1.819  0.2244  0.6067 -0.4869
 2764TIP3   OH229782   1.073   5.660  14.061 -0.9551  0.1159  0.0006
 2764TIP3    H129783   1.076   5.625  14.150  0.4549 -0.0201 -0.0814
 2764TIP3    H229784   1.138   5.730  14.060 -1.9616  1.0976 -0.5458
 2765TIP3   OH229785   6.572   2.181   4.258  0.4687  0.5914 -0.3456
 2765TIP3    H129786   6.496   2.132   4.224  2.0394 -1.2494 -1.4176
 2765TIP3    H229787   6.534   2.260   4.296 -2.0878 -0.7020  0.0466
 2766TIP3   OH229788   4.793   0.655   4.427  0.2210  0.2080 -0.2384
 2766TIP3    H129789   4.715   0.647   4.481  0.0384 -1.2555 -0.6779
 2766TIP3    H229790   4.851   0.586   4.457  0.5577  0.0646 -1.1784
 2767TIP3   OH229791   1.381   2.652   4.136  0.1560  0.2817  0.1425
 2767TIP3    H129792   1.329   2.623   4.212  0.9561 -0.3516  0.4690
 2767TIP3    H229793   1.405   2.571   4.092 -0.4803  0.6616 -0.9274
 2768TIP3   OH229794   0.988   4.893  16.680 -0.0270  0.0701  0.0427
 2768TIP3    H129795   1.036   4.866  16.759 -1.2190  0.9038  1.0827
 2768TIP3    H229796   0.999   4.988  16.677  0.6530 -0.0325 -1.2537
 2769TIP3   OH229797   6.407   2.211   0.591  0.2887  0.2000 -0.2847
 2769TIP3    H129798   6.365   2.295   0.573  0.1191  0.5133  1.4063
 2769TIP3    H229799   6.352   2.146   0.547 -0.7992  0.8008  0.1360
 2770TIP3   OH229800   1.018   6.632  16.245  0.4981  0.0018  0.2380
 2770TIP3    H129801   1.005   6.537  16.244 -0.1286  0.0728  0.9239
 2770TIP3    H229802   1.061   6.651  16.328  1.6115  0.2134 -0.3604
 2771TIP3   OH229803   2.277   2.932   0.798  0.1762 -0.4234 -0.0522
 2771TIP3    H129804   2.264   2.880   0.719 -0.9842 -2.0259  1.1277
 2771TIP3    H229805   2.284   2.868   0.868  0.2199  0.9831  1.2812
 2772TIP3   OH229806   5.002   0.731   5.100  0.1289 -0.1797 -0.3329
 2772TIP3    H129807   5.084   0.773   5.074 -0.3083  0.5120 -0.6166
 2772TIP3    H229808   5.004   0.646   5.056  1.1774 -0.6274  0.5208
 2773TIP3   OH229809   5.429   6.670   4.558 -0.3848  0.1956  0.1361
 2773TIP3    H129810   5.476   6.646   4.479 -2.0799 -1.9257 -0.3302
 2773TIP3    H229811   5.352   6.718   4.527  0.4907  2.1367  0.7739
 2774TIP3   OH229812   0.088   0.710   6.673  0.3645 -0.3053 -0.2827
 2774TIP3    H129813   0.164   0.765   6.650  0.2487 -0.4992 -1.1556
 2774TIP3    H229814   0.124   0.645   6.734 -0.0805  2.5765  3.4983
 2775TIP3   OH229815   3.475   2.113   2.630 -0.0067  0.1225 -0.3486
 2775TIP3    H129816   3.429   2.085   2.552  1.2545  1.5656 -1.6930
 2775TIP3    H229817   3.551   2.161   2.597  1.9440 -1.3284  1.7483
 2776TIP3   OH229818   4.290   3.717   3.909 -0.5731 -0.0105 -0.0997
 2776TIP3    H129819   4.282   3.732   3.815 -1.1828  1.5803  0.1632
 2776TIP3    H229820   4.202   3.732   3.944  0.0932  1.9021  0.9720
 2777TIP3   OH229821   0.628   6.510  15.117 -0.2696  0.0164 -0.1118
 2777TIP3    H129822   0.680   6.492  15.039  0.5775 -0.3955  0.5299
 2777TIP3    H229823   0.603   6.423  15.150  0.3688  0.1407  0.7224
 2778TIP3   OH229824   3.361   5.466   4.372  0.2578 -0.1834  0.0480
 2778TIP3    H129825   3.434   5.522   4.397 -0.5174  0.7712  0.2508
 2778TIP3    H229826   3.398   5.403   4.310  1.5201 -0.5614  1.1558
 2779TIP3   OH229827   0.171   4.174   2.679  0.6599  0.4251  0.0224
 2779TIP3    H129828   0.076   4.177   2.670  0.6276  2.4268  0.6543
 2779TIP3    H229829   0.186   4.119   2.756  0.1947 -1.9874 -1.4747
 2780TIP3   OH229830   6.687   1.892  12.381 -0.2374 -0.0112 -0.2127
 2780TIP3    H129831   6.779   1.908  12.400  0.3371 -1.5076 -1.5844
 2780TIP3    H229832   6.670   1.938  12.299 -0.5142 -0.3775 -0.3633
 2781TIP3   OH229833   3.492   6.330  13.667 -0.0280  0.7541 -0.1417
 2781TIP3    H129834   3.471   6.395  13.600 -0.8375  0.3473 -0.2881
 2781TIP3    H229835   3.421   6.337  13.731 -0.0560  0.1015 -0.0947
 2782TIP3   OH229836   0.422   1.074  14.254  0.4061 -0.3124  0.4098
 2782TIP3    H129837   0.402   0.993  14.207  1.9989 -1.5951  1.8027
 2782TIP3    H229838   0.396   1.143  14.194 -2.5360 -1.7887 -0.2084
 2783TIP3   OH229839   5.123   5.196  16.878 -0.3751  0.2954 -0.0088
 2783TIP3    H129840   5.155   5.238  16.799 -2.2106  0.8412 -0.4936
 2783TIP3    H229841   5.152   5.253  16.949  1.0645 -0.0680 -0.2695
 2784TIP3   OH229842   5.398   1.901   2.058 -0.9068 -0.0400 -0.2408
 2784TIP3    H129843   5.458   1.923   2.129 -0.0897 -0.2703 -0.8363
 2784TIP3    H229844   5.450   1.915   1.978 -1.3734 -1.0341 -0.7420
 2785TIP3   OH229845   2.042   2.293   3.363  0.2291 -0.5234 -0.7060
 2785TIP3    H129846   1.971   2.235   3.337  0.5738 -0.5655 -1.5956
 2785TIP3    H229847   2.118   2.235   3.371  0.4829 -0.2662 -1.1999
 2786TIP3   OH229848   1.252   1.752  12.213  0.8916  0.3448 -0.2745
 2786TIP3    H129849   1.345   1.751  12.238  1.1147 -1.3189 -1.0391
 2786TIP3    H229850   1.234   1.662  12.187 -0.3860  1.1109 -2.1682
 2787TIP3   OH229851   4.771   5.954  15.858  0.4084 -0.4974 -0.5497
 2787TIP3    H129852   4.817   6.018  15.803  0.0289  0.3830  0.1376
 2787TIP3    H229853   4.800   5.869  15.825  1.7180  0.0283 -0.8095
 2788TIP3   OH229854   4.222   4.074   4.444  0.0775  0.7120  0.1107
 2788TIP3    H129855   4.201   4.101   4.355 -1.0731  0.9581  0.4307
 2788TIP3    H229856   4.150   4.016   4.469  0.8237 -0.0366  0.5885
 2789TIP3   OH229857   0.164   2.325   3.686  0.1291 -0.9241  0.1750
 2789TIP3    H129858   0.167   2.295   3.595  0.5916 -2.6275  0.7063
 2789TIP3    H229859   0.243   2.287   3.726  0.5584  0.7586  1.0183
 2790TIP3   OH229860   0.084   4.845   5.370 -0.3027 -0.4775 -0.0875
 2790TIP3    H129861   0.164   4.805   5.405 -0.0639  0.3686  0.3620
 2790TIP3    H229862   0.043   4.775   5.319  0.0039 -1.3464  0.8261
 2791TIP3   OH229863   4.534   1.152  13.710  0.2359 -0.5643  0.6186
 2791TIP3    H129864   4.503   1.152  13.619 -0.2559 -0.0999  0.7791
 2791TIP3    H229865   4.543   1.245  13.733 -1.5369 -0.5934  1.6559
 2792TIP3   OH229866   2.312   5.884   3.749  0.3418  0.2347  0.1337
 2792TIP3    H129867   2.252   5.824   3.705  2.0155 -1.4929  0.1022
 2792TIP3    H229868   2.278   5.891   3.838 -1.1532  1.0936 -0.4700
 2793TIP3   OH229869   4.524   4.579  15.496  0.4750  0.3043  0.1618
 2793TIP3    H129870   4.599   4.523  15.518 -1.2105 -1.4725  1.8211
 2793TIP3    H229871   4.462   4.565  15.568 -1.9325  0.8077 -1.6853
 2794TIP3   OH229872   5.288   3.015   6.287  0.2390  0.3949 -0.2709
 2794TIP3    H129873   5.201   3.054   6.292  0.3702  0.5865  0.7243
 2794TIP3    H229874   5.275   2.924   6.314  0.2629  0.2921 -0.6082
 2795TIP3   OH229875   0.426   2.303  15.079  0.4878  0.1509 -0.2928
 2795TIP3    H129876   0.449   2.265  15.164  0.5778  1.8935  0.5152
 2795TIP3    H229877   0.492   2.372  15.066  0.7952 -0.4373 -2.0436
 2796TIP3   OH229878   1.648   6.760  12.336 -0.1811 -0.2141  0.1681
 2796TIP3    H129879   1.586   6.716  12.278  0.6671 -0.1720 -0.7966
 2796TIP3    H229880   1.727   6.771  12.283  0.6294 -0.1855  1.3359
 2797TIP3   OH229881   6.593   6.657   2.721 -0.6676 -0.4104  0.1150
 2797TIP3    H129882   6.588   6.610   2.637 -0.9663 -0.5355  0.1997
 2797TIP3    H229883   6.501   6.669   2.746 -0.5875 -1.7325  1.1717
 2798TIP3   OH229884   3.371   6.069   3.070 -0.0979 -0.0562  0.3404
 2798TIP3    H129885   3.316   6.144   3.095 -0.0467 -0.2027  0.8996
 2798TIP3    H229886   3.361   6.007   3.142 -2.0904 -1.6675 -1.2079
 2799TIP3   OH229887   3.120   4.331  14.915  0.3660  0.2511  0.1914
 2799TIP3    H129888   3.100   4.366  15.002  0.6927  0.0309  0.3587
 2799TIP3    H229889   3.207   4.366  14.894 -0.7302  2.3711 -1.1451
 2800TIP3   OH229890   5.297   2.145  14.702 -0.4684 -0.5374 -0.2242
 2800TIP3    H129891   5.250   2.083  14.758  0.8645 -1.5220 -0.1782
 2800TIP3    H229892   5.298   2.226  14.753 -3.3177 -0.0045 -0.8022
 2801TIP3   OH229893   5.028   0.611   2.230  0.4539  0.3248 -0.6422
 2801TIP3    H129894   5.087   0.682   2.205 -0.0380  0.2709 -2.0722
 2801TIP3    H229895   5.040   0.545   2.161  0.0926 -0.4927  0.0650
 2802TIP3   OH229896   6.509   1.391  14.405  0.1450 -0.1167 -0.4681
 2802TIP3    H129897   6.536   1.434  14.486  1.7979 -0.4892 -0.7754
 2802TIP3    H229898   6.566   1.314  14.399  2.8076  1.8491 -3.8086
 2803TIP3   OH229899   5.433   4.315  12.214  0.1740  0.2904 -0.4237
 2803TIP3    H129900   5.374   4.242  12.230 -1.7033  1.0261 -3.2550
 2803TIP3    H229901   5.382   4.376  12.161  2.7970  1.9982 -1.1670
 2804TIP3   OH229902   6.831   2.612  11.388 -0.0653  0.1903  0.7909
 2804TIP3    H129903   6.781   2.538  11.354 -0.2907  0.7990 -0.2354
 2804TIP3    H229904   6.859   2.584  11.475 -1.2525 -0.5976  0.9385
 2805TIP3   OH229905   5.919   6.734  13.654 -0.6222 -0.2071  0.5251
 2805TIP3    H129906   5.880   6.806  13.704  0.9701  1.5202 -0.5830
 2805TIP3    H229907   5.859   6.723  13.579 -0.2064  0.8942  0.0104
 2806TIP3   OH229908   4.957   3.442  11.794  0.0708  0.7163  0.1320
 2806TIP3    H129909   4.892   3.428  11.725  1.3859 -1.1922 -0.8160
 2806TIP3    H229910   4.915   3.410  11.874  0.1439 -1.4583 -0.6475
 2807TIP3   OH229911   6.006   3.172  13.218 -0.4229  0.1912  0.4456
 2807TIP3    H129912   6.091   3.215  13.213 -0.0743 -0.6199 -1.3836
 2807TIP3    H229913   5.992   3.157  13.311  3.1951 -2.9832  0.7474
 2808TIP3   OH229914   1.464   6.178   0.625 -0.5914  0.1354  0.7743
 2808TIP3    H129915   1.411   6.256   0.643 -2.0533 -0.4288 -0.7969
 2808TIP3    H229916   1.524   6.206   0.555  1.0663  0.6892  2.3507
 2809TIP3   OH229917   3.926   1.238   4.246  0.1676  0.1637 -0.1085
 2809TIP3    H129918   4.001   1.181   4.261  0.2263  0.3517  0.3407
 2809TIP3    H229919   3.929   1.257   4.152 -0.1449 -0.9614 -0.3605
 2810TIP3   OH229920   5.182   4.433   3.929 -0.6391 -0.0896  0.0653
 2810TIP3    H129921   5.087   4.445   3.925 -0.7009 -0.6121 -0.1971
 2810TIP3    H229922   5.194   4.360   3.989 -0.5618 -1.5555 -1.6502
 2811TIP3   OH229923   1.717   1.559   3.643 -0.0608  0.4316 -0.2089
 2811TIP3    H129924   1.720   1.472   3.602 -0.4583  0.4733 -0.3321
 2811TIP3    H229925   1.774   1.613   3.588  0.0231  0.2979 -0.2549
 2812TIP3   OH229926   6.613   2.450  16.726 -0.1150  0.4335  0.0565
 2812TIP3    H129927   6.628   2.356  16.718  1.1123  0.4454  1.6369
 2812TIP3    H229928   6.518   2.460  16.719 -0.1372 -0.6481 -2.1365
 2813TIP3   OH229929   2.627   5.263  16.656  0.3672 -0.5710  0.0151
 2813TIP3    H129930   2.639   5.169  16.645  0.3262 -0.6627  0.6994
 2813TIP3    H229931   2.653   5.280  16.747 -2.0939 -0.3478  0.7522
 2814TIP3   OH229932   2.066   5.822  12.005 -0.5927  0.1506  0.1732
 2814TIP3    H129933   2.038   5.831  11.915  0.9927  2.5106 -0.1796
 2814TIP3    H229934   1.990   5.846  12.058 -1.2225 -0.2319 -0.5571
 2815TIP3   OH229935   2.237   3.723   4.992 -0.1415 -0.0339 -0.1073
 2815TIP3    H129936   2.183   3.655   5.030  0.0605 -1.1981 -1.7703
 2815TIP3    H229937   2.217   3.802   5.043 -2.9840 -0.5250 -0.2978
 2816TIP3   OH229938   6.063   1.508  16.057  0.2419 -0.2916  0.1314
 2816TIP3    H129939   6.063   1.429  16.003  0.3678 -0.0072 -0.2941
 2816TIP3    H229940   6.156   1.529  16.069  0.2524 -0.9304  1.3325
 2817TIP3   OH229941   2.978   6.158   3.126 -0.0986 -0.5142  0.3010
 2817TIP3    H129942   2.989   6.238   3.075 -1.6163 -0.7297 -0.4460
 2817TIP3    H229943   2.918   6.183   3.197  0.6848 -0.6179  1.0097
 2818TIP3   OH229944   0.286   1.474   0.301 -0.1359 -0.2283 -0.5980
 2818TIP3    H129945   0.277   1.569   0.289  0.4058 -0.0999 -0.0362
 2818TIP3    H229946   0.200   1.439   0.278 -0.2495  0.3627 -1.1262
 2819TIP3   OH229947   3.030   0.415   2.090 -0.0159 -0.1728 -0.3922
 2819TIP3    H129948   3.058   0.476   2.022  1.0307  1.7499  1.6204
 2819TIP3    H229949   2.934   0.420   2.087  0.0114  2.1591  0.1036
 2820TIP3   OH229950   5.076   1.936  15.961 -0.0624  0.6100 -0.3883
 2820TIP3    H129951   5.160   1.967  15.995 -1.2348  3.2485  0.2940
 2820TIP3    H229952   5.053   1.863  16.019  0.7726  1.2057  0.7468
 2821TIP3   OH229953   3.686   0.942   3.036  0.1847  0.3867 -0.2765
 2821TIP3    H129954   3.624   0.871   3.053 -0.0891  0.8569  0.7284
 2821TIP3    H229955   3.756   0.927   3.099  0.2181  0.9058 -0.1936
 2822TIP3   OH229956   1.715   0.022   5.257  0.2039  0.2571 -0.2039
 2822TIP3    H129957   1.712   0.014   5.352 -0.8519  0.8955 -0.1688
 2822TIP3    H229958   1.705   0.116   5.240  1.5739  0.3157 -0.9231
 2823TIP3   OH229959   6.008   5.856   2.377 -0.0503 -0.0876 -0.3775
 2823TIP3    H129960   5.931   5.843   2.432  0.3782 -2.7922 -0.2937
 2823TIP3    H229961   5.979   5.918   2.309 -0.8236  2.6908  2.2574
 2824TIP3   OH229962   1.576   5.428   2.064 -0.4901 -0.0742  0.3035
 2824TIP3    H129963   1.606   5.378   1.988  0.5414 -1.5803  1.6237
 2824TIP3    H229964   1.652   5.480   2.090 -0.6606  0.0124  0.6372
 2825TIP3   OH229965   5.904   3.014  15.432  0.3916 -0.4924  0.0863
 2825TIP3    H129966   5.982   3.068  15.423  0.5492 -0.6477  0.4854
 2825TIP3    H229967   5.893   2.972  15.347  1.0646 -0.9021  0.1919
 2826TIP3   OH229968   5.333   4.292  12.852 -0.3119 -0.3315  0.1748
 2826TIP3    H129969   5.359   4.364  12.794 -0.6902  0.5067  1.0181
 2826TIP3    H229970   5.345   4.326  12.940  0.3739 -1.6383  0.6108
 2827TIP3   OH229971   6.543   6.795   1.312  0.3325  0.3142 -0.5841
 2827TIP3    H129972   6.538   6.849   1.391 -0.5137 -1.0881  0.3418
 2827TIP3    H229973   6.553   6.859   1.241  1.8603  1.5855  0.6765
 2828TIP3   OH229974   5.414   1.534  13.282 -0.3952  0.3628 -0.3066
 2828TIP3    H129975   5.489   1.478  13.261 -0.3936  0.4512 -0.5454
 2828TIP3    H229976   5.417   1.544  13.377 -0.3874 -0.0291 -0.2645
 2829TIP3   OH229977   0.350   6.005  15.787 -0.2286  0.2186 -0.0954
 2829TIP3    H129978   0.328   6.054  15.708 -1.2588 -0.9574 -0.5621
 2829TIP3    H229979   0.370   5.917  15.757 -1.0622 -0.3665  0.9706
 2830TIP3   OH229980   2.966   2.365   6.777  0.4671  0.2776  0.2259
 2830TIP3    H129981   2.882   2.321   6.763  0.6442 -0.9526  2.4897
 2830TIP3    H229982   2.952   2.454   6.746 -1.0319 -0.4199 -1.2566
 2831TIP3   OH229983   1.084   1.043   5.944  0.5754  0.1667  0.2884
 2831TIP3    H129984   1.120   1.128   5.967 -1.3171  1.1707 -0.2931
 2831TIP3    H229985   1.149   0.980   5.976  2.2610  1.8181  0.2717
 2832TIP3   OH229986   2.857   3.503  16.934  0.5927 -0.1347 -0.0506
 2832TIP3    H129987   2.933   3.516  16.878 -1.3904 -0.4517 -3.0810
 2832TIP3    H229988   2.832   3.412  16.921 -2.0595  0.7071 -1.7886
 2833TIP3   OH229989   4.804   4.207  13.674 -0.1730 -0.0428 -0.7164
 2833TIP3    H129990   4.741   4.138  13.651 -1.6396  0.5444  1.2774
 2833TIP3    H229991   4.874   4.161  13.720 -0.8661 -0.3085  0.1003
 2834TIP3   OH229992   6.599   4.571  11.767 -0.2586  0.0285  0.6142
 2834TIP3    H129993   6.576   4.647  11.715  1.9805  0.5007  0.1941
 2834TIP3    H229994   6.648   4.606  11.841  2.4032 -1.0111 -0.5150
 2835TIP3   OH229995   0.696   3.340  15.548 -0.7600  0.0871 -0.1777
 2835TIP3    H129996   0.718   3.410  15.487 -1.0030  1.3336  1.1131
 2835TIP3    H229997   0.777   3.326  15.598 -1.1842  0.6604  0.7026
 2836TIP3   OH229998   0.410   6.430   0.660  0.2216  0.2433  0.3732
 2836TIP3    H129999   0.451   6.426   0.573  0.3301 -2.8258  0.4631
 2836TIP3    H230000   0.452   6.360   0.710  0.1282  1.9102  2.9402
 2837TIP3   OH230001   2.595   1.469   5.410  0.2781  0.9055  0.5765
 2837TIP3    H130002   2.568   1.528   5.340 -0.0861  0.6836  0.5293
 2837TIP3    H230003   2.686   1.493   5.427  0.4783  0.7377 -0.2115
 2838TIP3   OH230004   6.142   0.901  11.299  0.5515  0.8055 -0.0713
 2838TIP3    H130005   6.132   0.912  11.393  1.0012  0.0100  0.0841
 2838TIP3    H230006   6.204   0.829  11.290 -0.3312  0.1219 -0.9704
 2839TIP3   OH230007   1.908   0.855   0.251 -0.4925  0.6388 -0.1147
 2839TIP3    H130008   1.826   0.853   0.202 -1.2183 -0.1961  1.0528
 2839TIP3    H230009   1.884   0.894   0.335  0.6076  1.5882 -0.2278
 2840TIP3   OH230010   3.764   0.293  16.170  0.2704 -0.0326  0.0874
 2840TIP3    H130011   3.835   0.229  16.179  0.1195 -0.1664  0.3116
 2840TIP3    H230012   3.803   0.375  16.201  0.3088 -0.1182  0.2662
 2841TIP3   OH230013   2.812   0.627   2.178  0.0488 -0.0532 -0.1129
 2841TIP3    H130014   2.760   0.586   2.109  0.0101  0.5496 -0.4567
 2841TIP3    H230015   2.807   0.567   2.252  2.9566 -2.5154 -1.6830
 2842TIP3   OH230016   4.175   4.828  13.281 -0.1344  0.3189 -0.4931
 2842TIP3    H130017   4.174   4.865  13.193  1.6417  0.9716 -0.2781
 2842TIP3    H230018   4.108   4.878  13.329  1.7729  2.9848 -0.3698
 2843TIP3   OH230019   0.485   3.066   3.693 -0.2428  0.7147  0.0297
 2843TIP3    H130020   0.397   3.029   3.698 -0.4277  0.9848 -0.9610
 2843TIP3    H230021   0.489   3.105   3.605  0.6770  1.1730  0.2695
 2844TIP3   OH230022   5.289   4.882   1.318  0.0030  0.0799 -0.1954
 2844TIP3    H130023   5.234   4.857   1.392  1.4352 -2.0181  0.2631
 2844TIP3    H230024   5.231   4.934   1.262 -1.5452  0.4707  1.6538
 2845TIP3   OH230025   6.281   4.623  15.651  0.3671  0.4923  0.7633
 2845TIP3    H130026   6.319   4.667  15.727  0.5958  0.0174  0.9289
 2845TIP3    H230027   6.256   4.537  15.684 -0.6863  0.7343  0.6061
 2846TIP3   OH230028   4.304   1.327   1.537  0.0572 -0.5168  0.1723
 2846TIP3    H130029   4.233   1.378   1.498  1.8728  1.7801 -0.3530
 2846TIP3    H230030   4.349   1.287   1.462 -0.0891 -1.1573  0.4208
 2847TIP3   OH230031   2.082   3.738  15.774  0.0955  0.4408  0.0136
 2847TIP3    H130032   2.092   3.765  15.683  1.1742  2.2776  0.6229
 2847TIP3    H230033   2.013   3.795  15.809 -0.1230 -0.0652  0.4277
 2848TIP3   OH230034   2.492   2.637   3.774 -0.3968  0.4587  0.0986
 2848TIP3    H130035   2.511   2.570   3.708  0.9764  0.4614  0.4426
 2848TIP3    H230036   2.547   2.711   3.750 -3.4429  2.3808 -1.4944
 2849TIP3   OH230037   4.102   5.404  16.651  0.3894  0.5198 -0.0173
 2849TIP3    H130038   4.038   5.438  16.714  0.5453 -0.7024  0.8417
 2849TIP3    H230039   4.180   5.384  16.704  1.5925  2.2017 -1.0915
 2850TIP3   OH230040   3.096   6.617   5.311 -0.2897  0.4350  0.0039
 2850TIP3    H130041   3.107   6.530   5.350 -2.4593 -0.1185 -0.4181
 2850TIP3    H230042   3.001   6.633   5.317 -0.2546  1.7472 -2.0022
 2851TIP3   OH230043   3.766   2.354  11.484 -0.2258 -0.3725 -0.2513
 2851TIP3    H130044   3.843   2.380  11.534 -0.8443 -0.0475  0.5552
 2851TIP3    H230045   3.743   2.433  11.434  0.0346 -0.5086 -0.5886
 2852TIP3   OH230046   2.349   1.666  11.964 -0.3788 -0.0446  0.2189
 2852TIP3    H130047   2.264   1.691  11.927  0.2996  1.0255 -0.6726
 2852TIP3    H230048   2.377   1.744  12.012  1.3470  0.6519 -1.7983
 2853TIP3   OH230049   3.355   0.574  10.884  0.5053  0.2677 -0.4887
 2853TIP3    H130050   3.404   0.630  10.823 -0.1245  1.5040  0.1011
 2853TIP3    H230051   3.288   0.532  10.829  0.2207  1.0378 -0.7428
 2854TIP3   OH230052   0.159   6.000   0.045  0.1228  0.0634 -0.5370
 2854TIP3    H130053   0.188   5.922  -0.002  1.8867  0.9073 -0.9209
 2854TIP3    H230054   0.188   5.986   0.135  1.1030  0.5703 -0.7598
 2855TIP3   OH230055   6.089   3.773   0.876 -0.3536  0.7949  0.2385
 2855TIP3    H130056   6.115   3.841   0.813  0.7608 -0.6736 -0.9653
 2855TIP3    H230057   6.019   3.814   0.928 -0.5799  2.4313 -1.2505
 2856TIP3   OH230058   1.146   4.016  13.257  0.5927  0.5763  0.1889
 2856TIP3    H130059   1.221   4.035  13.312  0.1001  0.9434  0.7492
 2856TIP3    H230060   1.070   4.023  13.315  0.1917 -0.8125 -0.1254
 2857TIP3   OH230061   6.343   4.659   2.452 -0.2933 -0.3612  0.4867
 2857TIP3    H130062   6.377   4.590   2.395 -1.3370 -0.3955 -0.1142
 2857TIP3    H230063   6.248   4.645   2.454 -0.3805  0.2592  1.4157
 2858TIP3   OH230064   2.102   3.379  13.996 -0.4035 -0.4087 -0.3534
 2858TIP3    H130065   2.052   3.440  13.941 -0.0642  0.5993  0.4142
 2858TIP3    H230066   2.036   3.320  14.033 -1.2394  1.4862  1.4025
 2859TIP3   OH230067   1.304   0.612  15.607 -1.0430 -0.0333  0.3719
 2859TIP3    H130068   1.229   0.564  15.572 -0.5803  1.0549 -2.3535
 2859TIP3    H230069   1.295   0.700  15.572  1.0259  0.3843  0.7399
 2860TIP3   OH230070   1.237   0.170   2.133 -0.7314  0.1743 -0.4045
 2860TIP3    H130071   1.188   0.091   2.111  1.4322 -1.7321  1.2229
 2860TIP3    H230072   1.235   0.175   2.228 -1.3988  2.5475 -0.4666
 2861TIP3   OH230073   6.530   6.694  15.395  0.3293  0.9068  0.4216
 2861TIP3    H130074   6.493   6.607  15.406 -2.7053  1.6955 -2.0733
 2861TIP3    H230075   6.574   6.712  15.478 -1.4028 -1.8695  2.1041
 2862TIP3   OH230076   5.008   2.070  14.093 -0.2930 -0.2108 -0.1734
 2862TIP3    H130077   5.044   2.156  14.118 -0.8979  0.2632 -0.8899
 2862TIP3    H230078   5.083   2.023  14.056  0.0180  0.0522  0.1065
 2863TIP3   OH230079   0.410   5.052   6.389  0.3220  0.0473  0.5421
 2863TIP3    H130080   0.492   5.084   6.426  1.1534  0.9995 -1.9227
 2863TIP3    H230081   0.386   5.118   6.324  0.0984 -2.4525 -2.0994
 2864TIP3   OH230082   0.558   4.530  14.553 -0.4321 -0.3155 -0.0926
 2864TIP3    H130083   0.504   4.476  14.611 -0.7512  1.5399  1.4613
 2864TIP3    H230084   0.646   4.524  14.591 -1.0868  2.9735  2.4083
 2865TIP3   OH230085   3.057   0.962   2.470 -0.6435  0.0464  0.1632
 2865TIP3    H130086   3.047   0.906   2.393 -1.2669 -1.0125  0.9885
 2865TIP3    H230087   3.149   0.952   2.495 -0.7671 -0.7131  0.3542
 2866TIP3   OH230088   3.186   3.554  11.866  0.0283  0.3886 -0.5720
 2866TIP3    H130089   3.124   3.560  11.794 -1.0475  1.5637  0.4090
 2866TIP3    H230090   3.255   3.617  11.844  0.6483 -0.5189 -1.3835
 2867TIP3   OH230091   1.874   6.458  14.053 -0.1456 -0.1909 -0.5071
 2867TIP3    H130092   1.792   6.431  14.012 -0.9851 -0.5254  1.2894
 2867TIP3    H230093   1.880   6.403  14.132  2.0527 -0.5136 -0.8488
 2868TIP3   OH230094   6.778   3.380   4.406 -0.5480 -0.2690 -0.1751
 2868TIP3    H130095   6.736   3.393   4.491  2.0907  0.2106  1.1595
 2868TIP3    H230096   6.732   3.441   4.347 -2.6078 -0.8091  0.7872
 2869TIP3   OH230097   3.243   1.852  15.969  0.9425  0.3925  0.0858
 2869TIP3    H130098   3.333   1.844  15.939  0.4769 -0.5977 -1.1284
 2869TIP3    H230099   3.204   1.766  15.953  0.0938  0.4358  1.7176
 2870TIP3   OH230100   1.376   1.357  12.572  0.2907  0.0521  0.1725
 2870TIP3    H130101   1.341   1.432  12.621 -2.4075  0.8890 -2.7565
 2870TIP3    H230102   1.334   1.281  12.611 -1.8320  0.7036 -0.7254
 2871TIP3   OH230103   6.292   5.713  15.673 -0.0002 -0.1989 -0.0365
 2871TIP3    H130104   6.215   5.673  15.632 -0.0886  0.0929 -0.1556
 2871TIP3    H230105   6.290   5.682  15.763 -1.2119  1.1735  0.4441
 2872TIP3   OH230106   2.354   4.213  14.392 -0.1687 -0.5380 -0.1158
 2872TIP3    H130107   2.423   4.276  14.414  0.9962 -0.8199 -2.6006
 2872TIP3    H230108   2.352   4.153  14.467 -0.6571  1.8183  1.8646
 2873TIP3   OH230109   0.130   2.999  13.006  0.0168 -0.0165  0.3420
 2873TIP3    H130110   0.202   2.994  13.069 -0.3209 -0.1369  0.7245
 2873TIP3    H230111   0.160   2.946  12.932 -0.0368 -0.7910  0.8641
 2874TIP3   OH230112   4.211   3.507   1.789  0.2921  0.3898 -0.0411
 2874TIP3    H130113   4.217   3.585   1.734 -2.7185 -0.7306 -2.2305
 2874TIP3    H230114   4.216   3.540   1.878  2.0842  2.6783 -0.8893
 2875TIP3   OH230115   2.209   4.003  13.228  0.0113  0.1726  0.1065
 2875TIP3    H130116   2.302   3.992  13.206 -0.1503  1.3983 -1.3499
 2875TIP3    H230117   2.204   4.092  13.265 -0.2670 -0.6701  2.2613
 2876TIP3   OH230118   4.487   4.215  13.684  0.4426  0.1059 -0.3197
 2876TIP3    H130119   4.466   4.185  13.595  0.7099 -2.1162  0.3094
 2876TIP3    H230120   4.413   4.186  13.737 -0.9058  3.4591 -0.0667
 2877TIP3   OH230121   1.080   4.070   6.166  0.4876  0.1532 -0.2061
 2877TIP3    H130122   1.075   4.020   6.247  0.6217  0.5837  0.0742
 2877TIP3    H230123   1.018   4.027   6.107  1.1696 -0.8037 -0.2375
 2878TIP3   OH230124   5.890   5.687  14.004  0.2474  0.0715 -0.9567
 2878TIP3    H130125   5.873   5.639  13.923  0.7394  0.0927 -1.0750
 2878TIP3    H230126   5.855   5.630  14.073 -1.7253  0.8019 -1.2729
 2879TIP3   OH230127   4.462   4.828  16.136  0.4515  0.1718  0.3141
 2879TIP3    H130128   4.367   4.833  16.147 -0.0011 -1.9299 -1.8069
 2879TIP3    H230129   4.482   4.899  16.074  0.1587  0.2157  0.2659
 2880TIP3   OH230130   3.353   6.266   4.031  0.2391  0.3601 -0.1401
 2880TIP3    H130131   3.361   6.242   3.939  0.3282  0.1687 -0.0827
 2880TIP3    H230132   3.268   6.310   4.037  0.3803  0.6729 -0.3774
 2881TIP3   OH230133   5.451   2.511   5.607  0.3809  0.5308 -0.0386
 2881TIP3    H130134   5.519   2.449   5.579 -0.0346 -0.0815  0.2936
 2881TIP3    H230135   5.500   2.588   5.636  0.8230  1.5936 -3.2713
 2882TIP3   OH230136   2.636   3.925   0.623 -0.1134  0.5958  0.4992
 2882TIP3    H130137   2.635   3.880   0.708  0.0188  0.2286  0.3097
 2882TIP3    H230138   2.617   3.856   0.559  1.1611  0.5855  0.1020
 2883TIP3   OH230139   5.522   5.240   5.521 -0.2449  0.5696 -0.0339
 2883TIP3    H130140   5.438   5.251   5.565  0.1440  2.1979  0.3756
 2883TIP3    H230141   5.587   5.255   5.590  0.4269 -1.3952 -0.1711
 2884TIP3   OH230142   2.356   3.122   5.854 -0.0092  0.9346 -0.0694
 2884TIP3    H130143   2.271   3.130   5.809 -0.5019  1.1322  0.8676
 2884TIP3    H230144   2.413   3.184   5.808 -0.3493  0.7535 -0.7537
 2885TIP3   OH230145   0.301   5.870   3.471  0.2925  0.3650 -0.3670
 2885TIP3    H130146   0.280   5.809   3.542 -0.2744  1.0732  0.0824
 2885TIP3    H230147   0.307   5.814   3.393 -1.2393 -0.1487 -0.1442
 2886TIP3   OH230148   1.675   1.688  15.287 -0.1477  0.1327 -0.3251
 2886TIP3    H130149   1.742   1.724  15.229 -0.2344 -1.2532 -1.3299
 2886TIP3    H230150   1.673   1.595  15.266 -0.8154 -0.2470  1.2920
 2887TIP3   OH230151   3.966   0.199  16.670 -0.2157  0.5657 -0.3538
 2887TIP3    H130152   3.954   0.137  16.599 -1.4130  1.5578 -1.0610
 2887TIP3    H230153   3.965   0.146  16.749  4.5831 -1.0576 -1.0732
 2888TIP3   OH230154   4.258   4.737   5.146 -0.2382  0.8205 -0.1299
 2888TIP3    H130155   4.331   4.709   5.091 -1.4516  1.8021 -2.3674
 2888TIP3    H230156   4.296   4.801   5.205  0.7946  1.0635 -1.0195
 2889TIP3   OH230157   0.712   2.507   0.492  0.4938  0.4384  0.1869
 2889TIP3    H130158   0.750   2.572   0.432 -1.5213  1.1234 -0.4011
 2889TIP3    H230159   0.695   2.431   0.436  0.5756  0.2920  0.3592
 2890TIP3   OH230160   5.793   6.712  17.184  0.1711  0.3187  0.1295
 2890TIP3    H130161   5.888   6.709  17.196  0.0640 -0.4206  0.9331
 2890TIP3    H230162   5.761   6.754  17.264 -0.3267 -1.6459  1.0374
 2891TIP3   OH230163   4.767   1.215  11.478 -0.0503  0.5815 -0.3058
 2891TIP3    H130164   4.770   1.139  11.419 -0.0325 -0.9014  1.5186
 2891TIP3    H230165   4.855   1.251  11.475  0.9548 -1.5222  1.2739
 2892TIP3   OH230166   1.279   4.431  14.537  0.0511 -0.0632  0.2468
 2892TIP3    H130167   1.206   4.422  14.476 -0.3490  0.2888  0.6734
 2892TIP3    H230168   1.356   4.436  14.481 -0.4823  2.5834 -0.3910
 2893TIP3   OH230169   1.986   0.620   1.572  0.7557 -0.0809  0.0291
 2893TIP3    H130170   1.926   0.569   1.626  0.2560 -1.4786 -1.7692
 2893TIP3    H230171   1.939   0.701   1.552 -0.2580 -0.8596 -0.7834
 2894TIP3   OH230172   4.147   6.448  12.209 -0.0378 -0.0106  0.7632
 2894TIP3    H130173   4.215   6.380  12.216 -1.1105 -1.0768  1.1854
 2894TIP3    H230174   4.185   6.514  12.152  1.0552 -0.9638  0.3438
 2895TIP3   OH230175   4.744   4.331   3.052 -0.0676 -0.8048  0.1304
 2895TIP3    H130176   4.832   4.367   3.047 -0.7946  0.9560 -0.7872
 2895TIP3    H230177   4.748   4.267   3.123  1.5997  0.2021  0.9977
 2896TIP3   OH230178   1.392   1.808  13.751 -0.3648  0.2198  0.3230
 2896TIP3    H130179   1.388   1.791  13.846 -0.9831  0.7379  0.3996
 2896TIP3    H230180   1.383   1.721  13.712  2.7500 -0.3843  0.7336
 2897TIP3   OH230181   1.988   4.710  15.049 -0.2144  0.0364 -0.0604
 2897TIP3    H130182   1.952   4.771  15.113  2.5105 -0.3580  2.0217
 2897TIP3    H230183   2.077   4.694  15.078  0.7423 -1.2736 -3.2434
 2898TIP3   OH230184   0.940   0.941  15.468  0.0079  0.1484 -0.2307
 2898TIP3    H130185   1.008   0.955  15.402  0.3074  0.2017  0.0859
 2898TIP3    H230186   0.896   0.860  15.441  0.7809 -0.3791  0.0411
 2899TIP3   OH230187   4.278   5.950   1.412  0.0710  0.5823  0.2941
 2899TIP3    H130188   4.292   5.860   1.383 -1.3545  0.4866 -0.2144
 2899TIP3    H230189   4.260   5.942   1.506  4.1950  0.8424  1.2922
 2900TIP3   OH230190   3.625   0.754  17.097 -0.3191  0.5819  0.5135
 2900TIP3    H130191   3.535   0.728  17.115 -0.2385  0.0673  0.2023
 2900TIP3    H230192   3.623   0.787  17.007 -0.0492 -0.1853  0.2176
 2901TIP3   OH230193   6.407   2.033  11.670 -0.2100 -0.3256 -0.1422
 2901TIP3    H130194   6.407   2.127  11.688  1.4889 -0.0333 -1.4215
 2901TIP3    H230195   6.327   2.001  11.712 -0.0362  1.4040  1.6893
 2902TIP3   OH230196   5.481   0.594  10.434 -0.0239  0.4849  0.0031
 2902TIP3    H130197   5.388   0.609  10.419 -0.0869  2.3819  1.9137
 2902TIP3    H230198   5.510   0.669  10.486  2.0211 -1.2580  1.5625
 2903TIP3   OH230199   0.424   0.670   1.112  0.1985  0.5228 -0.1675
 2903TIP3    H130200   0.401   0.666   1.205 -4.0279 -0.8587 -1.0626
 2903TIP3    H230201   0.355   0.723   1.073  0.2229 -1.2528 -2.8854
 2904TIP3   OH230202   4.617   2.965   2.137 -0.3577 -0.3757 -0.5267
 2904TIP3    H130203   4.647   3.055   2.126 -2.0897  0.1294 -1.6148
 2904TIP3    H230204   4.536   2.973   2.188  0.4548 -1.5098  0.9892
 2905TIP3   OH230205   2.604   1.853   0.636  0.1529  0.3459  0.6659
 2905TIP3    H130206   2.631   1.834   0.726  0.6243  2.6503  1.0734
 2905TIP3    H230207   2.548   1.930   0.644  0.5978  0.8880 -1.0675
 2906TIP3   OH230208   6.193   6.830  16.012 -0.1942 -0.0377 -0.0622
 2906TIP3    H130209   6.201   6.862  15.922 -1.1861  0.0144 -0.1366
 2906TIP3    H230210   6.255   6.757  16.017 -1.3480 -1.1483 -1.3038
 2907TIP3   OH230211   4.257   0.175   2.809  0.3326 -0.1358  0.0146
 2907TIP3    H130212   4.300   0.204   2.890  0.1648 -0.0754  0.0820
 2907TIP3    H230213   4.324   0.184   2.742  0.2588  0.4737  0.0191
 2908TIP3   OH230214   4.163   1.244  11.872  0.0815  0.7904  1.0122
 2908TIP3    H130215   4.167   1.161  11.919  1.0500  0.9644  1.2494
 2908TIP3    H230216   4.138   1.220  11.783 -0.4725  0.3362  1.2780
 2909TIP3   OH230217   3.534   3.961   3.703  0.3647 -0.4182 -0.3008
 2909TIP3    H130218   3.615   3.963   3.653  0.9106  2.5174  0.5203
 2909TIP3    H230219   3.553   4.010   3.783 -2.6475  2.0298 -0.8733
 2910TIP3   OH230220   4.681   1.825  14.483 -0.3669  0.0105  0.0220
 2910TIP3    H130221   4.658   1.888  14.415 -0.1388  0.3533  0.2615
 2910TIP3    H230222   4.743   1.766  14.440 -0.8338 -0.2616 -0.3010
 2911TIP3   OH230223   1.748   6.598   3.443 -0.2397 -0.2713 -0.1536
 2911TIP3    H130224   1.752   6.503   3.448 -0.5878 -0.2968 -0.2868
 2911TIP3    H230225   1.684   6.622   3.510  0.4035 -0.0737  0.3971
 2912TIP3   OH230226   2.305   3.943   3.305  0.2177  0.1818  0.4063
 2912TIP3    H130227   2.391   3.964   3.342  0.0266 -0.5810  1.3275
 2912TIP3    H230228   2.325   3.909   3.217  0.9577 -1.0054  1.0143
 2913TIP3   OH230229   1.830   3.583  12.713  0.2612 -0.3881 -0.2635
 2913TIP3    H130230   1.922   3.593  12.734  1.1124  1.8013 -4.1182
 2913TIP3    H230231   1.791   3.668  12.734 -0.8282 -1.1168  0.8089
 2914TIP3   OH230232   4.806   0.721  14.546 -0.3527 -0.0944 -0.9257
 2914TIP3    H130233   4.729   0.773  14.525  0.9410  3.7506  2.4766
 2914TIP3    H230234   4.876   0.761  14.494  0.1333 -0.5168 -0.6009
 2915TIP3   OH230235   3.466   0.813  13.480  0.1602 -0.1172 -0.0336
 2915TIP3    H130236   3.424   0.752  13.420  0.1588 -0.9372  0.7710
 2915TIP3    H230237   3.392   0.859  13.522  0.0190 -1.4216  1.2384
 2916TIP3   OH230238   5.351   1.404   1.184  0.4165  0.6744 -0.1813
 2916TIP3    H130239   5.356   1.320   1.230  1.2253  1.0081  0.3573
 2916TIP3    H230240   5.285   1.390   1.116  1.5937 -0.8636 -1.0850
 2917TIP3   OH230241   2.039   1.429   2.777 -0.1675 -0.1419  0.3034
 2917TIP3    H130242   2.059   1.349   2.728 -1.3168 -0.0680 -0.3217
 2917TIP3    H230243   2.020   1.494   2.709  0.3594  0.5624  0.8187
 2918TIP3   OH230244   3.745   6.347   0.729 -0.0914  0.3733  0.2853
 2918TIP3    H130245   3.722   6.321   0.640 -1.2404 -0.0085  0.6722
 2918TIP3    H230246   3.700   6.284   0.785  0.6632  0.5740  1.1440
 2919TIP3   OH230247   5.713   6.176  12.732 -0.5472 -0.4461 -0.0626
 2919TIP3    H130248   5.693   6.270  12.731 -0.0084 -0.3265 -0.4459
 2919TIP3    H230249   5.742   6.158  12.821  1.3354  0.2106 -0.4905
 2920TIP3   OH230250   0.643   2.189   0.937 -0.2209  0.0969 -0.2368
 2920TIP3    H130251   0.636   2.249   0.863  1.8228  1.5763  0.6842
 2920TIP3    H230252   0.581   2.224   1.002  0.7317  1.0787  0.1718
 2921TIP3   OH230253   4.655   4.169  15.953 -0.6182 -0.0976 -0.0481
 2921TIP3    H130254   4.736   4.118  15.951  0.4995  1.6213 -1.2714
 2921TIP3    H230255   4.674   4.242  16.012 -1.5967 -0.1253  0.3223
 2922TIP3   OH230256   6.514   6.428  12.474  0.2422 -0.8395  0.2700
 2922TIP3    H130257   6.485   6.508  12.519  2.5993 -0.5306  1.3999
 2922TIP3    H230258   6.532   6.367  12.545  0.8168 -1.5201 -0.4539
 2923TIP3   OH230259   5.510   6.405  16.282  0.3495 -0.1115 -0.3311
 2923TIP3    H130260   5.496   6.455  16.363 -1.1940 -0.7577 -0.1472
 2923TIP3    H230261   5.440   6.340  16.283  0.0583  0.1213 -2.3964
 2924TIP3   OH230262   1.260   4.306   2.811 -0.0988  0.6272 -0.1613
 2924TIP3    H130263   1.218   4.329   2.728  0.6484 -0.0488 -0.7382
 2924TIP3    H230264   1.279   4.212   2.803  0.3473  0.6477  0.6044
 2925TIP3   OH230265   4.118   0.782  13.338  0.7346  0.0258 -0.1390
 2925TIP3    H130266   4.123   0.818  13.250 -1.5195  0.9191  0.0228
 2925TIP3    H230267   4.066   0.702  13.329 -0.7648  0.8826  0.5252
 2926TIP3   OH230268   0.512   2.184  13.391 -0.4063 -0.0718 -0.1224
 2926TIP3    H130269   0.434   2.128  13.383 -1.0539  0.8466 -0.3511
 2926TIP3    H230270   0.559   2.148  13.466 -0.0966 -1.7724 -1.0850
 2927TIP3   OH230271   2.604   4.249   5.234  0.2757  0.0774 -0.0441
 2927TIP3    H130272   2.681   4.208   5.274  0.4227  0.6187  0.2337
 2927TIP3    H230273   2.543   4.261   5.306 -0.1015 -0.4077 -0.2772
 2928TIP3   OH230274   4.459   1.189  16.392  0.1202  0.3274  0.3548
 2928TIP3    H130275   4.374   1.195  16.437  0.1156  2.6097  0.1849
 2928TIP3    H230276   4.496   1.106  16.422 -0.6093  0.9301  3.2905
 2929TIP3   OH230277   2.883   3.153  12.312  0.2112 -0.0530  0.1317
 2929TIP3    H130278   2.800   3.178  12.271 -0.1854  1.8211  1.9052
 2929TIP3    H230279   2.950   3.180  12.249 -0.4830 -0.6116 -0.8618
 2930TIP3   OH230280   5.733   4.283   5.919 -1.1611  0.0469 -0.4590
 2930TIP3    H130281   5.737   4.203   5.971  0.6605 -1.0076 -2.1027
 2930TIP3    H230282   5.641   4.308   5.920 -1.8220 -2.1857 -0.0590
 2931TIP3   OH230283   5.459   2.493   1.749 -0.8512  0.7377 -0.3026
 2931TIP3    H130284   5.433   2.466   1.837  0.8984  0.4730  0.1712
 2931TIP3    H230285   5.377   2.520   1.707 -2.2169 -1.9713  0.3666
 2932TIP3   OH230286   5.226   6.548   2.716 -0.4455  0.3790  0.1842
 2932TIP3    H130287   5.204   6.587   2.632 -0.6720 -0.7054 -0.2790
 2932TIP3    H230288   5.315   6.514   2.705 -0.2388  0.7725  0.5898
 2933TIP3   OH230289   4.911   2.391   5.151  0.1644 -0.3555  0.1298
 2933TIP3    H130290   4.835   2.430   5.108  0.2854  2.0902  1.9092
 2933TIP3    H230291   4.985   2.410   5.094 -0.2684 -1.0116 -0.6604
 2934TIP3   OH230292   5.366   6.516   1.079 -0.3391  0.7549 -0.0702
 2934TIP3    H130293   5.391   6.542   0.990 -0.2653 -1.5388 -0.8033
 2934TIP3    H230294   5.448   6.487   1.119 -0.2791  2.3006  0.9750
 2935TIP3   OH230295   5.915   1.663  13.226 -0.6051  0.5233  0.4573
 2935TIP3    H130296   5.862   1.603  13.279 -0.4281  0.2552  0.3314
 2935TIP3    H230297   5.941   1.732  13.288  0.8861 -0.5802  1.1381
 2936TIP3   OH230298   2.531   2.796  13.565  0.4488  0.3297  0.3539
 2936TIP3    H130299   2.469   2.852  13.613  1.1971  0.4098  1.2537
 2936TIP3    H230300   2.550   2.725  13.626  0.6003 -0.1424 -0.2399
 2937TIP3   OH230301   6.168   3.963   4.777 -0.0291  0.3963 -0.1312
 2937TIP3    H130302   6.078   3.960   4.810 -1.0735  0.4809 -2.7008
 2937TIP3    H230303   6.177   3.882   4.726  1.2176  0.5804 -0.2270
 2938TIP3   OH230304   6.575   1.023   3.181 -0.6824 -0.8056  0.0725
 2938TIP3    H130305   6.582   1.116   3.159  0.6423 -0.7812  0.5430
 2938TIP3    H230306   6.635   0.979   3.122 -1.0696 -1.3318  0.0637
 2939TIP3   OH230307   2.587   1.389   3.541 -0.1334  0.2462 -0.5766
 2939TIP3    H130308   2.603   1.362   3.632  0.8000 -0.1501 -0.8425
 2939TIP3    H230309   2.572   1.307   3.494  0.7760  0.3250 -1.0289
 2940TIP3   OH230310   1.889   2.835   3.677 -1.0012 -0.1624 -1.0029
 2940TIP3    H130311   1.973   2.793   3.661 -0.1169  1.2354 -0.2124
 2940TIP3    H230312   1.876   2.828   3.771 -1.3146  0.4788 -0.9930
 2941TIP3   OH230313   1.249   0.515  16.306 -0.3382 -0.5659  0.6207
 2941TIP3    H130314   1.307   0.528  16.232 -0.6054 -1.5628  0.2161
 2941TIP3    H230315   1.239   0.602  16.345  1.0043 -0.2968  0.3986
 2942TIP3   OH230316   0.975   2.076  13.919  0.0663  0.0110  0.0944
 2942TIP3    H130317   1.011   2.160  13.948 -0.5787  0.6710 -0.9800
 2942TIP3    H230318   0.892   2.068  13.967 -0.2561  0.3742 -0.3915
 2943TIP3   OH230319   3.089   5.869  12.460 -0.3962  0.0938  0.4194
 2943TIP3    H130320   3.153   5.856  12.531 -0.8020 -0.6338  0.6706
 2943TIP3    H230321   3.136   5.919  12.394 -0.2989  1.6264  1.6035
 2944TIP3   OH230322   0.636   1.741   5.035 -0.7869  0.1966  0.4999
 2944TIP3    H130323   0.608   1.795   4.961  0.4423 -0.1147 -0.2199
 2944TIP3    H230324   0.578   1.665   5.032 -1.1108  0.4510  0.2016
 2945TIP3   OH230325   3.653   0.665  10.990  0.0783  0.3058  0.4946
 2945TIP3    H130326   3.642   0.735  10.925 -1.9580  0.8734  1.3735
 2945TIP3    H230327   3.595   0.595  10.960  1.1195 -0.5104  0.3272
 2946TIP3   OH230328   2.570   4.305  15.225  0.5847 -0.0948 -0.4221
 2946TIP3    H130329   2.508   4.268  15.287 -0.4147 -0.5322 -1.6249
 2946TIP3    H230330   2.522   4.375  15.182  0.1341 -1.7101 -2.7758
 2947TIP3   OH230331   5.314   5.006  14.316 -0.5396  0.4162  0.2370
 2947TIP3    H130332   5.370   5.083  14.328 -0.8058  0.6236  0.1648
 2947TIP3    H230333   5.243   5.037  14.261 -0.4975  0.0409 -0.0330
 2948TIP3   OH230334   0.974   6.334   3.607 -0.0829  0.6864 -0.3708
 2948TIP3    H130335   0.882   6.336   3.633 -0.3375 -1.3593 -0.9159
 2948TIP3    H230336   1.016   6.279   3.674  0.2968 -0.1799 -1.3076
 2949TIP3   OH230337   3.505   4.049   3.377 -0.2778 -0.5269  0.1139
 2949TIP3    H130338   3.508   3.985   3.306 -1.4027 -4.0580  2.9700
 2949TIP3    H230339   3.597   4.064   3.399  0.0501 -0.1149 -1.3852
 2950TIP3   OH230340   6.169   3.937  16.910 -0.4348 -0.3723  0.8661
 2950TIP3    H130341   6.164   3.858  16.965  0.8696 -0.4749  0.8870
 2950TIP3    H230342   6.093   3.931  16.852 -0.5254 -1.4973  1.0750
 2951TIP3   OH230343   5.126   4.623  10.262  0.4060  0.5092  0.1487
 2951TIP3    H130344   5.105   4.558  10.195  0.0638  0.6609  0.1012
 2951TIP3    H230345   5.210   4.660  10.234  0.6081  0.0832  0.1849
 2952TIP3   OH230346   0.502   4.064   0.195 -0.1337  0.0672 -0.2061
 2952TIP3    H130347   0.499   3.983   0.246  0.0164 -0.4041 -0.9230
 2952TIP3    H230348   0.460   4.042   0.112 -1.5974  1.2093  0.2080
 2953TIP3   OH230349   3.361   1.577  12.280 -0.6614  0.3964 -0.4158
 2953TIP3    H130350   3.320   1.644  12.226 -1.2601 -0.3490 -0.8950
 2953TIP3    H230351   3.320   1.495  12.253  2.2313 -0.6759 -2.1259
 2954TIP3   OH230352   4.333   5.563  14.700  0.3244  0.2594  0.0678
 2954TIP3    H130353   4.287   5.641  14.670  1.2213  0.7645 -0.0176
 2954TIP3    H230354   4.301   5.549  14.789 -1.2984 -0.4284 -0.5851
 2955TIP3   OH230355   4.076   6.730  12.590  0.5255  0.4094 -0.4615
 2955TIP3    H130356   4.040   6.641  12.593  0.3059  0.5194  1.5012
 2955TIP3    H230357   4.005   6.783  12.553  0.3438 -0.0846 -0.8410
 2956TIP3   OH230358   4.987   3.996  13.200 -0.0248  0.1831  0.8116
 2956TIP3    H130359   4.998   3.901  13.194  0.5971  0.3141 -0.4907
 2956TIP3    H230360   4.943   4.010  13.284 -2.1696 -1.4302  0.0425
 2957TIP3   OH230361   0.028   6.014   2.904  0.2632 -0.4238 -0.8418
 2957TIP3    H130362   0.099   6.010   2.969 -0.6981  1.1275  0.3723
 2957TIP3    H230363  -0.021   6.093   2.927 -1.4574 -1.0736 -2.0752
 2958TIP3   OH230364   6.047   2.685  15.748  0.0481  0.3056  0.4254
 2958TIP3    H130365   6.111   2.753  15.724  0.9118 -1.0370 -1.3177
 2958TIP3    H230366   5.964   2.731  15.755  0.8180  1.7351  0.5726
 2959TIP3   OH230367   4.397   0.582  13.145  0.0948 -0.3647 -0.3490
 2959TIP3    H130368   4.464   0.637  13.186  1.4967 -0.8269 -1.8840
 2959TIP3    H230369   4.378   0.514  13.210  1.1580 -0.2394  0.1192
 2960TIP3   OH230370   3.549   4.758  14.445 -0.2473 -0.0241 -0.2549
 2960TIP3    H130371   3.571   4.672  14.410  1.9766  1.1944 -2.2165
 2960TIP3    H230372   3.625   4.812  14.423 -1.4173  2.3710  1.1854
 2961TIP3   OH230373   1.586   4.208   0.205  0.7266  0.7309  0.0777
 2961TIP3    H130374   1.670   4.231   0.244  1.4512  1.4743 -1.7929
 2961TIP3    H230375   1.600   4.217   0.111 -0.8303 -1.2310 -0.4320
 2962TIP3   OH230376   3.924   0.733   3.462  0.0134  0.8334  0.4510
 2962TIP3    H130377   3.963   0.671   3.524  0.2483  0.1484 -0.3624
 2962TIP3    H230378   3.833   0.705   3.452  0.2021  0.4027 -0.1589
 2963TIP3   OH230379   4.094   4.782   2.051  0.2317 -0.2830 -0.0908
 2963TIP3    H130380   4.181   4.765   2.087 -0.1742  0.9557  1.5984
 2963TIP3    H230381   4.102   4.869   2.012 -0.6046  0.5061  1.4185
 2964TIP3   OH230382   6.259   2.124  12.992 -0.1110  0.5059 -0.3369
 2964TIP3    H130383   6.259   2.070  12.912 -1.0845  0.0900 -0.0673
 2964TIP3    H230384   6.181   2.179  12.983 -0.9006 -0.3884  0.8823
 2965TIP3   OH230385   0.204   4.266   3.102 -0.4000 -0.2986 -0.3171
 2965TIP3    H130386   0.258   4.203   3.053 -0.6045 -0.6332 -0.1163
 2965TIP3    H230387   0.159   4.213   3.167 -1.2527 -0.0819 -0.7114
 2966TIP3   OH230388   4.948   2.301  12.417 -0.3326  0.2258  0.1086
 2966TIP3    H130389   4.922   2.245  12.490 -0.1613  3.3986  2.8727
 2966TIP3    H230390   4.881   2.370  12.415  1.1166  1.6697 -0.9805
 2967TIP3   OH230391   2.290   5.581   5.286  0.4359 -0.3959  0.4904
 2967TIP3    H130392   2.239   5.645   5.335 -2.8904 -1.7845 -0.8502
 2967TIP3    H230393   2.322   5.629   5.210 -0.4501  0.1152  0.4273
 2968TIP3   OH230394   0.268   1.197   0.787  0.4207  0.5043  0.4286
 2968TIP3    H130395   0.219   1.242   0.856  0.5191  1.1894  0.0584
 2968TIP3    H230396   0.349   1.246   0.778  0.9705 -0.3270  0.6851
 2969TIP3   OH230397   4.882   6.148   3.957  0.2243  0.2789 -0.2570
 2969TIP3    H130398   4.938   6.225   3.948  1.7444 -0.8723 -1.2505
 2969TIP3    H230399   4.922   6.097   4.028 -1.7310  1.1252  1.5580
 2970TIP3   OH230400   1.659   1.265   2.241  0.3603 -0.0562 -0.3898
 2970TIP3    H130401   1.595   1.256   2.311  2.3972  0.9689  1.7664
 2970TIP3    H230402   1.609   1.292   2.164 -2.1886 -2.7709  0.1310
 2971TIP3   OH230403   1.804   3.768   2.852 -0.1698  0.4245  0.3415
 2971TIP3    H130404   1.798   3.856   2.816 -0.4300  0.2946  0.0632
 2971TIP3    H230405   1.719   3.751   2.891 -0.0888  0.3332  0.4829
 2972TIP3   OH230406   4.293   5.098   1.546 -0.3560  0.4839 -0.2257
 2972TIP3    H130407   4.272   5.019   1.497 -0.8113  2.0594 -2.7742
 2972TIP3    H230408   4.212   5.122   1.591 -0.1854 -0.5251  0.6370
 2973TIP3   OH230409   4.575   1.591  14.833  0.0475  0.0641 -0.6043
 2973TIP3    H130410   4.633   1.638  14.773 -0.1908 -0.7018 -1.4529
 2973TIP3    H230411   4.635   1.544  14.892  0.2904  0.3126 -0.6511
 2974TIP3   OH230412   6.347   2.599  11.819  0.2849  0.2454 -0.1523
 2974TIP3    H130413   6.303   2.564  11.896 -0.9301  0.9370 -0.4977
 2974TIP3    H230414   6.367   2.523  11.765  0.9280 -0.2193  0.7230
 2975TIP3   OH230415   5.581   1.385   5.183 -0.3835  0.2882  0.8107
 2975TIP3    H130416   5.513   1.421   5.239 -0.6380 -0.3066  0.8890
 2975TIP3    H230417   5.603   1.301   5.223 -2.4220 -1.4166 -1.3553
 2976TIP3   OH230418   0.930   3.325   6.697  0.7527  0.0048  0.2973
 2976TIP3    H130419   0.944   3.364   6.611 -1.3587 -1.8516 -0.9999
 2976TIP3    H230420   1.009   3.345   6.746  1.7411  1.7049 -1.8392
 2977TIP3   OH230421   3.944   2.110   3.032  0.6274  0.1890  0.5467
 2977TIP3    H130422   3.958   2.023   2.995 -0.0707  0.6740 -0.9338
 2977TIP3    H230423   3.915   2.093   3.122  0.8371 -1.0866  0.3985
 2978TIP3   OH230424   2.794   6.818   0.676 -0.3353 -0.4456  0.5841
 2978TIP3    H130425   2.775   6.912   0.676 -0.5451 -0.4847  0.4940
 2978TIP3    H230426   2.836   6.802   0.591  1.1606 -0.1640  1.2468
 2979TIP3   OH230427   6.731   3.938   5.003  0.3961  0.2747  1.2679
 2979TIP3    H130428   6.805   3.986   5.041  0.8736 -1.1202  2.1770
 2979TIP3    H230429   6.679   3.911   5.079  0.6465 -1.4299  0.8710
 2980TIP3   OH230430   6.786   3.010   3.824 -0.1015  0.2929  0.4101
 2980TIP3    H130431   6.728   2.978   3.893 -0.3255  0.1872  0.1705
 2980TIP3    H230432   6.728   3.041   3.755  0.1266  0.2255  0.1860
 2981TIP3   OH230433   1.790   2.299  16.844  0.0126  0.3713 -0.4550
 2981TIP3    H130434   1.829   2.319  16.929  0.7351  2.4134 -1.1880
 2981TIP3    H230435   1.798   2.205  16.835 -0.2020  0.0896  1.7778
 2982TIP3   OH230436   0.004   3.023  14.614  0.0901  0.4919 -0.0835
 2982TIP3    H130437  -0.047   3.023  14.695  1.6482  1.1072  0.9511
 2982TIP3    H230438   0.058   2.945  14.619  2.2469  1.9545  0.8965
 2983TIP3   OH230439   4.978   4.570   3.012 -0.4467  0.2133  0.2978
 2983TIP3    H130440   4.994   4.499   3.074 -0.2987 -1.1892 -1.2631
 2983TIP3    H230441   5.066   4.596   2.984 -0.5462 -0.1959 -0.4143
 2984TIP3   OH230442   1.156   4.610   3.137 -0.4008 -0.4476 -0.1990
 2984TIP3    H130443   1.150   4.532   3.192 -0.8846 -0.6768 -0.5625
 2984TIP3    H230444   1.181   4.680   3.196 -3.2531 -0.1622  0.8429
 2985TIP3   OH230445   2.310   4.271   4.122  0.1123  0.1050 -0.4656
 2985TIP3    H130446   2.333   4.208   4.053  0.5630 -0.0861 -0.1469
 2985TIP3    H230447   2.227   4.308   4.093 -0.7849 -1.4952 -0.0865
 2986TIP3   OH230448   5.061   0.294  12.773 -0.6219  0.5066  0.3392
 2986TIP3    H130449   5.152   0.316  12.755 -0.7669  1.9865  1.2345
 2986TIP3    H230450   5.034   0.239  12.700  1.5675 -1.6654  1.0590
 2987TIP3   OH230451   0.626   4.237   0.587  0.0949 -0.3129 -0.4446
 2987TIP3    H130452   0.598   4.155   0.546 -0.9932 -0.1964  0.0150
 2987TIP3    H230453   0.671   4.210   0.667  0.3909 -0.4816 -0.6687
 2988TIP3   OH230454   1.912   3.060   1.518  0.0984 -0.0792  0.3229
 2988TIP3    H130455   1.935   3.099   1.434  0.8457 -1.4795 -0.1418
 2988TIP3    H230456   1.994   3.056   1.567  0.0505 -1.0766  0.3448
 2989TIP3   OH230457   4.140   5.434  15.614  0.7447  0.5962 -0.3607
 2989TIP3    H130458   4.154   5.339  15.609  1.2985  0.6274  0.3962
 2989TIP3    H230459   4.180   5.469  15.534  0.1124  0.1537 -0.8807
 2990TIP3   OH230460   0.889   0.509   3.172 -0.3266 -0.0642 -0.0012
 2990TIP3    H130461   0.893   0.507   3.076  1.8400 -3.2172  0.0129
 2990TIP3    H230462   0.962   0.566   3.197  0.3480 -0.7958 -0.2553
 2991TIP3   OH230463   4.520   1.106   0.839  0.2414  0.1998  0.1156
 2991TIP3    H130464   4.472   1.163   0.779  1.2987  0.1594 -0.7952
 2991TIP3    H230465   4.609   1.105   0.805  0.6287 -0.6425  1.1086
 2992TIP3   OH230466   3.852   5.917  17.162  0.0248  0.1098 -0.0417
 2992TIP3    H130467   3.847   5.827  17.130  0.6254  0.5832 -1.5309
 2992TIP3    H230468   3.882   5.908  17.253 -2.8486 -1.3339  0.8971
 2993TIP3   OH230469   6.808   5.437   2.539  1.1063  0.1864 -0.4933
 2993TIP3    H130470   6.801   5.342   2.549 -2.8387  0.2053 -1.4450
 2993TIP3    H230471   6.794   5.472   2.627  0.9417 -0.0963 -0.4053
 2994TIP3   OH230472   1.802   4.926  12.203  0.1466  0.0427 -0.2030
 2994TIP3    H130473   1.712   4.944  12.230 -0.1874 -0.5688 -0.8871
 2994TIP3    H230474   1.855   4.946  12.280 -0.8928 -2.9541  1.4190
 2995TIP3   OH230475   6.765   5.749  12.362 -0.1547  0.2594  0.0112
 2995TIP3    H130476   6.854   5.738  12.396 -0.1214  1.7120  0.4497
 2995TIP3    H230477   6.764   5.696  12.282  1.2708  0.5935 -0.2622
 2996TIP3   OH230478   5.024   0.005  14.292 -0.6179  0.1500 -0.4451
 2996TIP3    H130479   5.114   0.002  14.262 -0.7387  1.1198 -0.9434
 2996TIP3    H230480   4.978  -0.060  14.239 -0.3114 -0.0057 -0.5212
 2997TIP3   OH230481   1.803   3.691  16.045 -0.3917  0.3901  0.4919
 2997TIP3    H130482   1.761   3.729  15.968  1.7944  0.4039 -0.7733
 2997TIP3    H230483   1.794   3.596  16.032 -0.4785  0.3986  0.4884
 2998TIP3   OH230484   4.317   0.639   4.615  0.5531  0.1049  0.4673
 2998TIP3    H130485   4.310   0.607   4.525 -0.8989  2.0224 -0.1890
 2998TIP3    H230486   4.401   0.684   4.618  0.6977 -0.1378  0.1186
 2999TIP3   OH230487   3.204   0.162   0.504  0.4008 -0.3259  0.2528
 2999TIP3    H130488   3.230   0.133   0.591  0.4714  0.0384  0.3532
 2999TIP3    H230489   3.161   0.086   0.465 -2.6817  0.4598  1.8297
 3000TIP3   OH230490   0.619   0.246   3.057  0.2858  0.6399  0.1700
 3000TIP3    H130491   0.523   0.239   3.051  0.3859  0.6487 -2.4707
 3000TIP3    H230492   0.645   0.286   2.975  2.6589 -0.1527  0.4713
 3001TIP3   OH230493   6.070   5.243  12.919  0.4967 -0.0925 -0.1078
 3001TIP3    H130494   6.131   5.242  12.993  1.4271 -0.1302 -0.8495
 3001TIP3    H230495   6.054   5.150  12.900 -0.7244 -0.0894  0.8099
 3002TIP3   OH230496   2.935   2.533   0.418  0.1476 -0.0566  0.5795
 3002TIP3    H130497   2.850   2.514   0.457  0.2635 -3.0197 -0.3518
 3002TIP3    H230498   2.979   2.448   0.414  0.5115  0.0072 -4.8638
 3003TIP3   OH230499   2.418   2.751   3.164 -0.4362 -0.0842 -0.3513
 3003TIP3    H130500   2.481   2.678   3.163 -1.3460 -0.8800 -0.7163
 3003TIP3    H230501   2.410   2.774   3.256 -0.7309 -0.9711 -0.1465
 3004TIP3   OH230502   4.436   3.194  11.360 -0.4036 -0.0955 -0.2008
 3004TIP3    H130503   4.522   3.158  11.378 -0.1041 -0.1004 -1.4982
 3004TIP3    H230504   4.450   3.255  11.288 -1.5444 -0.4425 -0.7489
 3005TIP3   OH230505   2.945   4.147  11.203 -0.4112  0.0961 -0.2769
 3005TIP3    H130506   2.906   4.206  11.139  1.1743  1.3986 -0.0964
 3005TIP3    H230507   2.987   4.079  11.149 -0.8983 -0.0107 -0.5300
 3006TIP3   OH230508   0.749   5.473  15.735 -0.0690 -0.9163 -0.6503
 3006TIP3    H130509   0.784   5.546  15.682  0.7941 -0.5531  0.3885
 3006TIP3    H230510   0.822   5.412  15.743 -0.1284 -0.8806  0.2715
 3007TIP3   OH230511   1.696   3.374   1.085 -0.6126 -0.0156 -0.0578
 3007TIP3    H130512   1.650   3.458   1.090 -1.8858 -0.4912 -2.1950
 3007TIP3    H230513   1.672   3.339   0.999 -0.3647 -2.7164  0.8767
 3008TIP3   OH230514   3.225   0.058   5.365  0.3047 -0.3786  0.2287
 3008TIP3    H130515   3.284   0.026   5.433  1.1732 -2.0785 -1.2585
 3008TIP3    H230516   3.176  -0.020   5.337 -2.1299  0.8134  0.8411
 3009TIP3   OH230517   2.004   3.774  16.820 -0.2350  0.0692 -0.0816
 3009TIP3    H130518   2.060   3.844  16.854  1.0781 -0.8065 -0.3785
 3009TIP3    H230519   2.006   3.786  16.725 -0.9592  0.3287 -0.0657
 3010TIP3   OH230520   2.375   1.714  16.657 -0.2065  0.6193  1.0879
 3010TIP3    H130521   2.315   1.647  16.623  0.1774  0.9519 -0.3198
 3010TIP3    H230522   2.366   1.709  16.752  0.1279 -1.7116  1.0493
 3011TIP3   OH230523   1.355   5.958   2.468 -0.1041 -0.0334  0.1442
 3011TIP3    H130524   1.316   5.893   2.410  0.6667 -0.0472 -0.3643
 3011TIP3    H230525   1.449   5.947   2.457  0.0454  0.3916  0.9241
 3012TIP3   OH230526   5.997   6.102   4.608 -0.0358  0.1117  0.4799
 3012TIP3    H130527   6.043   6.018   4.615 -0.5406 -0.1542  0.6839
 3012TIP3    H230528   5.971   6.107   4.516  0.2078  0.1588  0.4132
 3013TIP3   OH230529   4.174   5.601   6.029 -0.0379  0.1950 -0.4549
 3013TIP3    H130530   4.150   5.670   6.091  1.1782 -2.2225  3.0228
 3013TIP3    H230531   4.095   5.549   6.019  0.1511 -0.2764  0.3824
 3014TIP3   OH230532   3.188   3.566   2.794 -0.0707 -0.0284 -0.1853
 3014TIP3    H130533   3.112   3.610   2.757 -0.9088 -1.2667  0.0263
 3014TIP3    H230534   3.167   3.556   2.887  0.7054  0.3365  0.0382
 3015TIP3   OH230535   3.741   5.314   4.138 -0.4222 -0.0541  0.6558
 3015TIP3    H130536   3.779   5.337   4.222  0.1646 -0.4568  0.5099
 3015TIP3    H230537   3.737   5.218   4.138 -4.3590 -0.0561  1.9275
 3016TIP3   OH230538   5.277   1.914  13.386  0.8429  0.0730  0.2580
 3016TIP3    H130539   5.349   1.897  13.326 -0.7392 -1.3626 -1.3596
 3016TIP3    H230540   5.265   1.832  13.434 -1.0631 -0.5233 -1.0990
 3017TIP3   OH230541   4.363   4.933  11.014 -0.3168 -0.0653  0.1497
 3017TIP3    H130542   4.327   4.858  10.966 -1.2526 -0.3506  1.2545
 3017TIP3    H230543   4.375   5.001  10.947 -2.2457 -0.2083 -0.4074
 3018TIP3   OH230544   3.505   2.110  12.610  0.2973 -0.1315 -0.7268
 3018TIP3    H130545   3.495   2.201  12.582 -2.4807 -0.1543 -0.1376
 3018TIP3    H230546   3.595   2.087  12.588  1.7815  3.3624  0.9418
 3019TIP3   OH230547   1.427   6.063   0.044  0.4594  0.2114 -0.2609
 3019TIP3    H130548   1.359   6.000   0.021  1.3694  0.2362 -3.4406
 3019TIP3    H230549   1.404   6.143  -0.003  1.7517  0.7942  0.0279
 3020TIP3   OH230550   0.408   0.418  11.759 -0.4409  0.3871 -0.2055
 3020TIP3    H130551   0.382   0.467  11.836 -1.5605 -0.4263 -0.0569
 3020TIP3    H230552   0.343   0.350  11.749  0.2140 -0.1198 -1.3237
 3021TIP3   OH230553   5.669   2.973  14.123 -0.4751 -0.3923  0.3374
 3021TIP3    H130554   5.628   3.054  14.153 -1.4291 -1.0749  0.9278
 3021TIP3    H230555   5.608   2.904  14.148 -0.2315 -1.2076 -1.1608
 3022TIP3   OH230556   6.249   3.122   1.618  0.6000 -0.0460  0.6141
 3022TIP3    H130557   6.202   3.155   1.695 -1.1992  0.5706 -0.6939
 3022TIP3    H230558   6.249   3.027   1.630 -0.6691 -0.0385  0.8521
 3023TIP3   OH230559   2.901   5.079   5.199 -0.3218  0.4609 -0.0190
 3023TIP3    H130560   2.838   5.142   5.165  1.1924  1.0120 -1.9993
 3023TIP3    H230561   2.904   5.010   5.132  1.3613  0.6070 -0.1371
 3024TIP3   OH230562   1.222   1.869  15.686 -0.1339  0.2742 -0.5606
 3024TIP3    H130563   1.303   1.873  15.738 -1.4223  0.8949  1.4845
 3024TIP3    H230564   1.157   1.833  15.745 -1.4256 -0.1204 -2.1440
 3025TIP3   OH230565   2.251   4.103   3.588  0.1099  0.0190  0.3810
 3025TIP3    H130566   2.323   4.166   3.583 -1.1313  1.7797  2.5536
 3025TIP3    H230567   2.291   4.022   3.619  1.5294  0.1347 -1.0284
 3026TIP3   OH230568   6.520   5.739   0.265  0.4521  0.3897  0.7649
 3026TIP3    H130569   6.497   5.713   0.354 -0.3927  0.0430  0.4575
 3026TIP3    H230570   6.607   5.779   0.273 -0.0904  1.4150  1.9345
 3027TIP3   OH230571   3.229   3.484  13.106  0.4708 -0.0270  0.3466
 3027TIP3    H130572   3.235   3.560  13.048 -4.2715 -0.5943 -1.2952
 3027TIP3    H230573   3.196   3.518  13.189 -2.4093 -0.1701 -0.6297
 3028TIP3   OH230574   3.410   0.834   2.998 -0.5650  0.1980  0.0284
 3028TIP3    H130575   3.362   0.893   3.056 -1.2123  0.1494 -0.4529
 3028TIP3    H230576   3.344   0.775   2.963 -0.0688 -0.2179 -0.2271
 3029TIP3   OH230577   4.090   2.539   3.758 -0.0488  0.7882 -0.5979
 3029TIP3    H130578   4.116   2.623   3.796 -1.6681  0.7465  0.7432
 3029TIP3    H230579   4.172   2.493   3.743  0.7683  1.1664  2.1312
 3030TIP3   OH230580   5.576   6.241  14.400  0.2023  0.0504 -0.2063
 3030TIP3    H130581   5.631   6.318  14.385 -0.6390  0.5545 -0.7940
 3030TIP3    H230582   5.489   6.277  14.417  0.2111 -0.6944  1.6236
 3031TIP3   OH230583   5.274   5.212   0.148  0.1456 -0.7619  0.1208
 3031TIP3    H130584   5.337   5.264   0.198 -0.9126  0.3378  0.3695
 3031TIP3    H230585   5.212   5.277   0.114 -0.7050 -1.7823 -0.3171
 3032TIP3   OH230586   2.924   1.687  14.759 -0.0986 -0.8426  0.0507
 3032TIP3    H130587   2.982   1.749  14.715 -1.1463 -0.3978 -0.7587
 3032TIP3    H230588   2.914   1.721  14.848  1.1046 -1.1006  0.2998
 3033TIP3   OH230589   3.436   5.338   0.734  0.3763 -0.0876 -0.4062
 3033TIP3    H130590   3.448   5.282   0.657 -1.1400 -0.3221 -0.4874
 3033TIP3    H230591   3.488   5.295   0.803  0.9555 -0.4080 -1.0248
 3034TIP3   OH230592   0.637   4.495  13.951  0.5671 -0.3251 -0.2505
 3034TIP3    H130593   0.548   4.524  13.932  0.1153 -2.4306 -1.7202
 3034TIP3    H230594   0.629   4.440  14.029  0.9402  1.0181  0.7710
 3035TIP3   OH230595   5.868   4.467   5.272  0.4427 -0.2278  0.0142
 3035TIP3    H130596   5.798   4.430   5.219 -0.1893  0.2940  0.4785
 3035TIP3    H230597   5.940   4.481   5.210 -0.2745  0.3563 -0.7034
 3036TIP3   OH230598   2.420   3.591   1.382 -0.3985 -0.1267 -0.7335
 3036TIP3    H130599   2.481   3.642   1.327  0.2883 -0.5530 -0.3758
 3036TIP3    H230600   2.350   3.653   1.403  1.3626  1.3283  1.3057
 3037TIP3   OH230601   6.156   3.369  12.962 -0.4421  0.3648  0.4303
 3037TIP3    H130602   6.223   3.437  12.966 -0.2922  0.1690  1.3584
 3037TIP3    H230603   6.185   3.302  13.024 -0.1749 -0.9317 -1.0282
 3038TIP3   OH230604   4.168   2.073  16.797 -0.5679 -0.4800  0.0307
 3038TIP3    H130605   4.101   2.009  16.773  0.6707 -1.5425 -0.7208
 3038TIP3    H230606   4.215   2.032  16.870 -1.7156  0.9704  1.6779
 3039TIP3   OH230607   6.218   0.628  11.048  0.5039 -0.7172 -0.7994
 3039TIP3    H130608   6.130   0.642  11.011  0.0095  0.0623  0.5907
 3039TIP3    H230609   6.202   0.604  11.139  1.7202 -1.8778 -0.8679
 3040TIP3   OH230610   6.059   0.677  14.251  0.4369 -0.6442 -0.3279
 3040TIP3    H130611   6.098   0.597  14.218 -0.6058 -1.5032  0.4356
 3040TIP3    H230612   5.970   0.677  14.215  0.8250  0.8542 -1.3791
 3041TIP3   OH230613   6.118   0.074   4.214 -0.6555  0.1943 -1.3467
 3041TIP3    H130614   6.150   0.117   4.294 -0.8585  0.6897 -1.5288
 3041TIP3    H230615   6.188   0.088   4.150 -0.7534  0.3129 -1.4268
 3042TIP3   OH230616   2.647   3.357  16.186  0.8549 -0.6879 -0.0657
 3042TIP3    H130617   2.586   3.423  16.153  1.0588 -0.7156 -0.5020
 3042TIP3    H230618   2.608   3.328  16.269 -0.8297 -2.1980 -1.2982
 3043TIP3   OH230619   0.499   2.845   0.368 -0.4908  0.9277 -0.1744
 3043TIP3    H130620   0.430   2.910   0.356 -1.3272  0.1072  0.0119
 3043TIP3    H230621   0.537   2.834   0.281 -1.7711  0.1456 -0.6667
 3044TIP3   OH230622   4.134   3.589   5.518 -0.1349  0.2965 -0.2407
 3044TIP3    H130623   4.226   3.577   5.497 -0.4190 -1.8237 -0.5154
 3044TIP3    H230624   4.112   3.514   5.573 -1.1499  2.0176  1.8709
 3045TIP3   OH230625   2.950   3.075   1.924  0.2486  0.0325 -0.7088
 3045TIP3    H130626   3.022   3.136   1.907 -0.5018  1.0495 -0.3344
 3045TIP3    H230627   2.876   3.131   1.948  0.5269 -1.0544  3.5700
 3046TIP3   OH230628   3.644   5.266  12.519 -0.1922  0.2298 -0.2449
 3046TIP3    H130629   3.692   5.348  12.510  0.7592 -0.3734 -0.8231
 3046TIP3    H230630   3.711   5.200  12.533 -1.0710 -0.1499  2.8973
 3047TIP3   OH230631   1.585   1.692   5.537  0.0507 -0.0061 -0.0098
 3047TIP3    H130632   1.569   1.605   5.502  2.1129  0.3448 -2.0472
 3047TIP3    H230633   1.643   1.678   5.611 -0.4684 -0.4240  0.3251
 3048TIP3   OH230634   3.633   1.621   0.903 -0.2854  0.4143  0.2652
 3048TIP3    H130635   3.608   1.570   0.980 -2.0471  1.8302  0.6778
 3048TIP3    H230636   3.629   1.558   0.831  0.3641 -0.6784  1.1553
 3049TIP3   OH230637   0.751   4.079   0.007 -0.8559 -0.1765 -0.1108
 3049TIP3    H130638   0.728   4.068   0.099 -0.9581  0.4854 -0.0524
 3049TIP3    H230639   0.828   4.136   0.009 -1.0491  0.0948 -0.4527
 3050TIP3   OH230640   0.845   5.000  10.208  0.2192 -0.3596  0.2889
 3050TIP3    H130641   0.830   4.911  10.237 -0.6373 -1.0166 -1.9650
 3050TIP3    H230642   0.790   5.054  10.265 -1.2313 -1.5281  0.0483
 3051TIP3   OH230643   6.146   0.985   2.987 -0.6377  0.1887 -0.0260
 3051TIP3    H130644   6.207   1.031   3.046 -3.5469  4.1466  0.3406
 3051TIP3    H230645   6.083   0.944   3.046 -0.2057 -1.0877 -0.4243
 3052TIP3   OH230646   3.766   1.438  11.406  0.5309  0.7244 -0.3218
 3052TIP3    H130647   3.791   1.347  11.386 -0.1487  0.9219 -2.3680
 3052TIP3    H230648   3.770   1.482  11.321 -0.9943  2.1548  0.3054
 3053TIP3   OH230649   1.063   0.488   1.131  0.4927 -0.3749 -0.3431
 3053TIP3    H130650   1.087   0.580   1.141  0.1038 -0.2900 -0.1996
 3053TIP3    H230651   1.102   0.445   1.208 -1.3162  0.0575  0.8804
 3054TIP3   OH230652   0.073   4.465   2.996 -0.2054  0.1939  0.1036
 3054TIP3    H130653  -0.016   4.431   2.985  0.0555 -0.6244  0.4119
 3054TIP3    H230654   0.122   4.391   3.032  0.1892  1.1661  1.6517
 3055TIP3   OH230655   5.523   0.382  11.120 -0.2089  0.2536  0.2666
 3055TIP3    H130656   5.494   0.326  11.192  0.8785 -1.6346 -0.6849
 3055TIP3    H230657   5.469   0.355  11.045  2.4161 -1.9338 -1.0268
 3056TIP3   OH230658   2.352   5.193  17.194  0.4321 -0.8346  0.3187
 3056TIP3    H130659   2.318   5.272  17.235  1.1920  0.1312 -0.8400
 3056TIP3    H230660   2.334   5.205  17.100  1.9374 -1.3160 -0.0637
 3057TIP3   OH230661   4.231   3.278  14.382 -0.9613 -0.5298  0.1281
 3057TIP3    H130662   4.281   3.355  14.406  0.3597 -1.6313  1.0519
 3057TIP3    H230663   4.152   3.282  14.436 -1.6006  0.8673 -0.8512
 3058TIP3   OH230664   0.794   3.533  11.729 -0.1722 -0.1266  1.0596
 3058TIP3    H130665   0.781   3.493  11.644  0.5525  0.6018  0.5873
 3058TIP3    H230666   0.803   3.460  11.790 -0.0966 -0.6507  0.4200
 3059TIP3   OH230667   1.693   2.804  16.562  0.0023  0.2545 -0.1701
 3059TIP3    H130668   1.764   2.795  16.498 -0.1284 -1.5591 -0.1268
 3059TIP3    H230669   1.724   2.755  16.639 -0.1508  1.7888  0.9069
 3060TIP3   OH230670   2.316   2.764   5.753  0.8000  0.0485  0.6378
 3060TIP3    H130671   2.385   2.756   5.688 -0.1293  1.2191 -0.5500
 3060TIP3    H230672   2.351   2.722   5.831  2.3197 -0.5432 -0.3272
 3061TIP3   OH230673   5.825   0.378   1.099  0.0535  0.0034  1.2638
 3061TIP3    H130674   5.802   0.286   1.089 -1.7859  0.5004  0.4975
 3061TIP3    H230675   5.849   0.387   1.191 -1.1978 -0.9644  1.7128
 3062TIP3   OH230676   0.405   2.331   1.307  0.5140  0.2098  1.1957
 3062TIP3    H130677   0.327   2.303   1.356 -0.9109  1.1789 -0.3960
 3062TIP3    H230678   0.377   2.330   1.215  1.8930  2.1064  0.7064
 3063TIP3   OH230679   5.331   1.640  10.994 -0.0152  0.1837  0.3816
 3063TIP3    H130680   5.339   1.557  10.947  1.7731 -1.1650  2.8394
 3063TIP3    H230681   5.333   1.707  10.926 -0.3576 -1.7188 -1.6041
 3064TIP3   OH230682   5.698   1.946   3.245 -0.3063 -0.0836 -0.0076
 3064TIP3    H130683   5.716   2.016   3.182 -0.0069  0.6451  0.8612
 3064TIP3    H230684   5.618   1.905   3.213  0.4600 -0.5023 -1.5128
 3065TIP3   OH230685   6.729   0.801   3.110  0.2472 -0.0568 -0.1291
 3065TIP3    H130686   6.788   0.781   3.037 -0.2222  1.6267 -1.0321
 3065TIP3    H230687   6.646   0.761   3.086  0.2355  0.0482 -0.2644
 3066TIP3   OH230688   4.840   6.057  16.731 -0.2141 -0.4676 -0.0283
 3066TIP3    H130689   4.793   6.006  16.665  1.6818  1.0066 -2.7302
 3066TIP3    H230690   4.843   6.000  16.808 -0.9789 -3.0701 -1.7895
 3067TIP3   OH230691   2.820   4.634  14.986 -0.1781 -0.0276  0.1802
 3067TIP3    H130692   2.897   4.657  14.934 -1.3306  0.5124 -1.3849
 3067TIP3    H230693   2.800   4.714  15.034 -0.0582 -0.0027  0.1887
 3068TIP3   OH230694   2.401   0.091   2.128  0.4348 -0.0991 -0.0402
 3068TIP3    H130695   2.329   0.028   2.120 -0.5351  1.0400 -0.6066
 3068TIP3    H230696   2.451   0.061   2.204 -1.6505  0.0278  1.4625
 3069TIP3   OH230697   6.826   4.847   4.955  0.4164 -0.6108  0.4258
 3069TIP3    H130698   6.819   4.941   4.974 -1.6955  0.0072 -2.6051
 3069TIP3    H230699   6.799   4.804   5.036 -2.9994  1.5688  0.6621
 3070TIP3   OH230700   6.384   0.686  14.841 -0.3323  0.6243  0.6584
 3070TIP3    H130701   6.419   0.743  14.910 -0.6391  1.4215  0.1750
 3070TIP3    H230702   6.350   0.747  14.775  0.7396 -0.1009 -0.6077
 3071TIP3   OH230703   3.158   6.483  10.609 -0.1513  0.1228  0.0460
 3071TIP3    H130704   3.169   6.560  10.666  0.0689 -1.3320  2.0784
 3071TIP3    H230705   3.242   6.476  10.563 -0.1767  1.0934 -0.1760
 3072TIP3   OH230706   4.222   1.473  16.548 -0.0023 -0.4644  0.0447
 3072TIP3    H130707   4.317   1.483  16.541  0.1114 -1.1480  0.4981
 3072TIP3    H230708   4.193   1.552  16.594  0.3163 -0.1337 -0.3204
 3073TIP3   OH230709   4.685   1.600   5.973 -0.4193  0.0766 -0.5529
 3073TIP3    H130710   4.622   1.639   5.913 -1.6164 -0.4456  0.3339
 3073TIP3    H230711   4.638   1.528   6.015  1.3997 -1.6709 -1.3506
 3074TIP3   OH230712   1.304   3.702  12.765 -0.1041  0.6300  0.0428
 3074TIP3    H130713   1.274   3.699  12.675  1.0448  1.9583 -0.4158
 3074TIP3    H230714   1.224   3.702  12.817 -0.7710 -1.0293 -0.9006
 3075TIP3   OH230715   3.960   4.279   1.215 -0.1335 -0.1335 -0.2105
 3075TIP3    H130716   3.922   4.361   1.183  1.4147  0.5583 -0.3718
 3075TIP3    H230717   3.885   4.228   1.245 -1.0915  1.7257  0.7881
 3076TIP3   OH230718   0.285   4.329   2.467 -0.4935 -0.5577 -0.0079
 3076TIP3    H130719   0.226   4.294   2.400 -0.0530 -2.0131  0.3369
 3076TIP3    H230720   0.248   4.298   2.550 -1.0480  1.2490  0.4574
 3077TIP3   OH230721   1.154   1.760  14.863  0.8367 -0.6922 -0.0636
 3077TIP3    H130722   1.247   1.773  14.881  0.7431 -1.9464  1.4706
 3077TIP3    H230723   1.109   1.811  14.929  0.4133 -0.3015 -0.6398
 3078TIP3   OH230724   6.795   0.228   4.719  0.3196 -0.1820 -0.5476
 3078TIP3    H130725   6.795   0.266   4.806  1.0547  0.4618 -0.8114
 3078TIP3    H230726   6.717   0.174   4.716  1.0801 -1.4509  1.0392
 3079TIP3   OH230727   2.387   6.124  17.066  0.4140  0.3376  0.5007
 3079TIP3    H130728   2.327   6.163  17.129  1.9805  0.7683  1.7863
 3079TIP3    H230729   2.414   6.196  17.010  0.6821  0.3989  0.7084
 3080TIP3   OH230730   5.007   0.115   4.994 -0.5653  0.2275 -0.5755
 3080TIP3    H130731   4.934   0.128   5.055 -0.5037  1.6995 -0.7898
 3080TIP3    H230732   5.001   0.022   4.969 -1.1373 -0.1714  0.9505
 3081TIP3   OH230733   2.489   0.216  14.967  0.0715 -0.3875 -0.0265
 3081TIP3    H130734   2.562   0.276  14.979 -0.1133 -0.3415  1.0021
 3081TIP3    H230735   2.513   0.138  15.017 -1.3249  0.3034  1.8249
 3082TIP3   OH230736   4.477   0.232  13.452 -0.5572  0.0950 -0.0198
 3082TIP3    H130737   4.409   0.241  13.385 -1.3896  1.2133  0.9388
 3082TIP3    H230738   4.496   0.138  13.454 -1.3814 -0.1102 -0.9770
 3083TIP3   OH230739   5.537   2.001  14.261 -0.3312  0.1943 -0.2045
 3083TIP3    H130740   5.588   2.071  14.302 -0.2266  0.6232 -1.0504
 3083TIP3    H230741   5.446   2.026  14.276 -0.2952  0.6948 -0.8085
 3084TIP3   OH230742   0.218   5.816  12.872 -0.7994  0.0736 -0.0413
 3084TIP3    H130743   0.307   5.781  12.878 -0.4516  1.0608  0.8050
 3084TIP3    H230744   0.198   5.816  12.778 -0.0255 -0.4233 -0.2113
 3085TIP3   OH230745   4.899   0.490  16.627 -0.3261  0.2589  0.5171
 3085TIP3    H130746   4.857   0.508  16.711  0.1469 -1.2956  1.1182
 3085TIP3    H230747   4.947   0.408  16.641  2.6957  1.7775 -0.2042
 3086TIP3   OH230748   3.624   1.149   1.352  0.0330  0.2632  0.4601
 3086TIP3    H130749   3.544   1.111   1.317  0.4941 -0.6630  0.3868
 3086TIP3    H230750   3.606   1.163   1.445 -0.1825 -0.0098  0.4589
 3087TIP3   OH230751   0.127   1.727   5.696 -0.1603 -0.5322  0.3038
 3087TIP3    H130752   0.089   1.771   5.620 -0.5125 -0.0593  0.7551
 3087TIP3    H230753   0.070   1.651   5.711 -1.3619  0.5411  1.3945
 3088TIP3   OH230754   3.057   3.868   5.941 -0.4777 -0.1146  0.2655
 3088TIP3    H130755   3.094   3.881   5.853  1.4629  1.0250  1.1789
 3088TIP3    H230756   3.000   3.943   5.954 -1.9584 -1.0542 -0.5449
 3089TIP3   OH230757   2.509   5.496   4.833 -0.3977  0.2205  0.3727
 3089TIP3    H130758   2.537   5.580   4.870  0.7874  0.7954 -1.6719
 3089TIP3    H230759   2.462   5.519   4.753 -3.0300 -0.9660  1.4752
 3090TIP3   OH230760   0.903   5.361  11.545  0.0074 -0.0436 -0.3983
 3090TIP3    H130761   0.962   5.366  11.621  1.9557 -2.1951 -1.6405
 3090TIP3    H230762   0.961   5.366  11.469 -1.4475 -1.6049 -1.6972
 3091TIP3   OH230763   5.258   4.491  11.129 -0.5842  0.1332 -0.2624
 3091TIP3    H130764   5.306   4.558  11.081  0.4451 -0.3843  0.0191
 3091TIP3    H230765   5.325   4.443  11.177 -1.0231 -2.2668 -1.8476
 3092TIP3   OH230766   5.793   2.034   3.478 -0.0367 -0.6226  0.1256
 3092TIP3    H130767   5.741   2.007   3.403  1.5555 -1.7582 -0.6164
 3092TIP3    H230768   5.769   1.972   3.547  1.0434 -1.8039 -0.5242
 3093TIP3   OH230769   6.718   4.720  15.542 -0.4513  0.3920 -0.0329
 3093TIP3    H130770   6.701   4.646  15.601 -1.2368  0.6027  0.0140
 3093TIP3    H230771   6.810   4.709  15.516  0.1304  0.6589  1.7565
 3094TIP3   OH230772   1.497   6.018   4.897  0.3867 -0.1241  0.0977
 3094TIP3    H130773   1.479   6.079   4.826  0.8260  0.0531  0.1358
 3094TIP3    H230774   1.483   6.068   4.977  2.4782  0.4855  0.1426
 3095TIP3   OH230775   2.567   6.452   3.008 -0.4217  0.1086 -0.0566
 3095TIP3    H130776   2.542   6.422   2.921 -0.6936 -0.2030  0.1233
 3095TIP3    H230777   2.514   6.530   3.023 -1.0926 -0.3828  0.2069
 3096TIP3   OH230778   3.147   2.153   6.689 -0.3762 -0.3786  0.0786
 3096TIP3    H130779   3.176   2.192   6.607  1.8810 -0.1224  0.9237
 3096TIP3    H230780   3.118   2.228   6.742  0.0235 -0.3117  0.2068
 3097TIP3   OH230781   0.883   6.115   6.553  0.1708 -0.6251 -0.4998
 3097TIP3    H130782   0.881   6.180   6.482  1.9693 -0.1858 -0.2140
 3097TIP3    H230783   0.832   6.041   6.520  0.2584 -0.0890 -1.9025
 3098TIP3   OH230784   1.982   4.163   5.006  0.1609  0.2013 -0.3137
 3098TIP3    H130785   2.020   4.077   4.986  0.8070  0.7906 -1.7437
 3098TIP3    H230786   1.900   4.165   4.955 -0.4822 -0.0276  0.6817
 3099TIP3   OH230787   1.881   1.707   2.127 -0.4155 -0.4553 -0.4980
 3099TIP3    H130788   1.888   1.692   2.221  0.8662 -0.3776 -0.5621
 3099TIP3    H230789   1.888   1.620   2.088  0.9976 -0.3251 -0.5908
 3100TIP3   OH230790   0.035   0.184   3.277  0.0690 -0.1158  0.2454
 3100TIP3    H130791   0.013   0.163   3.367 -0.9103  0.6341  0.2025
 3100TIP3    H230792   0.031   0.280   3.273 -2.1722 -0.1689 -1.0853
 3101TIP3   OH230793   3.142   1.421  12.966  0.9210  0.1100  0.0779
 3101TIP3    H130794   3.187   1.501  12.940 -1.3309  0.9067 -1.7008
 3101TIP3    H230795   3.054   1.429  12.928 -0.4072 -1.8198  2.4491
 3102TIP3   OH230796   6.759   6.454   5.680  0.5964 -0.2053 -0.1332
 3102TIP3    H130797   6.791   6.370   5.647  0.6776 -0.2394  0.0323
 3102TIP3    H230798   6.745   6.440   5.773  0.0427 -0.2110 -0.2089
 3103TIP3   OH230799   1.254   6.082  12.232  0.2053  0.3217  0.0818
 3103TIP3    H130800   1.261   5.998  12.279  1.8523 -0.5781 -1.6129
 3103TIP3    H230801   1.188   6.065  12.164  1.0051  0.1613 -0.6688
 3104TIP3   OH230802   4.063   4.978   5.151  0.0053 -0.4521  0.8066
 3104TIP3    H130803   4.064   4.923   5.073  0.6340  0.9932 -0.2598
 3104TIP3    H230804   4.135   4.944   5.204 -0.1732 -1.2009  0.5902
 3105TIP3   OH230805   1.283   5.898   5.167  0.0876  0.2248  0.2558
 3105TIP3    H130806   1.257   5.967   5.106  1.3124 -0.1026 -0.6547
 3105TIP3    H230807   1.214   5.832   5.160 -0.6294  0.9370  0.4719
 3106TIP3   OH230808   4.563   0.582  12.032 -0.0883  0.2340 -0.2373
 3106TIP3    H130809   4.651   0.596  12.066  0.0736 -0.9144 -0.1413
 3106TIP3    H230810   4.505   0.616  12.101  0.2661 -0.2390  0.2983
 3107TIP3   OH230811   5.363   0.133   0.954  0.8304  0.1325 -0.3538
 3107TIP3    H130812   5.426   0.146   1.025  1.7251 -1.0695 -0.8816
 3107TIP3    H230813   5.392   0.193   0.885  0.5358  0.6140 -0.0577
 3108TIP3   OH230814   1.062   2.595   3.776 -0.2947  0.0879 -0.1661
 3108TIP3    H130815   1.000   2.624   3.708 -1.5783 -1.0035  0.4881
 3108TIP3    H230816   1.041   2.648   3.852  1.5028  1.6861 -0.7156
 3109TIP3   OH230817   0.895   2.913   6.421 -0.4105 -0.4648 -0.0087
 3109TIP3    H130818   0.889   3.008   6.421  0.0011 -0.4372  0.6760
 3109TIP3    H230819   0.835   2.885   6.490  0.6704 -0.6062  0.9159
 3110TIP3   OH230820   0.263   0.095   2.106  0.4011 -0.0696  0.1477
 3110TIP3    H130821   0.229   0.137   2.027 -0.4344 -0.1294  0.4649
 3110TIP3    H230822   0.287   0.168   2.163 -0.2134 -0.0238  0.3485
 3111TIP3   OH230823   0.997   3.994  12.194 -0.2492 -0.6175 -0.7610
 3111TIP3    H130824   0.938   4.045  12.138  0.2412  0.4226 -0.3459
 3111TIP3    H230825   0.940   3.954  12.259 -0.5302  0.1745 -0.5133
 3112TIP3   OH230826   4.298   6.801   0.667  0.0529  0.2475  0.1920
 3112TIP3    H130827   4.203   6.791   0.660 -0.1690  2.4999 -1.2343
 3112TIP3    H230828   4.311   6.854   0.745  0.2112 -0.6531  0.7852
 3113TIP3   OH230829   1.667   3.230  15.582  0.0238 -0.3044 -0.1759
 3113TIP3    H130830   1.623   3.271  15.656  0.6712 -0.3162  0.2269
 3113TIP3    H230831   1.674   3.137  15.606 -0.5572 -0.4741 -0.6473
 3114TIP3   OH230832   1.297   1.427  15.211  0.2488  0.0865 -0.3816
 3114TIP3    H130833   1.319   1.335  15.198  0.7870  0.1614 -0.0296
 3114TIP3    H230834   1.212   1.438  15.169  0.2271 -0.5493 -0.5053
 3115TIP3   OH230835   6.072   2.674  15.426  0.1659  0.0744 -0.1806
 3115TIP3    H130836   6.103   2.591  15.461  1.7084 -0.1523 -1.9388
 3115TIP3    H230837   6.005   2.703  15.488  1.5514 -1.0992  1.9792
 3116TIP3   OH230838   5.017   3.679   5.642  0.6322 -0.1766  0.1314
 3116TIP3    H130839   5.016   3.718   5.730  1.7057  0.5945 -0.1767
 3116TIP3    H230840   4.998   3.752   5.584  0.5770 -0.5532 -0.3269
 3117TIP3   OH230841   6.032   5.945  11.162 -0.1021 -0.1944 -0.0997
 3117TIP3    H130842   6.027   5.971  11.070  0.5339 -0.0742 -0.1044
 3117TIP3    H230843   5.943   5.958  11.196 -0.0414  1.0182 -0.3571
 3118TIP3   OH230844   0.104   0.035   0.316  0.5266  0.4806 -0.2035
 3118TIP3    H130845   0.198   0.020   0.310  0.7168  1.9867 -1.3805
 3118TIP3    H230846   0.095   0.124   0.351 -0.5212 -0.5523  2.4625
 3119TIP3   OH230847   2.438   6.578   2.028 -0.7662  0.5001  0.4899
 3119TIP3    H130848   2.346   6.552   2.019 -0.4240 -0.7900  0.5104
 3119TIP3    H230849   2.468   6.533   2.107  0.1288  0.1595 -0.0329
 3120TIP3   OH230850   4.411   1.696   3.375 -0.8023 -0.3451 -0.0142
 3120TIP3    H130851   4.372   1.614   3.406 -0.8509  0.7222  3.1700
 3120TIP3    H230852   4.499   1.672   3.348 -0.8128 -1.4686  0.8596
 3121TIP3   OH230853   3.607   1.998  13.441  0.3813 -0.0898 -0.1419
 3121TIP3    H130854   3.543   1.967  13.378  0.9439 -3.4371  0.7474
 3121TIP3    H230855   3.688   1.952  13.417  1.3589  0.8504  1.2349
 3122TIP3   OH230856   0.862   2.149   2.532  0.1753 -0.2201  0.5114
 3122TIP3    H130857   0.908   2.164   2.615  0.1618  1.1326  0.3075
 3122TIP3    H230858   0.921   2.187   2.466  0.0380 -0.9938 -0.0659
 3123TIP3   OH230859   6.436   1.454  14.895 -0.2576 -0.1706  0.2163
 3123TIP3    H130860   6.379   1.385  14.860  0.8613  0.0029 -2.1623
 3123TIP3    H230861   6.381   1.532  14.898 -0.4827 -0.2587 -1.0053
 3124TIP3   OH230862   3.700   5.395   1.643 -0.5827  0.6244 -0.1934
 3124TIP3    H130863   3.617   5.431   1.610 -0.5085  3.2805  2.0574
 3124TIP3    H230864   3.681   5.375   1.735  1.0615  0.4952  0.1374
 3125TIP3   OH230865   1.619   3.342  12.421 -1.0251  0.1357 -0.0332
 3125TIP3    H130866   1.701   3.391  12.418 -1.2000  0.4728  0.5237
 3125TIP3    H230867   1.567   3.387  12.487 -1.6678 -0.0633 -0.4016
 3126TIP3   OH230868   0.614   3.550  13.045 -0.2422  0.3641  0.1494
 3126TIP3    H130869   0.635   3.642  13.028 -1.9787  0.6023 -0.9020
 3126TIP3    H230870   0.542   3.553  13.107  0.3755 -0.3470  0.9305
 3127TIP3   OH230871   3.722   0.152  14.802 -0.8773  0.0563 -0.7621
 3127TIP3    H130872   3.763   0.235  14.776 -0.3299  0.2400  0.5901
 3127TIP3    H230873   3.628   0.169  14.794 -0.7585  0.5291 -1.2914
 3128TIP3   OH230874   4.616   1.347  16.202 -0.3036  0.0446  0.0564
 3128TIP3    H130875   4.608   1.276  16.265 -0.8202 -0.2852 -0.3742
 3128TIP3    H230876   4.698   1.391  16.226  0.7670 -1.5419 -0.5067
 3129TIP3   OH230877   5.523   3.335   1.240 -0.0160  0.2239 -0.4841
 3129TIP3    H130878   5.467   3.385   1.298 -2.1952  0.3892 -2.5580
 3129TIP3    H230879   5.567   3.272   1.297  1.1672  2.9633  1.8822
 3130TIP3   OH230880   5.513   2.914   4.587 -0.6235  0.4772 -0.0562
 3130TIP3    H130881   5.585   2.883   4.531  0.4690  0.3835  1.3380
 3130TIP3    H230882   5.529   2.872   4.672 -1.4077  1.7223  0.7468
 3131TIP3   OH230883   4.432   1.157   3.229 -0.0716 -0.3552  0.6892
 3131TIP3    H130884   4.416   1.247   3.201  1.4731 -0.5826 -1.0955
 3131TIP3    H230885   4.399   1.103   3.156  0.1930 -1.1766  1.1642
 3132TIP3   OH230886   6.318   0.089   3.774 -0.3314 -1.0214  0.1871
 3132TIP3    H130887   6.315   0.182   3.749  0.0709 -0.3196  2.5302
 3132TIP3    H230888   6.226   0.064   3.782 -0.4693 -0.2643  1.2987
 3133TIP3   OH230889   4.796   4.696   4.632 -0.5430  0.0087  0.5201
 3133TIP3    H130890   4.880   4.734   4.606 -0.8098  0.3252  0.1028
 3133TIP3    H230891   4.805   4.602   4.611 -0.7872  0.2694 -0.8476
 3134TIP3   OH230892   5.018   0.704  15.868 -0.0446 -0.2372  0.2556
 3134TIP3    H130893   5.050   0.621  15.903  2.1516 -0.0297 -1.0726
 3134TIP3    H230894   4.943   0.680  15.813  0.9226 -1.4546 -0.5775
 3135TIP3   OH230895   2.917   0.143  15.579  0.5032 -0.3976 -0.9665
 3135TIP3    H130896   2.840   0.182  15.619  1.1882  1.0663 -1.0187
 3135TIP3    H230897   2.982   0.140  15.649  1.2318  0.8104 -1.5631
 3136TIP3   OH230898   1.310   0.549   4.344 -0.2852 -0.4364 -0.1686
 3136TIP3    H130899   1.309   0.491   4.420 -1.7410 -0.6129 -0.2998
 3136TIP3    H230900   1.259   0.625   4.371  0.4094  0.1532 -0.4870
 3137TIP3   OH230901   4.194   5.911  16.565  0.2603  0.8347  0.1990
 3137TIP3    H130902   4.277   5.887  16.523 -0.2940  0.2315 -0.5784
 3137TIP3    H230903   4.218   5.978  16.629  1.1858  1.5366 -0.8334
 3138TIP3   OH230904   5.917   1.968   1.930 -0.3437 -0.1620  0.6069
 3138TIP3    H130905   5.884   1.997   1.845 -1.2972  0.4104  1.1577
 3138TIP3    H230906   6.008   1.999   1.932 -0.0982 -0.7442 -0.4491
 3139TIP3   OH230907   2.368   3.377   5.196  0.6708  0.0257 -0.4445
 3139TIP3    H130908   2.406   3.337   5.118  0.5397  0.8544 -0.9485
 3139TIP3    H230909   2.436   3.436   5.229  1.1048 -1.0539  0.6578
 3140TIP3   OH230910   2.883   2.882  10.873  0.0935 -0.7855 -0.3994
 3140TIP3    H130911   2.842   2.934  10.942 -0.1272 -1.0448 -0.3346
 3140TIP3    H230912   2.906   2.946  10.806 -0.0872 -0.5893 -0.2763
 3141TIP3   OH230913   2.260   3.323   2.409  0.3416  0.0233  0.0129
 3141TIP3    H130914   2.317   3.399   2.395  1.8307 -0.8929  0.8174
 3141TIP3    H230915   2.198   3.352   2.476  2.1335 -0.0299  1.7841
 3142TIP3   OH230916   4.752   6.220  11.849  0.2280  0.4149 -0.2173
 3142TIP3    H130917   4.804   6.267  11.915 -0.7235  0.3508  0.6039
 3142TIP3    H230918   4.813   6.155  11.813  0.7830  0.4710  0.5813
 3143TIP3   OH230919   6.165   6.625  12.441 -0.2484 -0.0301  0.0655
 3143TIP3    H130920   6.188   6.532  12.442 -0.3063 -0.0446  0.0297
 3143TIP3    H230921   6.100   6.633  12.371  0.5308  0.2208 -0.6418
 3144TIP3   OH230922   3.934   4.421  12.025  0.3217 -0.2388  0.2037
 3144TIP3    H130923   3.841   4.402  12.037  0.4701 -0.4917  1.0194
 3144TIP3    H230924   3.958   4.372  11.947  0.3835 -2.4028  1.5079
 3145TIP3   OH230925   4.230   3.217  16.657 -0.3280  0.1349  0.1965
 3145TIP3    H130926   4.194   3.201  16.744  0.3986 -1.7137  0.2158
 3145TIP3    H230927   4.303   3.155  16.650  0.7568  1.4950 -1.0578
 3146TIP3   OH230928   0.211   2.955   3.936  0.5857 -0.0984  0.3788
 3146TIP3    H130929   0.125   2.982   3.906  1.1697 -0.3381 -1.7026
 3146TIP3    H230930   0.238   3.023   3.998 -0.8147  0.3063  0.5682
 3147TIP3   OH230931   4.769   6.622  12.112 -0.0197  0.0425  0.0107
 3147TIP3    H130932   4.732   6.625  12.201  1.0140 -1.6393  0.5449
 3147TIP3    H230933   4.737   6.702  12.070 -1.0633  0.5574  1.6837
 3148TIP3   OH230934   4.477   1.518  11.113 -0.7274 -0.1151 -0.4080
 3148TIP3    H130935   4.533   1.537  11.037  0.0422 -2.7619 -0.5822
 3148TIP3    H230936   4.417   1.450  11.082  0.8286 -2.6742  1.7663
 3149TIP3   OH230937   1.261   1.970  12.443  0.8857 -0.5257 -0.3158
 3149TIP3    H130938   1.255   1.874  12.438  0.5688 -0.5055 -0.3588
 3149TIP3    H230939   1.249   1.999  12.353  0.1994 -0.4100 -0.1927
 3150TIP3   OH230940   3.856   4.410  14.939  0.7109 -0.5479 -0.0613
 3150TIP3    H130941   3.873   4.460  15.019 -0.7417 -0.9701  0.5373
 3150TIP3    H230942   3.932   4.352  14.930  0.8877 -0.4984  1.0117
 3151TIP3   OH230943   0.178   0.988   2.701  0.1534 -0.0615  0.3516
 3151TIP3    H130944   0.239   1.031   2.641 -1.2665  1.8940  0.1874
 3151TIP3    H230945   0.234   0.947   2.766  1.6692  0.5780 -0.4798
 3152TIP3   OH230946   2.178   5.807   4.626  0.7159  0.1820 -0.2389
 3152TIP3    H130947   2.271   5.819   4.607  0.5007  2.3186 -0.1162
 3152TIP3    H230948   2.176   5.753   4.705  1.9283  1.8491  0.9799
 3153TIP3   OH230949   3.278   5.380  14.904  0.1479 -0.2722  0.1504
 3153TIP3    H130950   3.331   5.392  14.983  1.9079  1.7228 -1.2070
 3153TIP3    H230951   3.195   5.422  14.924  1.6150  2.9879  0.0613
 3154TIP3   OH230952   3.396   3.591  12.617 -0.3648  0.1865  0.4016
 3154TIP3    H130953   3.301   3.603  12.622 -0.3433  0.4730  0.1497
 3154TIP3    H230954   3.415   3.522  12.681 -1.0432 -1.6032 -1.2461
 3155TIP3   OH230955   2.928   4.875   4.984  0.0162  0.0542  0.4691
 3155TIP3    H130956   2.839   4.840   4.990  0.4564 -1.6603 -1.6184
 3155TIP3    H230957   2.984   4.798   4.997  1.1075  0.6630 -0.4407
 3156TIP3   OH230958   5.287   6.679   2.952  0.1724  0.8426 -0.3261
 3156TIP3    H130959   5.264   6.650   2.864  2.9484 -1.2997 -0.4771
 3156TIP3    H230960   5.313   6.771   2.941  0.0083  0.7508 -1.6400
 3157TIP3   OH230961   6.783   4.411  12.727  0.0786  0.1219  0.1498
 3157TIP3    H130962   6.813   4.424  12.817 -0.9403 -0.5350  0.6076
 3157TIP3    H230963   6.863   4.402  12.676  0.6747  0.5713  0.9729
 3158TIP3   OH230964   6.630   1.113   3.423 -0.1093 -0.2325 -0.2247
 3158TIP3    H130965   6.593   1.091   3.338 -0.6597 -1.2485  0.2581
 3158TIP3    H230966   6.723   1.093   3.414 -0.0324  0.3249 -0.7867
 3159TIP3   OH230967   3.339   3.717  11.530 -0.0447 -0.3923 -0.0655
 3159TIP3    H130968   3.396   3.772  11.477  0.9341  0.7702  2.0825
 3159TIP3    H230969   3.349   3.751  11.619  0.2210 -3.7034  1.3037
 3160TIP3   OH230970   4.381   1.750  16.812 -0.0338  0.7994 -0.2412
 3160TIP3    H130971   4.357   1.767  16.903  0.4216  2.5609 -0.4088
 3160TIP3    H230972   4.375   1.655  16.803 -3.4206  0.7822  0.6903
 3161TIP3   OH230973   2.802   6.481   1.460 -0.4436  0.2996 -0.2746
 3161TIP3    H130974   2.762   6.552   1.409 -0.9324  0.5306  0.4070
 3161TIP3    H230975   2.766   6.493   1.548 -0.8048 -1.0102 -0.2292
 3162TIP3   OH230976   3.386   2.456   2.288 -0.2411 -0.0881 -0.1446
 3162TIP3    H130977   3.324   2.445   2.217  1.1702  0.8333 -1.5978
 3162TIP3    H230978   3.467   2.416   2.256  0.4924  0.5495  0.8330
 3163TIP3   OH230979   1.065   2.368   5.495  0.4942  0.2820  0.2650
 3163TIP3    H130980   1.119   2.419   5.434  0.5179  0.0826  0.1174
 3163TIP3    H230981   1.036   2.431   5.561  0.6365  0.4573  0.1594
 3164TIP3   OH230982   6.412   1.614   6.537  0.0575 -0.1806 -0.4447
 3164TIP3    H130983   6.410   1.681   6.469 -0.0306 -0.1347 -0.3971
 3164TIP3    H230984   6.368   1.654   6.612 -1.5908 -0.9027 -0.9726
 3165TIP3   OH230985   2.164   1.424   4.125 -0.1409  0.1579  0.4705
 3165TIP3    H130986   2.214   1.441   4.205 -0.2645 -0.3052  0.6473
 3165TIP3    H230987   2.194   1.338   4.096 -2.8577 -1.4953  2.1564
 3166TIP3   OH230988   4.371   1.885  14.874 -0.3197  0.3231 -0.1047
 3166TIP3    H130989   4.356   1.797  14.840 -1.8663  1.0138 -1.2882
 3166TIP3    H230990   4.402   1.870  14.964 -0.5893 -1.4165 -0.2527
 3167TIP3   OH230991   4.173   1.139   2.735 -0.3548  0.6064  0.0179
 3167TIP3    H130992   4.085   1.101   2.732  0.2914 -0.9319 -0.1154
 3167TIP3    H230993   4.200   1.129   2.826 -0.3505  1.1572  0.0776
 3168TIP3   OH230994   1.319   3.727  14.493 -0.5933  0.1497 -0.3179
 3168TIP3    H130995   1.404   3.697  14.525 -1.7923 -1.5665  1.5160
 3168TIP3    H230996   1.297   3.802  14.550 -1.1129 -0.6133  0.5163
 3169TIP3   OH230997   2.176   2.020   1.677 -0.0857 -0.8443 -0.0777
 3169TIP3    H130998   2.254   1.974   1.707 -0.0191 -0.3875  0.4579
 3169TIP3    H230999   2.210   2.091   1.623 -0.0806 -0.1383  0.8331
 3170TIP3   OH231000   3.784   3.351   3.719  0.5398  0.1752 -0.2504
 3170TIP3    H131001   3.864   3.298   3.728  0.3679  0.0715  0.9075
 3170TIP3    H231002   3.742   3.319   3.640  1.3931 -0.1146 -0.6014
 3171TIP3   OH231003   5.467   2.462   1.438  0.6090  0.2235  0.4396
 3171TIP3    H131004   5.535   2.509   1.486  0.3695  2.5744 -1.3686
 3171TIP3    H231005   5.385   2.498   1.472  0.2516 -1.2795  1.2945
 3172TIP3   OH231006   4.740   6.126   4.685  0.2410 -0.5626  0.2150
 3172TIP3    H131007   4.733   6.033   4.703  0.1495 -0.8119 -0.9953
 3172TIP3    H231008   4.787   6.131   4.602  1.5932  0.5384  1.0020
 3173TIP3   OH231009   4.001   5.010  14.255 -0.5448  0.1551  0.6567
 3173TIP3    H131010   4.053   4.944  14.211 -1.3385  1.7056 -2.9798
 3173TIP3    H231011   4.014   4.993  14.349  1.9035 -2.9413 -0.0858
 3174TIP3   OH231012   0.611   5.784   1.056  0.1093 -0.1521  0.3438
 3174TIP3    H131013   0.587   5.699   1.019 -0.7028  0.1158  0.2431
 3174TIP3    H231014   0.587   5.776   1.149  0.4903 -0.1966  0.4419
 3175TIP3   OH231015   2.197   3.929  12.549 -0.4529 -0.4702 -0.3142
 3175TIP3    H131016   2.126   3.905  12.609  0.0433 -0.8759  0.1250
 3175TIP3    H231017   2.199   4.024  12.550 -1.3509 -0.4374 -0.7629
 3176TIP3   OH231018   5.258   1.658  10.625 -0.0217 -0.1918 -0.0667
 3176TIP3    H131019   5.291   1.706  10.701  2.4623  1.4236 -2.0001
 3176TIP3    H231020   5.323   1.590  10.610 -1.2723 -1.4549  0.0807
 3177TIP3   OH231021   2.973   6.387  10.290 -0.2845  0.5020  0.6294
 3177TIP3    H131022   3.066   6.365  10.285  0.2340  2.4439  0.6599
 3177TIP3    H231023   2.932   6.339  10.218  0.5675 -1.0443  1.1381
 3178TIP3   OH231024   3.803   0.055  17.166 -0.6539 -0.1335  0.4754
 3178TIP3    H131025   3.847   0.018  17.242 -0.8254 -3.0473 -0.6721
 3178TIP3    H231026   3.727   0.100  17.201  0.5036  0.6268  2.1340
 3179TIP3   OH231027   2.100   0.045  15.434 -0.2535 -0.1540  0.5860
 3179TIP3    H131028   2.128  -0.041  15.400  0.9036  0.8347 -1.0897
 3179TIP3    H231029   2.014   0.059  15.394 -0.7560 -0.7932  1.3985
 3180TIP3   OH231030   0.617   0.727  16.815 -0.0468 -0.4344  0.6540
 3180TIP3    H131031   0.675   0.757  16.885  0.5733  0.0463 -0.0474
 3180TIP3    H231032   0.547   0.793  16.813  0.7388  0.4127 -0.1609
 3181TIP3   OH231033   4.438   5.685   0.726  0.4581  0.0290 -0.4688
 3181TIP3    H131034   4.479   5.601   0.704  0.1538  0.4446 -2.8448
 3181TIP3    H231035   4.501   5.751   0.698  0.2819  0.6276  0.4996
 3182TIP3   OH231036   1.434   1.298   3.591  0.1087  0.0344  0.4501
 3182TIP3    H131037   1.512   1.332   3.547  2.0074 -0.6683  3.0017
 3182TIP3    H231038   1.392   1.375   3.629 -1.2744  0.5820 -1.9807
 3183TIP3   OH231039   0.199   3.518  14.475 -0.3511  0.1150 -0.2455
 3183TIP3    H131040   0.274   3.497  14.530 -2.1545  0.3943  2.5537
 3183TIP3    H231041   0.177   3.435  14.432  0.7316 -0.2882 -0.0560
 3184TIP3   OH231042   3.833   5.596   4.865 -0.0011 -0.1776 -1.0150
 3184TIP3    H131043   3.755   5.576   4.918  1.0644 -2.1574 -0.1072
 3184TIP3    H231044   3.823   5.542   4.787  1.3656 -2.0102  0.0086
 3185TIP3   OH231045   1.247   1.961   3.522  0.0199  0.2239  0.0612
 3185TIP3    H131046   1.197   2.006   3.591 -0.8727  0.0541 -0.4484
 3185TIP3    H231047   1.250   2.025   3.451  0.7598  0.3224  0.1812
 3186TIP3   OH231048   6.612   6.026   2.379 -0.3762 -0.5062  0.5635
 3186TIP3    H131049   6.569   6.110   2.395 -0.3189  0.4105 -3.0639
 3186TIP3    H231050   6.541   5.969   2.348  0.0522 -0.9042  0.3086
 3187TIP3   OH231051   2.316   5.294  15.511 -0.0606  0.1433 -0.2406
 3187TIP3    H131052   2.351   5.206  15.496  2.6320  1.5123 -3.2037
 3187TIP3    H231053   2.370   5.330  15.581  0.6552  0.3131 -0.8722
 3188TIP3   OH231054   4.501   2.764  11.366 -0.0474 -0.0116 -0.3351
 3188TIP3    H131055   4.502   2.758  11.461  0.0001  1.0924 -0.2547
 3188TIP3    H231056   4.412   2.793  11.344  0.0103 -0.0410 -0.6213
 3189TIP3   OH231057   3.099   1.865  14.667  0.0064 -0.4363  0.5592
 3189TIP3    H131058   3.189   1.872  14.635 -0.7350 -0.6102 -1.7737
 3189TIP3    H231059   3.075   1.954  14.692  1.3771 -0.6777  3.0337
 3190TIP3   OH231060   5.728   4.520   3.736 -0.0127 -0.1495  0.5159
 3190TIP3    H131061   5.777   4.438   3.725 -0.9647 -0.5368 -1.2768
 3190TIP3    H231062   5.652   4.495   3.789 -1.4559 -1.0227 -1.7906
 3191TIP3   OH231063   6.108   5.412   5.756 -0.1397 -0.3241  0.2795
 3191TIP3    H131064   6.203   5.405   5.746 -0.0697  0.8367 -0.0439
 3191TIP3    H231065   6.087   5.349   5.825  1.0468  0.2732  1.2278
 3192TIP3   OH231066   4.962   1.384  15.151 -0.1589  0.0228  1.0980
 3192TIP3    H131067   5.025   1.315  15.131  0.0720  0.9377 -1.9602
 3192TIP3    H231068   4.877   1.340  15.152  0.2009 -0.6740  1.7383
 3193TIP3   OH231069   4.188   5.410   4.486 -0.1245 -0.1441  0.4772
 3193TIP3    H131070   4.265   5.391   4.432  0.1270 -1.2577  1.1891
 3193TIP3    H231071   4.198   5.353   4.562 -0.6312  1.1617  1.5536
 3194TIP3   OH231072   5.952   6.719   1.625  0.2340 -0.0771 -0.1249
 3194TIP3    H131073   5.961   6.810   1.652 -0.4735 -0.5061  1.6592
 3194TIP3    H231074   5.869   6.716   1.577  0.4228  0.2646 -0.4805
 3195TIP3   OH231075   0.775   2.650  13.408 -0.4974  0.0131 -0.3734
 3195TIP3    H131076   0.752   2.616  13.321  0.4396  0.0995 -0.6692
 3195TIP3    H231077   0.834   2.584  13.444  2.0502  1.6589 -1.3040
 3196TIP3   OH231078   1.785   1.841  15.099  0.3778 -0.4569 -0.0916
 3196TIP3    H131079   1.824   1.774  15.044  2.5053  0.7657 -0.1969
 3196TIP3    H231080   1.718   1.882  15.045  0.7728 -0.8703 -0.9037
 3197TIP3   OH231081   3.524   4.732  13.680 -0.1609 -0.2131  0.1994
 3197TIP3    H131082   3.532   4.725  13.585  0.7503 -2.9891  0.4170
 3197TIP3    H231083   3.449   4.676  13.703 -1.3898  1.6336  1.0558
 3198TIP3   OH231084   5.912   3.709   1.582  0.0867  0.1192  0.3439
 3198TIP3    H131085   5.860   3.667   1.651 -0.2400 -0.5423 -0.2974
 3198TIP3    H231086   5.856   3.781   1.551 -0.4479 -0.5765 -0.3287
 3199TIP3   OH231087   5.108   3.905  10.630 -0.0038  0.4504  0.0482
 3199TIP3    H131088   5.049   3.935  10.561  0.4077  2.0926  0.3665
 3199TIP3    H231089   5.064   3.930  10.712 -0.2077 -0.9392  0.3805
 3200TIP3   OH231090   3.494   2.714   3.824  0.4914  0.6821 -0.1358
 3200TIP3    H131091   3.455   2.647   3.879  0.9764  0.8382  0.4129
 3200TIP3    H231092   3.484   2.681   3.735 -1.2358  0.9169 -0.0508
 3201TIP3   OH231093   5.938   2.213   3.197  0.3256  0.0490 -0.1650
 3201TIP3    H131094   5.969   2.151   3.263 -0.4106  0.1416  0.2802
 3201TIP3    H231095   5.998   2.287   3.204 -0.2625  0.4396  1.0259
 3202TIP3   OH231096   0.161   3.528   3.464 -0.0439 -0.6306  0.1571
 3202TIP3    H131097   0.189   3.532   3.555  0.8748  0.4076 -0.1420
 3202TIP3    H231098   0.100   3.601   3.453 -0.7352 -1.2072  0.1187
 3203TIP3   OH231099   1.596   3.970  14.506 -0.2188  0.2365  0.5074
 3203TIP3    H131100   1.670   3.910  14.517  0.6061  1.2760  0.8175
 3203TIP3    H231101   1.598   3.992  14.413  0.7212  1.3055  0.7620
 3204TIP3   OH231102   6.504   3.344  12.329  0.5212  0.2437  0.0888
 3204TIP3    H131103   6.533   3.420  12.279  0.0900 -0.1412 -0.7717
 3204TIP3    H231104   6.584   3.295  12.348  0.7384  0.6288  0.1705
 3205TIP3   OH231105   5.107   2.108  12.128 -0.7248 -0.2333  0.0436
 3205TIP3    H131106   5.104   2.162  12.049 -0.8354 -0.0595  0.1652
 3205TIP3    H231107   5.019   2.114  12.164 -0.5369  0.1070  0.4599
 3206TIP3   OH231108   4.415   5.497  10.207  0.5986  0.3009 -0.1395
 3206TIP3    H131109   4.404   5.433  10.277 -2.1023 -0.9108 -1.5042
 3206TIP3    H231110   4.338   5.553  10.214  2.9145  3.6315  1.0705
 3207TIP3   OH231111   6.729   4.258   3.592  0.3271 -0.4045  0.1047
 3207TIP3    H131112   6.685   4.335   3.555  0.0333  0.5486  2.2795
 3207TIP3    H231113   6.822   4.277   3.585  0.2946 -0.4501 -0.5251
 3208TIP3   OH231114   2.834   1.827   4.401 -0.1063 -0.0171 -0.0093
 3208TIP3    H131115   2.928   1.809   4.394  0.1175  0.0676  2.2391
 3208TIP3    H231116   2.828   1.894   4.468 -1.7455  0.6702 -0.7980
 3209TIP3   OH231117   1.706   5.453  16.129 -0.4274 -0.4727 -0.0730
 3209TIP3    H131118   1.666   5.375  16.091 -2.7098 -1.0725  3.1032
 3209TIP3    H231119   1.636   5.519  16.128 -0.0531 -0.0072  1.3584
 3210TIP3   OH231120   2.182   0.562  13.132 -0.7281  0.4399  0.7447
 3210TIP3    H131121   2.260   0.558  13.187  0.0671  1.2006 -0.2906
 3210TIP3    H231122   2.183   0.480  13.083  0.0599  0.9234 -0.0771
 3211TIP3   OH231123   4.074   0.227   5.694  0.3893  0.3085  0.1697
 3211TIP3    H131124   3.982   0.228   5.719  0.3531  1.3483  0.0647
 3211TIP3    H231125   4.096   0.135   5.684 -0.8005  0.0738 -0.4214
 3212TIP3   OH231126   5.919   2.237   1.189  0.6262 -0.1120 -0.0208
 3212TIP3    H131127   5.865   2.277   1.121  1.3016 -0.7982 -0.9807
 3212TIP3    H231128   5.919   2.144   1.169  1.5440 -0.2181  0.4020
 3213TIP3   OH231129   3.475   4.983   0.805 -0.0255  0.0345 -1.1282
 3213TIP3    H131130   3.511   5.067   0.834  1.5237 -1.0502  0.2410
 3213TIP3    H231131   3.518   4.966   0.721 -1.0033  0.9733 -1.8538
 3214TIP3   OH231132   1.232   0.345   4.867 -0.0116 -0.1142 -0.0520
 3214TIP3    H131133   1.307   0.288   4.848  1.4989  1.8309 -0.3514
 3214TIP3    H231134   1.261   0.399   4.940 -0.3295  1.9717 -1.3707
 3215TIP3   OH231135   2.262   0.570   3.739 -0.2077  0.1435  0.2905
 3215TIP3    H131136   2.205   0.513   3.688 -0.1422 -0.1922  0.5905
 3215TIP3    H231137   2.205   0.606   3.808 -0.1736  0.1850  0.2967
 3216TIP3   OH231138   3.793   1.683  16.952  0.5505  0.1577  0.0155
 3216TIP3    H131139   3.795   1.691  17.047 -1.8791  0.4752  0.0962
 3216TIP3    H231140   3.802   1.773  16.920 -0.1698  0.2421  0.0255
 3217TIP3   OH231141   2.249   4.732   2.571  0.1830 -0.2361 -0.2474
 3217TIP3    H131142   2.235   4.693   2.484  1.2173  0.1558 -0.6104
 3217TIP3    H231143   2.302   4.810   2.553 -4.6365  3.5328 -0.0515
 3218TIP3   OH231144   5.286   0.337  10.932 -0.3438  0.3314  0.0918
 3218TIP3    H131145   5.223   0.269  10.956 -1.9659  1.6160 -0.3816
 3218TIP3    H231146   5.319   0.309  10.846  0.0270 -0.5377  0.5040
 3219TIP3   OH231147   2.196   3.029  12.241  0.5517 -0.0963  0.0808
 3219TIP3    H131148   2.241   2.946  12.224 -1.1542 -1.2871  1.1176
 3219TIP3    H231149   2.109   3.004  12.271 -0.3657  2.1063 -0.5288
 3220TIP3   OH231150   2.212   1.234  11.721 -0.5880  0.4497 -0.5100
 3220TIP3    H131151   2.280   1.168  11.708 -1.1342 -0.1523 -0.3797
 3220TIP3    H231152   2.200   1.273  11.634 -0.9192 -0.2874 -0.8065
 3221TIP3   OH231153   5.372   2.358  13.325  0.8497 -0.0627  0.3797
 3221TIP3    H131154   5.454   2.390  13.364  1.3091  0.2334 -0.7686
 3221TIP3    H231155   5.349   2.426  13.261 -1.4813  0.9596  2.1592
 3222TIP3   OH231156   0.222   5.236  10.940  0.4582 -0.0588 -0.3047
 3222TIP3    H131157   0.131   5.264  10.948  0.8734  1.2791  0.0504
 3222TIP3    H231158   0.225   5.152  10.986 -0.6584 -0.2926 -0.6210
 3223TIP3   OH231159   1.470   6.785   0.775  0.2350  0.2470 -0.0444
 3223TIP3    H131160   1.481   6.867   0.823  0.1238 -0.3169  0.9932
 3223TIP3    H231161   1.461   6.811   0.684 -3.9461  1.7621  0.5946
 3224TIP3   OH231162   3.379   6.662   2.845  0.9135 -0.1975  1.0263
 3224TIP3    H131163   3.451   6.622   2.796  1.6374  0.6613  1.3556
 3224TIP3    H231164   3.419   6.688   2.928  0.5401  1.4202  0.7347
 3225TIP3   OH231165   4.528   5.883   5.428  0.3504  0.1163  0.3410
 3225TIP3    H131166   4.554   5.865   5.338  0.0912 -0.6714  0.4155
 3225TIP3    H231167   4.606   5.921   5.468  1.2826 -1.7559  0.4269
 3226TIP3   OH231168   1.381   5.207  17.100  0.0626 -0.4602  0.0993
 3226TIP3    H131169   1.352   5.287  17.057  0.9460  0.2708  0.8133
 3226TIP3    H231170   1.424   5.157  17.031  1.6195  0.7744  0.1187
 3227TIP3   OH231171   2.471   0.515   1.591 -0.4054 -1.0307 -0.1487
 3227TIP3    H131172   2.385   0.484   1.618 -0.2342 -0.8730  0.6052
 3227TIP3    H231173   2.509   0.553   1.670 -0.1517  0.0668 -0.7738
 3228TIP3   OH231174   5.889   6.557   3.338  0.5422 -0.4449 -0.2684
 3228TIP3    H131175   5.879   6.652   3.351  0.4719 -0.0108 -2.9826
 3228TIP3    H231176   5.801   6.522   3.351  0.6796 -0.2635  1.3526
 3229TIP3   OH231177   3.931   6.492  12.593  0.5891  0.1865  0.0135
 3229TIP3    H131178   3.911   6.469  12.502 -3.3470  1.8776  0.2807
 3229TIP3    H231179   3.921   6.410  12.641 -1.0314 -0.0285 -0.6367
 3230TIP3   OH231180   4.291   3.843  14.566 -0.0914  0.0385  0.2217
 3230TIP3    H131181   4.259   3.759  14.599  0.5199 -1.5010 -2.7467
 3230TIP3    H231182   4.212   3.892  14.544 -0.4652 -0.6791 -0.0646
 3231TIP3   OH231183   5.638   5.371  12.400 -0.7824  0.4700 -0.2930
 3231TIP3    H131184   5.628   5.424  12.480 -1.7307  1.4020 -1.0110
 3231TIP3    H231185   5.651   5.435  12.330  1.9345 -0.3727 -0.6799
 3232TIP3   OH231186   3.666   0.423  16.452 -0.1747 -0.0849  0.0125
 3232TIP3    H131187   3.702   0.349  16.402  1.1831  0.4244  0.1918
 3232TIP3    H231188   3.653   0.388  16.541  1.6851  0.1992  0.4338
 3233TIP3   OH231189   4.815   6.106  17.117 -0.2472  0.2968 -0.9791
 3233TIP3    H131190   4.795   6.092  17.025  0.0320 -1.3190 -0.8333
 3233TIP3    H231191   4.729   6.105  17.160 -0.2503 -2.4493 -0.8551
 3234TIP3   OH231192   3.932   3.310  11.222 -0.4223  0.4562 -0.0510
 3234TIP3    H131193   3.931   3.349  11.309 -0.4437 -0.1123  0.2051
 3234TIP3    H231194   4.020   3.273  11.213 -0.8834 -0.7872  0.3206
 3235TIP3   OH231195   6.360   4.553  14.930  0.1271 -0.3262  0.3483
 3235TIP3    H131196   6.342   4.462  14.908 -1.6496  0.6509 -2.8235
 3235TIP3    H231197   6.279   4.585  14.970  0.0419  0.3382 -0.3358
 3236TIP3   OH231198   6.713   3.878  16.642 -0.2883  0.0342 -0.2234
 3236TIP3    H131199   6.766   3.862  16.564 -1.4081 -1.7234 -0.6859
 3236TIP3    H231200   6.777   3.879  16.714  0.4458 -1.7624 -0.7923
 3237TIP3   OH231201   1.848   4.488  14.924 -0.0155  0.2899  0.2594
 3237TIP3    H131202   1.870   4.563  14.979  3.3743  0.0199 -0.5341
 3237TIP3    H231203   1.893   4.504  14.842 -0.9270 -1.6638 -0.6973
 3238TIP3   OH231204   5.594   2.697  16.762  0.8376  0.2126  0.1435
 3238TIP3    H131205   5.587   2.704  16.858  0.5150  2.2864  0.0189
 3238TIP3    H231206   5.687   2.681  16.746  0.9169 -0.0263  0.8017
 3239TIP3   OH231207   1.976   3.954  11.457  0.2539 -0.0028  0.2648
 3239TIP3    H131208   2.051   3.979  11.510 -0.4298  1.6583  0.5377
 3239TIP3    H231209   1.997   3.985  11.369  0.5535 -0.9801 -0.0151
 3240TIP3   OH231210   6.744   6.608  12.148  0.5125 -0.2964 -0.3167
 3240TIP3    H131211   6.753   6.696  12.112 -2.2760  0.4400  0.5100
 3240TIP3    H231212   6.770   6.617  12.240  1.1019 -0.5518 -0.4590
 3241TIP3   OH231213   0.006   3.713   3.320 -0.2799  0.4602  0.2123
 3241TIP3    H131214  -0.078   3.668   3.332  0.9956 -2.3407 -0.6281
 3241TIP3    H231215   0.002   3.748   3.231  0.2992 -1.8798 -0.8199
 3242TIP3   OH231216   2.906   3.773  15.840  0.2897  0.6675  0.7361
 3242TIP3    H131217   2.919   3.826  15.918 -1.6087  0.3265  1.3269
 3242TIP3    H231218   2.827   3.722  15.858  1.8422 -2.1782  0.0678
 3243TIP3   OH231219   0.449   3.671   0.051 -0.0307 -0.2219  0.6495
 3243TIP3    H131220   0.398   3.734  -0.000 -1.3954 -0.3145  1.8450
 3243TIP3    H231221   0.524   3.721   0.083  0.1191  0.1804 -0.2863
 3244TIP3   OH231222   5.059   1.718   3.437  0.0930 -0.2362 -0.2614
 3244TIP3    H131223   5.050   1.625   3.418 -2.1301 -0.1602  0.1961
 3244TIP3    H231224   5.153   1.730   3.449  0.3410 -2.7302  1.1012
 3245TIP3   OH231225   0.590   6.332   4.043  0.5707  1.0469 -0.1150
 3245TIP3    H131226   0.573   6.241   4.066  1.4774  1.0613  0.6750
 3245TIP3    H231227   0.539   6.384   4.105 -0.0839  1.0850 -0.6767
 3246TIP3   OH231228   4.968   2.356   0.304  0.2087 -0.0204 -0.3266
 3246TIP3    H131229   5.024   2.297   0.254 -0.0223  0.2568 -0.9120
 3246TIP3    H231230   4.879   2.338   0.274 -0.4033 -2.2586  2.3762
 3247TIP3   OH231231   5.354   0.724   3.935  0.2045 -0.5833 -0.2665
 3247TIP3    H131232   5.448   0.709   3.944  0.3674 -0.3850 -1.4146
 3247TIP3    H231233   5.343   0.752   3.844 -0.8829  0.0359  0.0283
 3248TIP3   OH231234   4.057   4.326  12.267 -0.5341  0.2066  0.3451
 3248TIP3    H131235   4.011   4.358  12.189 -0.8653  2.4102  1.3594
 3248TIP3    H231236   4.146   4.359  12.257  0.0483 -1.4209 -0.1263
 3249TIP3   OH231237   3.804   3.659  10.675 -0.0091  0.3014 -0.2121
 3249TIP3    H131238   3.752   3.606  10.615  0.2405 -0.1343 -0.0499
 3249TIP3    H231239   3.756   3.742  10.682 -0.4491  0.0664 -0.3980
 3250TIP3   OH231240   6.275   1.297   0.024 -0.2542 -0.1089 -0.4813
 3250TIP3    H131241   6.197   1.335   0.065 -1.7656 -1.6610 -1.7329
 3250TIP3    H231242   6.333   1.277   0.098 -2.0770 -1.0928  0.7930
 3251TIP3   OH231243   1.499   0.181  13.090 -0.5211  0.6349  0.1187
 3251TIP3    H131244   1.567   0.248  13.093 -0.1884  0.3085 -0.0852
 3251TIP3    H231245   1.535   0.108  13.140 -0.7488  0.4809  0.0614
 3252TIP3   OH231246   0.673   6.320   3.678 -0.4842  0.0220  0.0039
 3252TIP3    H131247   0.668   6.225   3.667 -0.9070 -0.0241  0.5643
 3252TIP3    H231248   0.587   6.345   3.711 -0.9983  0.8347 -1.8059
 3253TIP3   OH231249   1.226   4.473   0.786  0.5158 -0.0569  0.2684
 3253TIP3    H131250   1.166   4.547   0.795  1.4712  1.0110 -1.5807
 3253TIP3    H231251   1.170   4.399   0.764 -0.2098  0.8036 -0.9054
 3254TIP3   OH231252   4.801   4.083  16.759 -0.5638  0.2165 -0.2665
 3254TIP3    H131253   4.874   4.084  16.696  0.5698 -2.4681  0.8532
 3254TIP3    H231254   4.724   4.105  16.707  0.8313  1.8038 -1.7813
 3255TIP3   OH231255   5.756   2.403  11.631 -0.4521 -0.0917  0.3224
 3255TIP3    H131256   5.729   2.400  11.540  0.6595  1.1964 -0.0743
 3255TIP3    H231257   5.785   2.493  11.645 -0.2871 -0.3567  1.8527
 3256TIP3   OH231258   5.935   0.241   0.214 -0.4663 -0.2748  0.4278
 3256TIP3    H131259   6.017   0.284   0.236  0.6227 -1.9470 -0.1475
 3256TIP3    H231260   5.869   0.284   0.269  0.8162  0.9735  1.0335
 3257TIP3   OH231261   5.351   2.801   5.828 -0.5876  0.3816 -0.2582
 3257TIP3    H131262   5.298   2.724   5.852  0.4940  0.5999  3.4459
 3257TIP3    H231263   5.431   2.765   5.790 -0.6580 -0.2602  0.1928
 3258TIP3   OH231264   3.464   0.597   3.137  0.0945  0.3887  0.3883
 3258TIP3    H131265   3.409   0.675   3.148 -1.1029 -0.4332  0.3201
 3258TIP3    H231266   3.467   0.582   3.043  0.5098  0.4628  0.3848
 3259TIP3   OH231267   3.271   5.324  13.756  0.0788  0.0366 -0.7398
 3259TIP3    H131268   3.309   5.255  13.809 -0.7571  0.4639  0.4499
 3259TIP3    H231269   3.209   5.279  13.698 -0.7253 -0.1952  0.2758
 3260TIP3   OH231270   6.087   6.392   3.479  0.2037  0.5346  0.1410
 3260TIP3    H131271   6.131   6.348   3.407 -0.3210 -1.9275  1.2097
 3260TIP3    H231272   6.015   6.440   3.438  0.7107  0.2695 -1.0894
 3261TIP3   OH231273   5.241   4.460   1.672  0.2661 -0.5325 -0.0909
 3261TIP3    H131274   5.229   4.547   1.711  1.9347  0.0923 -0.8588
 3261TIP3    H231275   5.186   4.402   1.725 -0.3043  0.8594  0.9093
 3262TIP3   OH231276   5.110   4.651  15.853  0.2868  0.4943 -0.1502
 3262TIP3    H131277   5.043   4.592  15.888 -0.5600  1.6617  0.2871
 3262TIP3    H231278   5.188   4.597  15.844 -1.1905 -1.4593 -2.5582
 3263TIP3   OH231279   1.705   0.101  14.760  0.7114  0.7452 -1.0396
 3263TIP3    H131280   1.770   0.154  14.805  0.0564  0.0603  0.8250
 3263TIP3    H231281   1.624   0.115  14.809 -0.1453  0.2347 -2.2431
 3264TIP3   OH231282   3.687   6.098   2.063  0.0327  0.6477 -0.7457
 3264TIP3    H131283   3.716   6.104   2.155  0.1088 -1.0207 -0.6308
 3264TIP3    H231284   3.646   6.012   2.057  0.8053  0.3732 -2.5044
 3265TIP3   OH231285   1.165   0.975  12.287 -0.0189 -0.0875  0.3899
 3265TIP3    H131286   1.071   0.963  12.302  0.2203 -1.8507  0.6996
 3265TIP3    H231287   1.200   1.001  12.372 -0.1490  0.0782  0.3938
 3266TIP3   OH231288   1.073   6.297   1.868 -0.5603  0.1447  0.1918
 3266TIP3    H131289   1.081   6.392   1.876 -0.9216  0.3105 -1.1032
 3266TIP3    H231290   1.005   6.285   1.801 -1.7723 -1.0488  1.5675
 3267TIP3   OH231291   3.967   5.219   5.114  0.8687  1.1279  0.4414
 3267TIP3    H131292   4.003   5.132   5.135  1.0169  1.7807  3.3100
 3267TIP3    H231293   3.922   5.206   5.030  2.2669 -1.2898 -0.0503
 3268TIP3   OH231294   1.776   5.261  16.744 -0.3055  0.0142  0.0424
 3268TIP3    H131295   1.775   5.345  16.699 -1.4586 -0.4620 -0.8497
 3268TIP3    H231296   1.807   5.199  16.678 -2.5355 -0.7855 -0.3094
 3269TIP3   OH231297   0.957   0.900  12.043  0.5440 -0.4428  0.4529
 3269TIP3    H131298   0.932   0.861  12.127  0.3944  2.4191  1.8865
 3269TIP3    H231299   1.020   0.838  12.006 -1.4248 -3.1570  1.2951
 3270TIP3   OH231300   4.255   6.379   1.189 -0.2748  0.5318  0.3457
 3270TIP3    H131301   4.255   6.288   1.161  0.3959  0.6581 -0.1057
 3270TIP3    H231302   4.242   6.429   1.108  0.7983  0.8756  0.3640
 3271TIP3   OH231303   5.938   4.730  14.367 -0.5008 -0.3922 -0.5249
 3271TIP3    H131304   5.903   4.736  14.456  0.7547 -0.4898  0.0014
 3271TIP3    H231305   5.929   4.818  14.331  1.7240  0.4973  0.8185
 3272TIP3   OH231306   2.778   3.655  13.589 -0.6317  0.3165  0.1018
 3272TIP3    H131307   2.761   3.720  13.656 -0.0045 -0.5318  1.1145
 3272TIP3    H231308   2.692   3.618  13.568 -0.5637 -1.7585  2.9079
 3273TIP3   OH231309   2.371   6.517   5.009  0.0499 -0.3910  0.5192
 3273TIP3    H131310   2.334   6.590   4.960 -0.7095 -1.2785 -0.2900
 3273TIP3    H231311   2.425   6.557   5.077  0.2965  0.8876 -0.4096
 3274TIP3   OH231312   2.211   6.718   4.833 -0.2960  0.3159 -0.2333
 3274TIP3    H131313   2.216   6.689   4.742 -0.0689 -0.3075 -0.0314
 3274TIP3    H231314   2.147   6.659   4.874  1.1098 -0.7932  0.4881
 3275TIP3   OH231315   3.012   4.778   0.577 -0.0786 -0.2981  0.4589
 3275TIP3    H131316   2.961   4.859   0.577  0.2161 -0.1118  0.0694
 3275TIP3    H231317   3.047   4.772   0.665  0.5759  0.4304  0.2583
 3276TIP3   OH231318   2.412   5.512   1.694 -0.1459 -0.0006  0.0563
 3276TIP3    H131319   2.413   5.503   1.790 -0.6047 -1.1005 -0.0289
 3276TIP3    H231320   2.328   5.555   1.676 -0.8125 -1.2377  0.0619
 3277TIP3   OH231321   2.980   1.302  14.554 -1.0744  0.2564 -0.3472
 3277TIP3    H131322   2.959   1.217  14.515  2.3229 -1.7617  1.6633
 3277TIP3    H231323   3.021   1.351  14.483 -1.2615 -0.5967 -1.0665
 3278TIP3   OH231324   1.697   6.697  11.967  0.4319 -0.8457 -0.0820
 3278TIP3    H131325   1.603   6.689  11.951  0.5907 -0.6154 -1.1774
 3278TIP3    H231326   1.735   6.706  11.880  1.4970 -1.1821  0.3422
 3279TIP3   OH231327   0.603   3.601  16.405 -0.1336  0.4814  0.0245
 3279TIP3    H131328   0.627   3.589  16.497 -0.2058  0.1713  0.0025
 3279TIP3    H231329   0.685   3.626  16.362  0.3106 -1.2398 -0.1818
 3280TIP3   OH231330   5.497   4.034  17.079  0.2962 -0.2210  0.6830
 3280TIP3    H131331   5.510   4.128  17.066  1.3678 -0.6006 -1.6467
 3280TIP3    H231332   5.403   4.021  17.067  0.2594  0.4490  0.1498
 3281TIP3   OH231333   5.022   4.274   4.275 -0.1789  0.1952 -0.2663
 3281TIP3    H131334   5.026   4.221   4.355  3.3444 -0.2608 -0.5918
 3281TIP3    H231335   4.933   4.261   4.242 -1.1120 -1.2282  2.4649
 3282TIP3   OH231336   5.657   6.349   4.016  0.3090 -0.0246 -0.1081
 3282TIP3    H131337   5.662   6.340   3.920 -0.0295  2.5026 -0.4274
 3282TIP3    H231338   5.656   6.443   4.031 -1.9243 -0.3340  2.2880
 3283TIP3   OH231339   0.258   5.444  12.640  0.1328 -0.5834  0.8182
 3283TIP3    H131340   0.235   5.459  12.732  1.2251 -0.0399  1.0199
 3283TIP3    H231341   0.272   5.350  12.634  2.0561 -0.4133  1.7271
 3284TIP3   OH231342   2.546   4.440  12.915  0.0631 -0.3376 -0.3545
 3284TIP3    H131343   2.457   4.451  12.881  0.4252  1.9016 -0.7679
 3284TIP3    H231344   2.598   4.416  12.838  0.2055  0.8412 -0.6534
 3285TIP3   OH231345   6.764   3.513   5.294 -0.8102  1.1030  0.6778
 3285TIP3    H131346   6.720   3.437   5.255  0.5322  0.5065  0.2649
 3285TIP3    H231347   6.824   3.475   5.358  1.0785  1.6429 -0.6790
 3286TIP3   OH231348   2.678   0.204   3.484  0.3785 -0.1658  0.1609
 3286TIP3    H131349   2.584   0.203   3.504  0.4064  0.6331  0.3422
 3286TIP3    H231350   2.684   0.163   3.398 -0.1149 -0.4073  0.2362
 3287TIP3   OH231351   0.247   5.636  16.156  0.1923 -0.5761  0.5060
 3287TIP3    H131352   0.323   5.587  16.126 -0.2488 -1.3724  0.6659
 3287TIP3    H231353   0.267   5.727  16.133  1.1593 -0.7783  0.4950
 3288TIP3   OH231354   2.918   1.884   1.205 -0.0161 -0.0093 -0.2938
 3288TIP3    H131355   2.882   1.900   1.117  0.9571  1.3558 -0.4801
 3288TIP3    H231356   2.980   1.813   1.192  0.3626  0.4009 -0.7981
 3289TIP3   OH231357   5.705   6.399  10.735 -0.1735  0.1676  0.3740
 3289TIP3    H131358   5.693   6.472  10.675  0.9881  1.2017  1.3596
 3289TIP3    H231359   5.759   6.336  10.686 -1.4298 -0.2107 -0.5831
 3290TIP3   OH231360   6.355   2.673   0.383 -0.2356 -0.0942 -0.2344
 3290TIP3    H131361   6.304   2.735   0.330  0.6974 -0.2035 -1.2853
 3290TIP3    H231362   6.433   2.722   0.409 -0.1391 -0.4135  0.0805
 3291TIP3   OH231363   4.549   2.326  12.105 -0.0053  0.3463  0.5241
 3291TIP3    H131364   4.481   2.389  12.081 -0.1526  0.0672  0.2083
 3291TIP3    H231365   4.629   2.378  12.107 -0.0207  0.4181 -0.3733
 3292TIP3   OH231366   0.777   0.567  10.789 -0.2862  0.6893  0.0176
 3292TIP3    H131367   0.812   0.562  10.700 -0.7479 -0.2974 -0.1220
 3292TIP3    H231368   0.834   0.630  10.834  0.8549  0.1075 -0.5700
 3293TIP3   OH231369   1.573   4.503   1.214 -0.7212 -0.0762 -0.6897
 3293TIP3    H131370   1.540   4.565   1.149 -0.8072 -0.4082 -0.9618
 3293TIP3    H231371   1.509   4.506   1.285  0.5859  2.1070  0.5174
 3294TIP3   OH231372   1.764   1.130  13.867 -0.4354 -0.5047 -0.3208
 3294TIP3    H131373   1.797   1.215  13.894 -1.7871 -0.6561  2.1158
 3294TIP3    H231374   1.803   1.068  13.929 -0.5809 -1.4756 -1.1672
 3295TIP3   OH231375   5.396   0.508   0.401  0.0415 -0.1001  0.3081
 3295TIP3    H131376   5.328   0.461   0.449  0.6924 -0.0496  1.2987
 3295TIP3    H231377   5.348   0.568   0.344 -0.7362  0.1507  1.2137
 3296TIP3   OH231378   6.157   5.812  14.162  0.1056  0.4879  0.6450
 3296TIP3    H131379   6.224   5.751  14.194  0.2807  0.2140 -0.2135
 3296TIP3    H231380   6.199   5.897  14.164  0.8602  0.1735 -0.8922
 3297TIP3   OH231381   1.974   5.223   6.375  0.5059 -0.0059 -0.1756
 3297TIP3    H131382   1.909   5.176   6.427 -0.8838  0.6336 -1.2484
 3297TIP3    H231383   1.945   5.315   6.379  2.5321  0.6391  0.9941
 3298TIP3   OH231384   1.729   0.235  15.448 -0.2048 -0.1626 -0.2056
 3298TIP3    H131385   1.671   0.281  15.508  1.9492  1.1008  1.0455
 3298TIP3    H231386   1.770   0.167  15.502 -1.2988 -1.7822 -1.3486
 3299TIP3   OH231387   4.422   1.073  13.965 -0.0553 -0.1325 -0.2394
 3299TIP3    H131388   4.422   1.087  13.870  0.3220  0.1245 -0.2020
 3299TIP3    H231389   4.480   0.998  13.977 -0.4052 -0.4097 -0.2417
 3300TIP3   OH231390   0.915   3.351  11.243 -0.7136 -0.2191  0.8091
 3300TIP3    H131391   0.943   3.400  11.166  0.8966 -1.4533  0.5513
 3300TIP3    H231392   0.835   3.306  11.215  0.3603 -1.4093 -0.5181
 3301TIP3   OH231393   3.838   1.007   1.201 -0.1230  0.0216  0.0230
 3301TIP3    H131394   3.872   0.988   1.289  1.5169 -2.0042 -0.9411
 3301TIP3    H231395   3.764   1.065   1.215 -0.8079 -1.3670  2.8673
 3302TIP3   OH231396   5.086   3.104   0.772 -0.2542 -0.7100 -0.1497
 3302TIP3    H131397   5.059   3.178   0.717 -0.2684 -1.0444 -0.6051
 3302TIP3    H231398   5.006   3.052   0.783 -0.1317 -0.9246 -0.2629
 3303TIP3   OH231399   0.602   1.161   3.388 -0.4283  0.0565 -0.3072
 3303TIP3    H131400   0.687   1.120   3.369 -0.5772 -1.0312  1.1707
 3303TIP3    H231401   0.624   1.238   3.440 -0.3409 -0.3579  0.2827
 3304TIP3   OH231402   1.966   1.411   3.707 -0.3889  0.2759 -0.5350
 3304TIP3    H131403   1.951   1.457   3.789  2.9045  3.8994 -1.6579
 3304TIP3    H231404   1.940   1.473   3.639  2.4122 -0.1327 -2.1443
 3305TIP3   OH231405   1.526   3.038   0.496  0.2508 -0.3200  0.2410
 3305TIP3    H131406   1.559   3.035   0.406  0.8424 -1.6631  0.4748
 3305TIP3    H231407   1.436   3.070   0.488 -0.1626 -1.6752 -0.9981
 3306TIP3   OH231408   4.637   1.694   0.579 -0.0241 -0.6979 -0.0738
 3306TIP3    H131409   4.668   1.757   0.514  0.0423  0.9112  1.4339
 3306TIP3    H231410   4.558   1.734   0.617  1.3069 -0.3110  2.5607
 3307TIP3   OH231411   2.957   4.625  13.799 -0.0603 -0.2964 -0.1376
 3307TIP3    H131412   3.024   4.685  13.832 -1.6960  0.2689  2.4516
 3307TIP3    H231413   2.949   4.559  13.868 -0.0139 -2.1719 -1.8415
 3308TIP3   OH231414   2.796   1.069   3.960 -0.2603 -0.1276 -0.4650
 3308TIP3    H131415   2.864   1.052   3.895  0.5242  2.0655 -0.3119
 3308TIP3    H231416   2.759   1.153   3.935 -0.2955  0.5374  1.5813
 3309TIP3   OH231417   1.947   0.008  12.637 -0.1938  0.6570 -0.0400
 3309TIP3    H131418   1.917   0.093  12.670  0.9425  1.1388 -0.1968
 3309TIP3    H231419   1.989   0.029  12.553  0.6889  0.0401  0.2343
 3310TIP3   OH231420   0.120   6.175   3.311  0.2423 -0.2855 -0.6186
 3310TIP3    H131421   0.136   6.106   3.246 -1.2513 -0.6919 -0.6051
 3310TIP3    H231422   0.089   6.128   3.389  0.4598  0.3096 -0.1684
 3311TIP3   OH231423   4.052   1.419  13.624  0.2054 -1.0243  0.0082
 3311TIP3    H131424   3.958   1.418  13.642  0.4928 -1.4068  1.6200
 3311TIP3    H231425   4.090   1.466  13.698  1.1888  0.2759 -1.2756
 3312TIP3   OH231426   1.491   2.995  12.445  0.0549 -0.0459 -0.1507
 3312TIP3    H131427   1.460   2.926  12.503 -0.6643  0.5534  0.1988
 3312TIP3    H231428   1.508   3.069  12.503  0.6781  0.1237 -0.5356
 3313TIP3   OH231429   2.669   1.856  13.227 -0.3988  0.2053  0.3947
 3313TIP3    H131430   2.660   1.922  13.296 -0.8538 -0.0526  0.5864
 3313TIP3    H231431   2.588   1.863  13.177 -0.9881 -1.0212  1.1325
 3314TIP3   OH231432   3.066   2.724  10.670 -0.5846 -0.8577 -0.4099
 3314TIP3    H131433   3.160   2.732  10.652  0.2433 -0.6177  3.1899
 3314TIP3    H231434   3.034   2.814  10.664 -0.5691 -0.9053 -1.4050
 3315TIP3   OH231435   1.556   3.079   1.924 -0.2852 -0.5803  0.5564
 3315TIP3    H131436   1.516   3.051   1.842  1.6718 -2.8593  0.2775
 3315TIP3    H231437   1.497   3.045   1.992 -1.8025  1.1379  0.1647
 3316TIP3   OH231438   4.771   4.828   1.854 -0.2063 -0.0679  0.1457
 3316TIP3    H131439   4.781   4.796   1.943 -1.2151  0.6096  0.5230
 3316TIP3    H231440   4.679   4.810   1.832 -0.6127  1.8321  0.1118
 3317TIP3   OH231441   5.391   4.110  11.903  0.4323 -0.2795 -0.2977
 3317TIP3    H131442   5.311   4.103  11.954  0.1850  0.1596 -0.6192
 3317TIP3    H231443   5.397   4.203  11.879  1.0507 -0.2987 -0.2491
 3318TIP3   OH231444   5.957   2.315  16.149 -0.0803 -0.4595 -0.0715
 3318TIP3    H131445   6.026   2.301  16.214 -0.1522  0.0757  0.1250
 3318TIP3    H231446   5.877   2.326  16.201 -0.4379 -1.6797 -0.3159
 3319TIP3   OH231447   2.061   4.410   0.457  0.2879  0.5462 -0.1582
 3319TIP3    H131448   2.138   4.402   0.400 -1.0607 -1.9880 -1.8409
 3319TIP3    H231449   2.097   4.410   0.545  2.2501 -0.3499 -0.8810
 3320TIP3   OH231450   1.751   6.783  16.599 -0.0480  0.0859  0.4973
 3320TIP3    H131451   1.665   6.742  16.590 -0.0054  0.2422 -0.7918
 3320TIP3    H231452   1.741   6.845  16.671 -1.0967  0.3105  0.1625
 3321TIP3   OH231453   5.002   5.406   2.017  0.0321  0.6881 -0.2894
 3321TIP3    H131454   4.997   5.313   2.038 -0.2061  0.3188 -1.8947
 3321TIP3    H231455   5.086   5.434   2.054  0.2319 -0.2116 -0.0264
 3322TIP3   OH231456   2.869   3.238   2.480  0.1390  0.2976 -0.3117
 3322TIP3    H131457   2.953   3.216   2.439  1.2517 -1.6536  2.6558
 3322TIP3    H231458   2.816   3.160   2.471 -0.0080  0.2414  0.8849
 3323TIP3   OH231459   4.471   3.240   4.010  0.1122 -0.5973 -0.3220
 3323TIP3    H131460   4.495   3.330   4.032  0.1361 -0.7870  0.4586
 3323TIP3    H231461   4.552   3.191   4.020 -0.2201 -0.9552  0.6934
 3324TIP3   OH231462   0.420   6.455   3.673 -0.2063 -0.3622  0.0388
 3324TIP3    H131463   0.423   6.512   3.596 -0.1518  0.0339  0.3296
 3324TIP3    H231464   0.388   6.371   3.640 -2.4636  0.4556 -0.0266
 3325TIP3   OH231465   4.355   5.128   2.891 -0.0307  0.5123  0.2062
 3325TIP3    H131466   4.291   5.079   2.943 -1.1935  0.8205 -0.8893
 3325TIP3    H231467   4.400   5.183   2.955  1.1701 -1.7530  1.4496
 3326TIP3   OH231468   6.176   1.813  16.426 -0.5948 -0.2298 -0.6519
 3326TIP3    H131469   6.123   1.742  16.390 -0.3242 -0.9793  0.4095
 3326TIP3    H231470   6.208   1.860  16.349  0.0656 -1.8701 -1.4005
 3327TIP3   OH231471   3.571   1.663   3.751  0.3340 -0.4560 -0.0352
 3327TIP3    H131472   3.546   1.676   3.660  2.1020  0.7100 -0.4042
 3327TIP3    H231473   3.546   1.572   3.771 -0.6982 -0.4999 -1.4463
 3328TIP3   OH231474   1.158   5.860  13.721  0.1111 -0.0638  0.1225
 3328TIP3    H131475   1.101   5.784  13.723  0.0689 -0.0290  0.3218
 3328TIP3    H231476   1.164   5.884  13.629 -1.0025  0.5350  0.1867
 3329TIP3   OH231477   4.685   4.138   3.285 -0.1379  0.1561 -0.6215
 3329TIP3    H131478   4.781   4.128   3.283  0.0525  1.6585 -0.5307
 3329TIP3    H231479   4.653   4.054   3.315  1.1126 -0.6418 -1.4086
 3330TIP3   OH231480   0.382   6.348   0.262  0.0242 -0.3452  0.2013
 3330TIP3    H131481   0.435   6.377   0.335  2.4061 -1.5641 -0.9345
 3330TIP3    H231482   0.317   6.289   0.301  1.3881 -1.1606  1.3181
 3331TIP3   OH231483   3.963   3.094   4.607  0.2022  0.0267 -0.5130
 3331TIP3    H131484   3.965   3.044   4.526  0.3542 -1.2845  0.2656
 3331TIP3    H231485   3.870   3.107   4.625  0.1390 -0.5523 -0.3973
 3332TIP3   OH231486   1.446   2.860   3.911 -0.1745 -0.0954  0.1563
 3332TIP3    H131487   1.502   2.934   3.887  1.2895 -1.2330 -0.0970
 3332TIP3    H231488   1.363   2.877   3.866 -0.4066  2.1198  1.3017
 3333TIP3   OH231489   5.163   5.605   2.457  0.2651  0.1399  0.0881
 3333TIP3    H131490   5.114   5.524   2.474 -0.2817  0.5972  0.7606
 3333TIP3    H231491   5.101   5.660   2.408  0.6254  0.1678 -0.3421
 3334TIP3   OH231492   2.222   4.739  12.161 -0.0496 -0.0959 -0.0916
 3334TIP3    H131493   2.261   4.682  12.095  0.1669  0.2833 -0.3012
 3334TIP3    H231494   2.283   4.735  12.235  1.7820  2.3979 -1.3104
 3335TIP3   OH231495   6.342   4.934   3.288  0.1128  0.5975 -0.2911
 3335TIP3    H131496   6.341   4.924   3.193  0.4901  0.9980 -0.3376
 3335TIP3    H231497   6.348   4.844   3.321 -4.6577 -0.0865 -0.5012
 3336TIP3   OH231498   1.864   0.435  14.038 -0.8057 -0.3523  0.1670
 3336TIP3    H131499   1.790   0.431  13.978 -0.5830  0.2234 -0.1539
 3336TIP3    H231500   1.826   0.458  14.123 -1.0602 -0.6603  0.1384
 3337TIP3   OH231501   4.536   5.308   0.152  0.2502  0.0149  0.2879
 3337TIP3    H131502   4.462   5.264   0.110  0.9118 -1.1937  0.3800
 3337TIP3    H231503   4.574   5.242   0.209  2.2718  0.1684 -0.8079
 3338TIP3   OH231504   1.651   1.466   3.104  0.0724  0.0623  0.2156
 3338TIP3    H131505   1.657   1.457   3.199  0.5227  0.4775  0.2319
 3338TIP3    H231506   1.730   1.424   3.071  0.7838  1.4080  0.1327
 3339TIP3   OH231507   3.609   2.593   6.337 -0.1371  0.0754  0.1093
 3339TIP3    H131508   3.535   2.590   6.398 -0.1868  0.7096  0.0823
 3339TIP3    H231509   3.655   2.673   6.360  0.6046 -0.3598  0.1920
 3340TIP3   OH231510   5.450   5.545  10.674  0.2418  0.5189 -0.1593
 3340TIP3    H131511   5.528   5.594  10.647  1.5606 -1.6981 -0.6433
 3340TIP3    H231512   5.388   5.613  10.701  2.2013  2.4133 -0.0338
 3341TIP3   OH231513   1.984   5.244   5.391  0.0205  0.0662 -0.0875
 3341TIP3    H131514   1.991   5.259   5.486 -0.4083 -0.0913 -0.0318
 3341TIP3    H231515   1.921   5.172   5.382 -0.3445  0.4332 -0.5166
 3342TIP3   OH231516   5.526   1.635   3.415 -0.3250  0.0885 -0.1818
 3342TIP3    H131517   5.610   1.635   3.368 -0.3748  0.0021 -0.2698
 3342TIP3    H231518   5.488   1.549   3.397  0.8380 -1.0180  2.1201
 3343TIP3   OH231519   6.776   4.765   2.135 -0.3381  0.3515  0.0175
 3343TIP3    H131520   6.841   4.827   2.103  1.3951 -0.6707  1.3435
 3343TIP3    H231521   6.709   4.820   2.177 -0.3429  1.4195 -1.3178
 3344TIP3   OH231522   4.030   6.548  10.764 -0.0080  0.0073  0.6202
 3344TIP3    H131523   3.981   6.552  10.681 -1.3905 -1.9504  1.2749
 3344TIP3    H231524   4.112   6.594  10.745 -0.6082  0.3148 -1.5880
 3345TIP3   OH231525   1.809   3.170   1.825  0.9191 -0.1935  0.5153
 3345TIP3    H131526   1.733   3.127   1.863 -0.9857  1.4008 -1.2716
 3345TIP3    H231527   1.821   3.127   1.741 -1.1612  2.6532 -1.4067
 3346TIP3   OH231528   6.335   5.675   4.219  0.3611 -0.0558 -0.1092
 3346TIP3    H131529   6.354   5.709   4.307 -0.9297  2.4872 -0.7317
 3346TIP3    H231530   6.275   5.739   4.181 -0.9424 -2.2750 -2.0435
 3347TIP3   OH231531   0.813   0.459  11.131 -0.2564  0.1483  0.2484
 3347TIP3    H131532   0.890   0.430  11.179 -1.0474 -1.1554  0.7950
 3347TIP3    H231533   0.778   0.379  11.091 -0.9204  0.8272 -0.5876
 3348TIP3   OH231534   3.891   5.378  10.339 -0.5667  0.1297 -0.4001
 3348TIP3    H131535   3.839   5.419  10.269 -0.8800 -0.0442 -0.2668
 3348TIP3    H231536   3.963   5.335  10.293 -1.2946 -0.7824 -0.6901
 3349TIP3   OH231537   2.916   2.739   2.707 -0.2662  0.5915 -0.6587
 3349TIP3    H131538   2.849   2.806   2.717 -1.5956 -0.8937  1.2178
 3349TIP3    H231539   2.892   2.692   2.628 -0.2622  1.2821 -1.0825
 3350TIP3   OH231540   0.722   4.311   5.379  0.1031  0.5930  0.0846
 3350TIP3    H131541   0.704   4.378   5.444 -0.5589 -1.2533  1.9269
 3350TIP3    H231542   0.715   4.228   5.427 -0.5625 -0.8851 -2.3647
 3351TIP3   OH231543   1.528   0.486  13.830  0.1528 -0.1540 -0.1416
 3351TIP3    H131544   1.552   0.557  13.770 -2.3971  1.1353  0.2354
 3351TIP3    H231545   1.460   0.437  13.784 -0.2828 -0.4773  0.8124
 3352TIP3   OH231546   2.696   5.133   6.313 -0.3964  0.1642  0.1309
 3352TIP3    H131547   2.768   5.071   6.307 -0.1273  0.3893  0.8923
 3352TIP3    H231548   2.619   5.083   6.287  0.1436  0.1496 -1.5034
 3353TIP3   OH231549   3.864   2.047  11.742 -0.2663 -0.6125 -0.5662
 3353TIP3    H131550   3.878   2.018  11.833 -1.0087  0.1896 -0.1824
 3353TIP3    H231551   3.909   1.982  11.689 -0.8438 -1.7841  0.3289
 3354TIP3   OH231552   1.010   5.096   4.287 -0.3594  0.9497  0.0170
 3354TIP3    H131553   1.067   5.108   4.364 -0.6800  0.3060  0.3619
 3354TIP3    H231554   1.022   5.004   4.263 -3.1227  0.0213  1.6426
 3355TIP3   OH231555   1.002   1.584  13.648 -0.4256  0.2731 -0.0539
 3355TIP3    H131556   0.962   1.584  13.562  1.1414 -0.2524 -0.8226
 3355TIP3    H231557   1.061   1.508  13.647  0.7953  1.1714  0.8919
 3356TIP3   OH231558   1.755   2.150   2.027  0.3086 -0.4279  0.2977
 3356TIP3    H131559   1.739   2.077   2.086  0.4633 -1.0477 -0.4169
 3356TIP3    H231560   1.804   2.113   1.954  0.8040  0.4854  0.1437
 3357TIP3   OH231561   6.096   5.437  14.939  0.2032  0.6799  0.0778
 3357TIP3    H131562   6.191   5.436  14.946  0.1190  1.7317  2.5645
 3357TIP3    H231563   6.073   5.529  14.926 -0.4620  0.3132 -1.5252
 3358TIP3   OH231564   0.556   0.745  15.510 -0.4626  0.2085 -0.0390
 3358TIP3    H131565   0.474   0.701  15.489 -1.0546  0.9212  0.7012
 3358TIP3    H231566   0.580   0.711  15.597 -0.1221  0.2044 -0.1331
 3359TIP3   OH231567   0.715   4.013   2.201  0.7017 -0.2847  0.0204
 3359TIP3    H131568   0.677   4.071   2.135  0.4213 -1.3924 -0.8278
 3359TIP3    H231569   0.786   4.063   2.240 -0.0949  0.9423 -0.0613
 3360TIP3   OH231570   2.222   1.286  12.996 -0.2240 -0.0521  0.0091
 3360TIP3    H131571   2.259   1.344  12.929  0.4356 -1.3612 -0.7881
 3360TIP3    H231572   2.184   1.214  12.947  0.6245 -1.2451  1.0467
 3361TIP3   OH231573   3.005   3.767  12.537 -0.4893  0.1091  0.6124
 3361TIP3    H131574   2.940   3.730  12.597 -2.6667  1.4268 -0.7726
 3361TIP3    H231575   3.036   3.846  12.580 -1.6165  0.7418  0.3025
 3362TIP3   OH231576   1.392   3.702   5.556  0.2167  0.2018 -0.1450
 3362TIP3    H131577   1.448   3.625   5.548  0.8498  0.5112  1.0032
 3362TIP3    H231578   1.354   3.695   5.644 -0.3037  0.8085 -0.3155
 3363TIP3   OH231579   1.966   5.734   2.584 -0.1132  0.3129 -0.4869
 3363TIP3    H131580   1.936   5.795   2.515 -0.5856 -0.2539 -0.7892
 3363TIP3    H231581   2.054   5.764   2.605 -0.4036  1.2179 -0.5086
 3364TIP3   OH231582   6.096   4.555  11.490 -0.3676 -0.5369  0.2727
 3364TIP3    H131583   6.104   4.461  11.472 -1.8774 -1.0215  1.8084
 3364TIP3    H231584   6.184   4.590  11.477  0.1484 -2.0978 -0.6870
 3365TIP3   OH231585   6.257   1.100  12.774  0.2917  0.2972 -0.1973
 3365TIP3    H131586   6.255   1.074  12.866  3.7138  3.5961  1.0050
 3365TIP3    H231587   6.335   1.058  12.739  0.7411  1.5494 -0.7265
 3366TIP3   OH231588   5.443   4.166   3.884 -0.1879  0.2163  0.2859
 3366TIP3    H131589   5.382   4.147   3.955  0.7846  1.9498  1.6619
 3366TIP3    H231590   5.525   4.124   3.911 -0.1680 -0.2784 -0.5049
 3367TIP3   OH231591   1.226   5.505  15.449 -0.4885 -0.0206 -0.4032
 3367TIP3    H131592   1.244   5.413  15.469  0.4597  0.2011 -0.1969
 3367TIP3    H231593   1.206   5.545  15.534 -3.6467 -0.5648 -0.7511
 3368TIP3   OH231594   4.918   0.688   3.849  0.5442 -0.5551  0.5801
 3368TIP3    H131595   4.877   0.676   3.764 -0.7789  0.6167  1.0066
 3368TIP3    H231596   5.011   0.697   3.830  0.0753  1.8660 -1.0136
 3369TIP3   OH231597   6.621   6.711   4.079 -0.0612  0.1008  0.4424
 3369TIP3    H131598   6.606   6.771   4.153  0.6378  1.1714 -0.2525
 3369TIP3    H231599   6.542   6.718   4.026 -0.1496  0.1032  0.5755
 3370TIP3   OH231600   5.680   1.544   6.239  0.3079  0.0561 -0.0667
 3370TIP3    H131601   5.685   1.602   6.315 -0.2137  1.3586 -0.9868
 3370TIP3    H231602   5.601   1.493   6.252  1.1914 -1.0458  1.1440
 3371TIP3   OH231603   5.503   2.704   3.523  0.1948  0.3758  0.0733
 3371TIP3    H131604   5.445   2.712   3.598 -0.4279  2.6695 -0.5820
 3371TIP3    H231605   5.544   2.789   3.515  0.0439  0.2902 -2.3382
 3372TIP3   OH231606   3.019   1.468  13.383  0.0430 -0.0118  0.2117
 3372TIP3    H131607   2.974   1.544  13.347  0.7336  1.6752  2.6360
 3372TIP3    H231608   3.009   1.477  13.478  0.1682 -2.9766  0.6065
 3373TIP3   OH231609   5.292   2.505   1.130 -0.8549 -0.0314 -0.3769
 3373TIP3    H131610   5.249   2.517   1.214  0.8949 -1.0172  0.7051
 3373TIP3    H231611   5.376   2.464   1.151 -0.6186 -0.8444 -2.6495
 3374TIP3   OH231612   2.355   4.227   5.366  0.4323  0.3581 -1.0246
 3374TIP3    H131613   2.304   4.308   5.361  0.6711  0.7300  1.2895
 3374TIP3    H231614   2.327   4.186   5.448  2.6420 -0.2334 -0.4850
 3375TIP3   OH231615   1.232   4.402   2.052  0.0819 -0.2039 -0.1220
 3375TIP3    H131616   1.145   4.426   2.019 -0.1685 -0.7880  0.1045
 3375TIP3    H231617   1.280   4.374   1.974 -0.4092 -1.2870 -0.0428
 3376TIP3   OH231618   0.977   2.992   0.671 -0.4495  0.0782 -1.0523
 3376TIP3    H131619   0.966   3.035   0.755 -1.8160 -2.8717  0.4288
 3376TIP3    H231620   0.893   2.949   0.655  1.2233 -3.3632 -1.4613
 3377TIP3   OH231621   6.685   2.000   5.252 -0.4581 -0.1769  0.1530
 3377TIP3    H131622   6.613   1.940   5.274 -1.2506  0.9346  0.6398
 3377TIP3    H231623   6.670   2.077   5.305 -0.6299  1.3108 -1.9324
 3378TIP3   OH231624   1.741   0.648   5.866  0.0845  0.2301 -0.1318
 3378TIP3    H131625   1.658   0.649   5.914 -0.8817  0.5037 -1.7066
 3378TIP3    H231626   1.763   0.740   5.853  1.8040  0.1933  2.0998
 3379TIP3   OH231627   4.669   6.315  11.151 -1.3758 -0.1619 -0.2295
 3379TIP3    H131628   4.647   6.259  11.076 -2.3824  1.1407 -0.9650
 3379TIP3    H231629   4.749   6.360  11.124 -0.9008 -0.7940  0.1119
 3380TIP3   OH231630   2.270   5.509  15.914  0.3471  0.6923 -0.1004
 3380TIP3    H131631   2.263   5.581  15.851 -1.8901  1.1274  0.5661
 3380TIP3    H231632   2.245   5.548  15.998 -0.4909 -0.7646  0.3479
 3381TIP3   OH231633   4.221   2.968   4.072 -0.2819 -0.7363 -0.3013
 3381TIP3    H131634   4.250   2.996   3.986  0.5296  0.2612  0.2777
 3381TIP3    H231635   4.126   2.979   4.070 -0.2432 -0.4903 -0.9803
 3382TIP3   OH231636   6.292   4.865  16.854  0.0265  0.2193 -0.4569
 3382TIP3    H131637   6.305   4.951  16.893 -0.3108  0.3533 -0.6411
 3382TIP3    H231638   6.365   4.813  16.887  1.2168  1.0409 -1.6782
 3383TIP3   OH231639   4.273   0.966   5.357  0.6974  0.1406 -0.2094
 3383TIP3    H131640   4.239   0.882   5.324 -1.3375  0.9250 -0.2390
 3383TIP3    H231641   4.228   1.032   5.304  0.8960  1.3004  1.0243
 3384TIP3   OH231642   3.526   2.737  13.237 -0.0278  0.2454  0.3432
 3384TIP3    H131643   3.490   2.649  13.238 -1.3033  0.7370  1.7152
 3384TIP3    H231644   3.484   2.781  13.311  0.3982  2.0752 -0.4394
 3385TIP3   OH231645   0.198   3.534   1.963  0.1657  0.2508 -0.4780
 3385TIP3    H131646   0.290   3.531   1.937  0.2141  1.4998 -0.5218
 3385TIP3    H231647   0.159   3.602   1.908 -1.1318 -1.1787 -1.4330
 3386TIP3   OH231648   2.132   2.619   6.780  0.0372 -0.0231  0.2972
 3386TIP3    H131649   2.126   2.538   6.729 -0.7063 -0.1827  0.6281
 3386TIP3    H231650   2.218   2.654   6.758  0.3540 -0.8773  0.1068
 3387TIP3   OH231651   0.979   2.866  14.171  0.2718  0.3654  0.0550
 3387TIP3    H131652   0.925   2.845  14.095  0.4110  0.7203 -0.1399
 3387TIP3    H231653   1.057   2.812  14.161  0.3148  0.4540 -0.0794
 3388TIP3   OH231654   2.134   5.247   2.332  0.1875 -0.2908  0.1597
 3388TIP3    H131655   2.134   5.155   2.306  1.4729  0.5035 -3.2918
 3388TIP3    H231656   2.212   5.257   2.386 -0.7916 -1.4577  1.8502
 3389TIP3   OH231657   6.773   6.138  12.495  0.4374  0.6090 -0.5034
 3389TIP3    H131658   6.827   6.142  12.574  0.6938  0.3174 -0.6602
 3389TIP3    H231659   6.759   6.229  12.470  0.3047  0.7045 -0.0908
 3390TIP3   OH231660   6.691   2.497   3.906  0.1514  0.2573 -0.5042
 3390TIP3    H131661   6.658   2.538   3.986 -2.5507 -1.0926 -0.8376
 3390TIP3    H231662   6.732   2.416   3.936  0.4661  0.4567 -0.3820
 3391TIP3   OH231663   2.544   1.799  16.426 -0.2968  0.5490 -0.4061
 3391TIP3    H131664   2.587   1.884  16.425 -0.4272  0.6136 -0.5337
 3391TIP3    H231665   2.468   1.811  16.482  0.8014 -0.0338  1.2912
 3392TIP3   OH231666   5.302   5.406   5.336 -0.6267 -0.5087 -0.4368
 3392TIP3    H131667   5.296   5.446   5.249 -3.5927 -0.7885 -0.4585
 3392TIP3    H231668   5.265   5.319   5.326 -1.2501 -0.4660  1.1380
 3393TIP3   OH231669   3.474   0.008  12.179 -0.3192  0.0571 -0.0425
 3393TIP3    H131670   3.553   0.051  12.146 -0.9377 -0.7737 -2.8564
 3393TIP3    H231671   3.506  -0.046  12.252  1.3028  1.3639  0.2796
 3394TIP3   OH231672   3.619   0.322   1.442 -0.3270  0.1350  0.1580
 3394TIP3    H131673   3.565   0.386   1.488  0.1955  0.6406  0.0748
 3394TIP3    H231674   3.635   0.253   1.507 -0.7367  0.1760  0.3056
 3395TIP3   OH231675   4.544   6.289  11.495 -0.0971 -0.2547 -0.3961
 3395TIP3    H131676   4.631   6.309  11.529  0.0524 -1.9515  0.3193
 3395TIP3    H231677   4.498   6.248  11.568 -0.7746 -1.2776 -1.3673
 3396TIP3   OH231678   2.563   0.246   0.070  0.4125 -0.6492 -0.2499
 3396TIP3    H131679   2.632   0.180   0.064  1.0275 -0.2665  1.7848
 3396TIP3    H231680   2.493   0.203   0.120  0.3197 -0.1803  0.0326
 3397TIP3   OH231681   3.026   0.717  13.096  0.5169 -0.3787  0.1140
 3397TIP3    H131682   2.999   0.773  13.023  2.9926  1.0188  0.1503
 3397TIP3    H231683   3.121   0.709  13.086  0.7824 -1.0538  2.5426
 3398TIP3   OH231684   5.657   1.488   4.808 -0.1334  0.2350 -0.7347
 3398TIP3    H131685   5.642   1.429   4.882 -1.1633 -0.1624 -1.2406
 3398TIP3    H231686   5.663   1.575   4.849 -2.0521  0.1961 -0.2617
 3399TIP3   OH231687   4.301   0.127   5.236 -0.3015  0.0736  0.1472
 3399TIP3    H131688   4.240   0.166   5.173  0.7673  0.6762 -0.5363
 3399TIP3    H231689   4.274   0.035   5.242 -0.1931 -0.0934 -1.4888
 3400TIP3   OH231690   0.586   1.411   6.138  0.2772 -0.0262 -0.0089
 3400TIP3    H131691   0.524   1.406   6.211 -0.6476  0.3536 -0.7420
 3400TIP3    H231692   0.672   1.410   6.179 -0.2356  1.5809  1.1894
 3401TIP3   OH231693   5.121   5.520  11.120 -0.0627 -0.1411 -0.4028
 3401TIP3    H131694   5.137   5.597  11.066  0.7141 -0.6874 -0.9752
 3401TIP3    H231695   5.098   5.555  11.206 -1.0911  0.7309 -1.0161
 3402TIP3   OH231696   4.887   1.695  13.156  0.1713 -0.2368  0.3430
 3402TIP3    H131697   4.841   1.715  13.237  0.2478 -0.2878  0.3990
 3402TIP3    H231698   4.908   1.781  13.118 -2.1647 -0.1461 -0.9399
 3403TIP3   OH231699   1.679   1.929   4.890 -0.2608 -0.5935 -0.4195
 3403TIP3    H131700   1.650   1.974   4.969 -2.0024 -0.4760 -1.0708
 3403TIP3    H231701   1.746   1.868   4.920  1.0873  1.3438  0.7048
 3404TIP3   OH231702   4.232   0.149   3.179  0.2957  0.2484  0.0042
 3404TIP3    H131703   4.216   0.241   3.157 -1.5051 -0.5182 -2.3365
 3404TIP3    H231704   4.319   0.130   3.142  0.6173  0.9597  0.3857
 3405TIP3   OH231705   0.487   5.016   3.141  0.2652 -0.6151 -0.1594
 3405TIP3    H131706   0.473   4.933   3.187  1.8377  0.5736  2.6954
 3405TIP3    H231707   0.582   5.024   3.134  0.1911  1.3265  0.4507
 3406TIP3   OH231708   5.414   5.680   2.336 -0.0044 -0.1780  0.3028
 3406TIP3    H131709   5.339   5.667   2.393 -0.5931 -2.7858 -0.8901
 3406TIP3    H231710   5.376   5.715   2.255  0.6615  2.2849  0.9653
 3407TIP3   OH231711   1.478   1.108   3.769 -0.1677 -0.2340 -0.6955
 3407TIP3    H131712   1.457   1.190   3.725  2.5300  0.9084 -0.0525
 3407TIP3    H231713   1.523   1.055   3.702  0.8517  0.1051 -0.2986
 3408TIP3   OH231714   4.416   3.245   1.486  0.3259  0.1830 -0.4875
 3408TIP3    H131715   4.401   3.245   1.581  2.1136  0.6390 -0.1615
 3408TIP3    H231716   4.386   3.158   1.457  1.7134 -0.8051  0.8662
 3409TIP3   OH231717   1.770   1.063  15.339  0.0383  0.1605 -0.0613
 3409TIP3    H131718   1.798   0.988  15.285 -0.2270  1.3425 -1.9550
 3409TIP3    H231719   1.843   1.079  15.398  0.2146 -1.4058  0.1826
 3410TIP3   OH231720   0.763   4.008   3.636  0.2312 -0.4345 -0.8795
 3410TIP3    H131721   0.847   3.987   3.679  0.1507  0.2128 -0.3923
 3410TIP3    H231722   0.703   3.941   3.669  0.6402 -1.1460 -1.5384
 3411TIP3   OH231723   2.551   4.719  13.180  0.6460  0.1106 -0.4619
 3411TIP3    H131724   2.583   4.630  13.197  1.9594  0.2171 -2.1214
 3411TIP3    H231725   2.606   4.775  13.236  1.8136  0.0870 -1.5399
 3412TIP3   OH231726   6.813   4.756  16.532 -0.6033 -0.3214  0.2106
 3412TIP3    H131727   6.785   4.812  16.605 -1.1723  0.2415 -0.4153
 3412TIP3    H231728   6.901   4.727  16.556  1.4858  3.9980 -1.0909
 3413TIP3   OH231729   4.669   0.297  13.129 -0.1993 -0.0211  0.7111
 3413TIP3    H131730   4.667   0.388  13.098  0.9438  0.0321  0.7286
 3413TIP3    H231731   4.671   0.306  13.225  3.7021  0.1696  0.7837
 3414TIP3   OH231732   6.504   2.215  15.160  1.2337  0.0282  0.3092
 3414TIP3    H131733   6.482   2.287  15.100  0.5014 -0.0064  0.5350
 3414TIP3    H231734   6.537   2.259  15.238  0.0637  0.1503  0.7419
 3415TIP3   OH231735   3.107   5.708   2.210  0.1226 -0.0324 -0.7914
 3415TIP3    H131736   3.109   5.680   2.118 -0.1440 -0.1582 -0.7590
 3415TIP3    H231737   3.040   5.776   2.213 -1.2208 -1.3416 -0.3223
 3416TIP3   OH231738   2.154   2.835   2.281  0.5620  0.5540  0.1647
 3416TIP3    H131739   2.174   2.928   2.268  0.3795  0.3899 -1.5157
 3416TIP3    H231740   2.186   2.815   2.369  1.8047  1.8761  0.0370
 3417TIP3   OH231741   2.566   4.495  12.340 -0.6534 -0.2992 -0.4929
 3417TIP3    H131742   2.658   4.473  12.355 -0.4803 -2.3789 -3.6360
 3417TIP3    H231743   2.566   4.545  12.258 -2.3598 -1.2556 -1.1367
 3418TIP3   OH231744   0.233   6.829   5.320 -0.4421 -0.3136  0.6382
 3418TIP3    H131745   0.269   6.898   5.375  0.1982 -0.6105  0.5988
 3418TIP3    H231746   0.140   6.826   5.343 -0.8750  1.7040 -0.5360
 3419TIP3   OH231747   6.520   5.560   4.507  0.2464 -0.3306 -0.2529
 3419TIP3    H131748   6.531   5.585   4.599  1.0556  0.8446 -0.6325
 3419TIP3    H231749   6.589   5.496   4.491 -0.5090 -1.2743  0.1924
 3420TIP3   OH231750   0.143   6.340   0.077  0.1989  0.7467 -0.1641
 3420TIP3    H131751   0.167   6.275   0.144  0.7507  0.2419 -0.8351
 3420TIP3    H231752   0.111   6.415   0.127  2.0918  1.0034  0.7549
 3421TIP3   OH231753   2.466   1.253  14.356 -0.2072  0.3782 -0.1074
 3421TIP3    H131754   2.441   1.174  14.403 -0.8944 -0.7256 -2.1969
 3421TIP3    H231755   2.528   1.298  14.414 -0.0869 -1.5026  1.2775
 3422TIP3   OH231756   3.385   3.264   2.242 -0.0144  0.2772 -0.9113
 3422TIP3    H131757   3.322   3.309   2.299  0.7753 -0.6231  0.7488
 3422TIP3    H231758   3.341   3.182   2.218 -1.1175  1.4511 -3.2572
 3423TIP3   OH231759   1.344   3.321   3.860  0.6502  0.1706  0.2373
 3423TIP3    H131760   1.325   3.313   3.954  2.9977 -1.5056  0.6536
 3423TIP3    H231761   1.381   3.408   3.850 -0.4507  0.7125  0.6634
 3424TIP3   OH231762   5.927   3.406   1.834 -0.5531  0.2786  0.2333
 3424TIP3    H131763   5.840   3.433   1.806  0.0806  3.7580  1.1014
 3424TIP3    H231764   5.987   3.444   1.769  0.4053 -1.2308  0.1774
 3425TIP3   OH231765   1.560   1.941   0.827  0.7400  0.2416  0.1247
 3425TIP3    H131766   1.584   1.862   0.875 -0.4619 -0.4434 -0.3495
 3425TIP3    H231767   1.504   1.990   0.887 -0.2443 -0.3099 -0.3159
 3426TIP3   OH231768   3.112   2.801   3.169  0.0506  0.4083 -0.1072
 3426TIP3    H131769   3.072   2.885   3.190 -1.9500 -0.2649 -0.9742
 3426TIP3    H231770   3.048   2.736   3.199  1.4033 -0.8242  0.2595
 3427TIP3   OH231771   1.602   6.818   3.228 -0.2297 -0.1799 -0.2541
 3427TIP3    H131772   1.649   6.855   3.302 -1.3453  1.0580 -0.1285
 3427TIP3    H231773   1.555   6.892   3.189 -1.3001 -1.1730 -0.9387
 3428TIP3   OH231774   4.587   1.862   2.188  0.5264  0.2443 -0.4824
 3428TIP3    H131775   4.628   1.777   2.174  0.6780  0.3708 -0.8125
 3428TIP3    H231776   4.604   1.882   2.281  1.2106  0.2972 -0.6157
 3429TIP3   OH231777   1.960   6.034   3.214  0.7896 -0.0737  0.0616
 3429TIP3    H131778   1.953   6.089   3.292 -0.6464  1.1275 -0.8558
 3429TIP3    H231779   1.929   5.948   3.243  0.8796  0.1840  0.9674
 3430TIP3   OH231780   2.259   6.416  10.863 -0.6399  0.3345 -0.0400
 3430TIP3    H131781   2.220   6.357  10.799 -0.0602  0.7906 -0.8261
 3430TIP3    H231782   2.185   6.465  10.900 -1.0133 -0.1937 -0.0831
 3431TIP3   OH231783   2.338   2.865  16.245 -0.5574  0.6157 -0.1950
 3431TIP3    H131784   2.429   2.850  16.220 -1.2225 -1.4795 -1.6767
 3431TIP3    H231785   2.314   2.948  16.206  0.7028  1.1907  0.2245
 3432TIP3   OH231786   3.758   1.140   6.184  0.0720 -0.5343  0.3944
 3432TIP3    H131787   3.678   1.185   6.157  0.4195 -0.0466  0.1617
 3432TIP3    H231788   3.772   1.167   6.274  0.9143  0.7787 -0.1003
 3433TIP3   OH231789   6.376   6.679   4.761 -1.0216  0.0437  0.6278
 3433TIP3    H131790   6.393   6.706   4.851 -1.2580  1.0233  0.3894
 3433TIP3    H231791   6.459   6.691   4.716 -0.5739 -1.6046  0.9763
 3434TIP3   OH231792   6.147   3.364   0.317  0.5769  0.2584  0.0114
 3434TIP3    H131793   6.070   3.334   0.269  1.0011 -0.4013 -0.2834
 3434TIP3    H231794   6.216   3.367   0.251  0.9111  0.4024  0.3649
 3435TIP3   OH231795   2.825   2.150   1.915 -0.2581  0.0896  0.0371
 3435TIP3    H131796   2.837   2.056   1.929 -0.7992 -0.1854 -1.1593
 3435TIP3    H231797   2.730   2.160   1.910 -0.2568  0.9099  1.3861
 3436TIP3   OH231798   2.531   5.971  11.474 -0.1939  0.0385  0.3747
 3436TIP3    H131799   2.540   5.945  11.383 -1.3137 -1.4915  0.6597
 3436TIP3    H231800   2.452   5.926  11.505 -0.3584  1.2447  1.8520
 3437TIP3   OH231801   5.445   5.072   5.960  0.1399 -0.0186  0.0555
 3437TIP3    H131802   5.403   5.020   6.028  2.3645 -1.3701  0.4760
 3437TIP3    H231803   5.455   5.012   5.886 -0.5668  0.9084 -0.8268
 3438TIP3   OH231804   5.716   1.920   5.699  0.0754 -0.1309 -0.3535
 3438TIP3    H131805   5.697   2.004   5.742  1.1051 -0.9159  1.7645
 3438TIP3    H231806   5.635   1.869   5.709  0.3906 -0.3999  0.9494
 3439TIP3   OH231807   5.236   4.125  16.123 -0.1958  0.6875 -0.5149
 3439TIP3    H131808   5.174   4.125  16.049  0.1363  1.3953 -0.8003
 3439TIP3    H231809   5.237   4.216  16.153 -1.3763  0.1689  1.2734
 3440TIP3   OH231810   5.682   0.557   4.380  0.2640 -0.2642  0.3926
 3440TIP3    H131811   5.651   0.540   4.291  1.1288  1.4646 -0.2816
 3440TIP3    H231812   5.605   0.593   4.425  0.2931  0.5351 -0.1878
 3441TIP3   OH231813   5.362   1.819  16.022 -0.3885  0.0773 -0.0722
 3441TIP3    H131814   5.305   1.785  15.954  0.8674  2.6633 -2.6122
 3441TIP3    H231815   5.446   1.834  15.979  0.9795  0.3816  2.4585
 3442TIP3   OH231816   0.798   4.592  12.270  0.4141  0.0952 -0.1513
 3442TIP3    H131817   0.788   4.518  12.210 -0.4801  0.0682  0.0169
 3442TIP3    H231818   0.855   4.653  12.224 -1.5375  0.8014 -1.7394
 3443TIP3   OH231819   6.419   2.503  10.889  0.1786 -0.4614  0.4054
 3443TIP3    H131820   6.415   2.595  10.915  0.4707 -0.5876  0.9355
 3443TIP3    H231821   6.505   2.493  10.848 -0.4105 -0.1930 -0.9222
 3444TIP3   OH231822   6.031   6.796  15.324  0.3175  0.1551  0.1333
 3444TIP3    H131823   6.126   6.798  15.322  0.3012  1.4671 -0.4810
 3444TIP3    H231824   6.008   6.709  15.292  1.3072 -0.8355  1.9529
 3445TIP3   OH231825   2.164   6.631  13.087 -0.0642  0.5573  0.0857
 3445TIP3    H131826   2.187   6.553  13.037 -1.3821  1.3576 -1.8805
 3445TIP3    H231827   2.171   6.703  13.025 -3.5837  1.3610  0.4305
 3446TIP3   OH231828   2.136   1.303  15.642 -0.0686  0.2810  0.5778
 3446TIP3    H131829   2.196   1.236  15.608  1.1844  1.7197 -0.1583
 3446TIP3    H231830   2.123   1.279  15.733  1.6359 -0.0990  0.7591
 3447TIP3   OH231831   6.576   2.986   1.188  0.0035 -0.3072  0.0103
 3447TIP3    H131832   6.504   3.020   1.242  0.1374  0.0285 -0.0175
 3447TIP3    H231833   6.571   2.891   1.199  0.5375 -0.2133  1.2670
 3448TIP3   OH231834   6.782   1.154   5.642  1.3725  0.7189  0.3579
 3448TIP3    H131835   6.823   1.141   5.728  0.2505 -0.0851  0.7961
 3448TIP3    H231836   6.720   1.226   5.657 -0.3326 -0.7847  0.8001
 3449TIP3   OH231837   3.130   2.804  11.744 -0.2165 -0.1297  0.0431
 3449TIP3    H131838   3.105   2.816  11.652 -2.3435 -1.3100  0.3994
 3449TIP3    H231839   3.058   2.842  11.793 -0.8307 -2.5053  1.1573
 3450TIP3   OH231840   4.518   1.251  14.946 -0.2818 -0.1386 -1.0509
 3450TIP3    H131841   4.512   1.200  15.027 -0.3178 -1.2219 -1.7186
 3450TIP3    H231842   4.429   1.251  14.911 -0.6854  1.9708 -0.1363
 3451TIP3   OH231843   2.596   1.514   4.998  0.2818  0.0733 -0.0070
 3451TIP3    H131844   2.641   1.553   4.923  0.9059 -0.9054 -0.1667
 3451TIP3    H231845   2.530   1.456   4.959 -0.4912  0.7877  0.2196
 3452TIP3   OH231846   1.206   2.781   0.055  0.0612 -0.2840  0.2963
 3452TIP3    H131847   1.234   2.772   0.146  0.7066 -0.2538  0.1048
 3452TIP3    H231848   1.217   2.694   0.018  0.0865 -0.2258  0.1663
 3453TIP3   OH231849   1.117   3.063  16.750  0.2744 -0.1210  0.1084
 3453TIP3    H131850   1.087   2.974  16.765 -0.4174  0.0467 -0.2890
 3453TIP3    H231851   1.122   3.101  16.838 -0.7207 -0.1343  0.1800
 3454TIP3   OH231852   1.637   6.467  15.139  0.8050 -0.2916 -0.5281
 3454TIP3    H131853   1.615   6.529  15.209 -1.0131 -3.1141  1.6298
 3454TIP3    H231854   1.602   6.508  15.059 -0.7498  1.2639  0.8686
 3455TIP3   OH231855   4.095   6.601   1.440  0.1624 -0.3853 -0.3767
 3455TIP3    H131856   4.058   6.689   1.433  0.0344 -0.3910  0.1988
 3455TIP3    H231857   4.043   6.558   1.507  1.3204 -0.3423  0.5737
 3456TIP3   OH231858   3.199   6.027  10.979  0.2481 -0.3729 -0.2140
 3456TIP3    H131859   3.109   6.022  10.945 -0.1475 -2.2097  0.9697
 3456TIP3    H231860   3.252   6.049  10.902 -1.2340  1.2422 -0.8545
 3457TIP3   OH231861   6.484   2.426  14.990 -0.0277  0.3068  0.4273
 3457TIP3    H131862   6.464   2.417  14.897 -0.6847  0.7325  0.5180
 3457TIP3    H231863   6.578   2.445  14.993 -0.0163  0.3674 -0.1493
 3458TIP3   OH231864   5.134   6.068  16.887 -0.1709 -0.3483 -0.0275
 3458TIP3    H131865   5.154   6.147  16.939  0.5587 -0.9592  0.6549
 3458TIP3    H231866   5.111   6.002  16.952 -2.0244 -0.3851 -0.6692
 3459TIP3   OH231867   1.441   3.836   5.075  0.2363  0.0379 -0.3090
 3459TIP3    H131868   1.520   3.794   5.110 -1.1261 -2.2271  0.3279
 3459TIP3    H231869   1.422   3.906   5.137  1.1218 -0.0904  0.1314
 3460TIP3   OH231870   4.690   2.742  16.299 -0.1330 -0.3469  0.2031
 3460TIP3    H131871   4.596   2.758  16.295 -0.0394  0.2493  0.2652
 3460TIP3    H231872   4.698   2.647  16.303 -0.7627 -0.3736  1.0406
 3461TIP3   OH231873   2.285   2.181   5.889  0.2728  0.1750  0.3410
 3461TIP3    H131874   2.311   2.172   5.981  0.6886  0.4683  0.2554
 3461TIP3    H231875   2.289   2.092   5.854 -0.2129  0.0094  0.6887
 3462TIP3   OH231876   5.453   1.587   2.196 -0.3871 -0.5350  0.5201
 3462TIP3    H131877   5.441   1.600   2.102  1.6758  0.7955  0.3664
 3462TIP3    H231878   5.429   1.495   2.211 -1.4101 -0.5766 -1.1641
 3463TIP3   OH231879   5.858   1.944  12.876 -0.1521 -0.3024  0.1023
 3463TIP3    H131880   5.867   2.037  12.855 -0.5259 -0.2015  0.3923
 3463TIP3    H231881   5.851   1.901  12.791 -0.0421 -0.0591 -0.0302
 3464TIP3   OH231882   5.601   0.766   6.260  0.3385  0.3445  0.4735
 3464TIP3    H131883   5.682   0.754   6.309  0.6986  0.2913 -0.1141
 3464TIP3    H231884   5.622   0.835   6.196 -0.1864  0.5800  0.5500
 3465TIP3   OH231885   2.868   3.586   1.599  0.5450  0.3368  0.4100
 3465TIP3    H131886   2.898   3.630   1.520  0.4210  2.2983  1.4025
 3465TIP3    H231887   2.921   3.624   1.669  0.4895 -1.1821  1.3240
 3466TIP3   OH231888   2.912   0.833   3.176 -0.2192 -0.3266 -0.2308
 3466TIP3    H131889   2.898   0.781   3.255 -2.3879  1.9704  1.0584
 3466TIP3    H231890   2.998   0.874   3.189 -0.2057 -0.5968  0.5748
 3467TIP3   OH231891   3.735   3.040   1.792  0.4107  0.1213  0.4981
 3467TIP3    H131892   3.803   2.974   1.780  1.0629  0.6655  1.1345
 3467TIP3    H231893   3.743   3.066   1.883  0.5244  1.4770  0.1202
 3468TIP3   OH231894   2.974   5.427   3.698  0.4098  0.5306 -0.3354
 3468TIP3    H131895   3.003   5.376   3.774 -5.5818 -0.9246  1.5952
 3468TIP3    H231896   2.956   5.514   3.734 -2.4390 -0.1614  0.1769
 3469TIP3   OH231897   6.335   3.935   3.724 -0.3493 -0.0642  0.0279
 3469TIP3    H131898   6.420   3.930   3.679 -0.3035  1.3415 -0.1059
 3469TIP3    H231899   6.271   3.939   3.654 -0.3631  0.9293  0.0834
 3470TIP3   OH231900   4.973   6.522   0.543  0.1001 -0.0262  0.0797
 3470TIP3    H131901   4.948   6.478   0.624 -0.5342 -1.5923 -0.9109
 3470TIP3    H231902   4.920   6.479   0.475  2.2731 -0.4015 -1.4852
 3471TIP3   OH231903   1.705   1.219  14.520  0.3560 -0.3074 -0.3740
 3471TIP3    H131904   1.734   1.310  14.517  0.3534 -0.3027 -0.2495
 3471TIP3    H231905   1.627   1.220  14.577 -0.5756 -0.1268 -1.6149
 3472TIP3   OH231906   4.228   5.930   5.436 -0.7291  0.6427  0.5000
 3472TIP3    H131907   4.308   5.903   5.482  0.6455  1.7189 -1.1156
 3472TIP3    H231908   4.174   5.851   5.433  1.6455 -1.0566 -1.0754
 3473TIP3   OH231909   2.693   0.741   3.755  0.2217  0.6673 -0.2601
 3473TIP3    H131910   2.680   0.703   3.842 -0.6066 -0.1425 -0.7146
 3473TIP3    H231911   2.763   0.805   3.767  1.6922 -1.0093  0.5544
 3474TIP3   OH231912   3.330   5.992   5.392  0.3254 -0.0262  0.1109
 3474TIP3    H131913   3.342   6.086   5.382  0.9862 -0.0310  0.7821
 3474TIP3    H231914   3.237   5.978   5.376  0.6981  0.3308 -2.9801
 3475TIP3   OH231915   0.574   0.810  15.080  0.1210 -0.7328  0.3230
 3475TIP3    H131916   0.563   0.756  15.001  1.6226 -0.3854 -0.1595
 3475TIP3    H231917   0.595   0.897  15.046  2.7568 -1.0000  1.0495
 3476TIP3   OH231918   1.526   3.159  12.657  0.0735 -0.4005 -1.0250
 3476TIP3    H131919   1.536   3.244  12.700  1.7781  0.0507 -2.2408
 3476TIP3    H231920   1.562   3.096  12.720  1.4786  0.1166 -1.3014
 3477TIP3   OH231921   6.352   6.184  16.643 -0.1309  0.0474 -0.0128
 3477TIP3    H131922   6.341   6.107  16.699  0.5084 -0.6037 -0.7537
 3477TIP3    H231923   6.447   6.191  16.630 -0.2121  0.7246 -0.2627
 3478TIP3   OH231924   0.285   6.614  17.155 -0.1097  0.3753  0.1739
 3478TIP3    H131925   0.283   6.625  17.250  0.0465 -0.9251  0.3380
 3478TIP3    H231926   0.202   6.574  17.133 -1.0362  2.5168 -0.5256
 3479TIP3   OH231927   2.457   5.458  16.165  0.4953 -0.1678 -0.4368
 3479TIP3    H131928   2.487   5.404  16.238 -0.1253 -0.8797 -0.6987
 3479TIP3    H231929   2.518   5.437  16.094  0.4169 -0.3298 -0.4576
 3480TIP3   OH231930   2.723   1.870   0.137 -0.4860  0.0001 -0.9065
 3480TIP3    H131931   2.703   1.939   0.200  0.2157 -0.1031 -0.5563
 3480TIP3    H231932   2.709   1.788   0.185  2.8543 -0.1055  0.1238
 3481TIP3   OH231933   3.370   0.008  14.961 -0.2081 -0.0981 -0.2952
 3481TIP3    H131934   3.380  -0.086  14.947  2.1970  0.3049 -2.0215
 3481TIP3    H231935   3.339   0.042  14.877  2.4085  0.9722 -0.9492
 3482TIP3   OH231936   3.022   5.107  15.063  0.0327 -0.0937  0.8185
 3482TIP3    H131937   2.932   5.114  15.032  0.1558  2.7172  0.7980
 3482TIP3    H231938   3.021   5.145  15.151  1.1813  0.0471  0.7963
 3483TIP3   OH231939   2.478   0.306   4.160  0.0739 -0.4506  0.5763
 3483TIP3    H131940   2.430   0.324   4.079 -0.1885 -0.3800  0.7478
 3483TIP3    H231941   2.546   0.245   4.134  1.5731  1.4417 -0.2172
 3484TIP3   OH231942   5.832   3.577   4.139  0.3228  0.0329  0.2115
 3484TIP3    H131943   5.923   3.558   4.164  0.1296  0.3994  1.2707
 3484TIP3    H231944   5.793   3.615   4.218 -0.9214 -0.6763 -0.0239
 3485TIP3   OH231945   6.187   6.816   3.445  0.1630  0.2790  0.2639
 3485TIP3    H131946   6.235   6.898   3.456  1.8047 -0.7292  0.9129
 3485TIP3    H231947   6.194   6.796   3.352  1.7206 -0.2467  0.4687
 3486TIP3   OH231948   3.920   4.006   3.776  0.0341  0.0430 -0.0365
 3486TIP3    H131949   3.873   4.011   3.693 -0.6960 -1.0663  0.2744
 3486TIP3    H231950   3.948   4.095   3.794 -2.4256  0.8773  0.0133
 3487TIP3   OH231951   2.212   0.004  10.939 -0.4911 -1.0605 -0.2728
 3487TIP3    H131952   2.149  -0.033  10.878  0.1711 -3.0058  0.1581
 3487TIP3    H231953   2.275  -0.067  10.954  2.7087  1.1858 -1.8542
 3488TIP3   OH231954   2.230   3.930  15.060 -0.1302  0.4697 -0.4270
 3488TIP3    H131955   2.286   3.884  15.124  0.1590  1.8947  0.3960
 3488TIP3    H231956   2.292   3.968  14.998 -0.3853 -0.4462 -1.2694
 3489TIP3   OH231957   5.647   4.224   0.580  0.1171  0.4494  0.3810
 3489TIP3    H131958   5.727   4.173   0.591 -0.2739 -0.3275 -0.2344
 3489TIP3    H231959   5.620   4.248   0.669  0.9240  0.5631  0.5990
 3490TIP3   OH231960   0.660   2.157   5.543 -0.4684 -1.0673 -0.5446
 3490TIP3    H131961   0.663   2.169   5.448 -0.5377 -2.2279 -0.7049
 3490TIP3    H231962   0.638   2.244   5.577 -0.2505 -0.5903 -1.5711
 3491TIP3   OH231963   6.322   0.055  15.474 -0.0606 -0.6322  0.0889
 3491TIP3    H131964   6.417   0.045  15.470  0.1382  1.2106 -1.5088
 3491TIP3    H231965   6.308   0.147  15.493 -1.5690 -1.0096  1.0092
 3492TIP3   OH231966   4.369   0.617  11.067 -0.2116 -0.3842  0.3626
 3492TIP3    H131967   4.445   0.642  11.013 -0.9022  0.9760 -0.0310
 3492TIP3    H231968   4.332   0.701  11.095 -1.4686 -1.0369  0.6985
 3493TIP3   OH231969   4.446   6.076   4.043  0.3238  0.2003 -0.2870
 3493TIP3    H131970   4.515   6.022   4.081 -1.1469 -1.6692 -0.1328
 3493TIP3    H231971   4.391   6.101   4.117 -0.0039  0.4282 -0.6016
 3494TIP3   OH231972   1.663   6.611   2.883  0.1741 -0.3740 -0.4392
 3494TIP3    H131973   1.668   6.520   2.856  1.0064 -0.5464  0.2742
 3494TIP3    H231974   1.591   6.647   2.830 -0.1832 -1.4355 -0.7091
 3495TIP3   OH231975   3.646   4.718   1.612  0.1049 -0.5863  0.4213
 3495TIP3    H131976   3.604   4.803   1.602  0.8897 -0.2767 -0.3924
 3495TIP3    H231977   3.699   4.726   1.691  2.5626  0.7598 -1.2255
 3496TIP3   OH231978   5.690   2.054   2.641 -0.3823 -0.3092  0.5292
 3496TIP3    H131979   5.677   1.966   2.604  2.0766  0.1160 -1.6285
 3496TIP3    H231980   5.625   2.108   2.597 -1.0630 -0.7863  0.9232
 3497TIP3   OH231981   0.660   3.864  11.476  0.4660  0.2483  0.1746
 3497TIP3    H131982   0.679   3.837  11.565  0.6835  0.7064  0.2676
 3497TIP3    H231983   0.599   3.937  11.485 -1.5871 -1.3057 -0.1133
 3498TIP3   OH231984   3.345   2.916  15.803  0.4270  0.0240 -0.0108
 3498TIP3    H131985   3.256   2.949  15.789  0.1779 -1.4120 -2.3884
 3498TIP3    H231986   3.350   2.900  15.898 -0.8560  2.6856  0.5906
 3499TIP3   OH231987   2.172   3.449  16.158  0.8358 -0.2682  0.4445
 3499TIP3    H131988   2.111   3.414  16.094  2.3573  0.7904 -1.6963
 3499TIP3    H231989   2.135   3.534  16.182  0.5768 -0.4068  0.5450
 3500TIP3   OH231990   3.543   2.056   1.827  0.1601 -0.1561  0.1637
 3500TIP3    H131991   3.465   2.107   1.849  0.4193  0.0904  0.5219
 3500TIP3    H231992   3.510   1.981   1.778 -0.4181 -0.6911  1.3417
 3501TIP3   OH231993   5.338   4.805   2.088  0.3357 -0.1744 -0.0274
 3501TIP3    H131994   5.405   4.819   2.020 -0.7882  0.4453 -1.0435
 3501TIP3    H231995   5.386   4.810   2.171  1.5689  0.1037 -0.7388
 3502TIP3   OH231996   4.328   4.346  11.652  0.2151  0.2160 -0.5496
 3502TIP3    H131997   4.356   4.422  11.602  1.9478 -0.6293 -0.9443
 3502TIP3    H231998   4.409   4.305  11.682 -0.6779 -1.2793 -0.0402
 3503TIP3   OH231999   6.232   2.447  16.105 -0.2516 -0.5158  0.6663
 3503TIP3    H132000   6.251   2.430  16.013 -2.5637  0.8833 -0.1613
 3503TIP3    H232001   6.283   2.524  16.127  1.0302 -1.3985  0.8771
 3504TIP3   OH232002   4.096   0.201   5.417  0.0184 -0.5186 -0.2757
 3504TIP3    H132003   4.181   0.161   5.397 -0.2245 -0.8804 -0.6070
 3504TIP3    H232004   4.034   0.128   5.415 -0.2899 -0.2665  0.0324
 3505TIP3   OH232005   6.224   0.914  11.820  0.2874 -0.1221 -0.4800
 3505TIP3    H132006   6.260   0.990  11.864  0.0308  0.1621 -0.7536
 3505TIP3    H232007   6.286   0.844  11.837  0.9310  0.3413 -0.8923
 3506TIP3   OH232008   5.911   4.428   0.958 -0.1187 -0.1464 -0.0693
 3506TIP3    H132009   5.905   4.381   0.875  0.1503 -1.5947  0.6981
 3506TIP3    H232010   5.989   4.392   1.000 -1.6685 -1.3577  1.9409
 3507TIP3   OH232011   5.490   4.150  13.987 -0.0306  0.2883  0.0197
 3507TIP3    H132012   5.465   4.227  13.937 -4.2224 -0.9314 -0.1062
 3507TIP3    H232013   5.416   4.133  14.045  1.0542 -3.1453  0.6568
 3508TIP3   OH232014   3.407   2.232   0.022 -0.2351  0.2153  0.0601
 3508TIP3    H132015   3.501   2.225   0.039 -0.3707  0.1969  0.8150
 3508TIP3    H232016   3.365   2.192   0.098 -0.8497 -0.6051 -0.6861
 3509TIP3   OH232017   4.207   4.754  10.837 -0.0640  0.5021 -0.7575
 3509TIP3    H132018   4.228   4.831  10.785  0.7190  0.3777 -0.6395
 3509TIP3    H232019   4.112   4.754  10.842 -0.1613  0.4086 -2.3330
 3510TIP3   OH232020   6.114   0.289  16.918  0.9007  0.0471  0.7871
 3510TIP3    H132021   6.138   0.283  17.010  1.4002 -0.4881  0.6311
 3510TIP3    H232022   6.149   0.374  16.890  0.6653  0.2537  1.1093
 3511TIP3   OH232023   0.719   4.496   2.817 -0.4503 -0.4780  0.1108
 3511TIP3    H132024   0.738   4.588   2.801  1.5804 -0.3847  2.4895
 3511TIP3    H232025   0.662   4.470   2.745 -2.7165  3.1016  0.3968
 3512TIP3   OH232026   4.037   1.934   1.117 -0.1773 -0.7532  0.3728
 3512TIP3    H132027   4.055   2.023   1.148  0.3154 -0.2512 -1.2845
 3512TIP3    H232028   3.955   1.941   1.069 -0.1269 -1.1938  0.2198
 3513TIP3   OH232029   1.682   3.087  12.878 -0.1042 -0.0330 -0.0188
 3513TIP3    H132030   1.770   3.055  12.859 -0.6585 -1.1324 -0.8479
 3513TIP3    H232031   1.695   3.179  12.901  1.0964  0.3234 -1.8761
 3514TIP3   OH232032   6.324   5.511  13.554 -0.3204 -0.2153  0.1193
 3514TIP3    H132033   6.271   5.497  13.632 -1.9408  0.4344 -0.8292
 3514TIP3    H232034   6.349   5.604  13.558  3.4795 -1.1355  2.1550
 3515TIP3   OH232035   0.769   3.122   4.408  0.1546  0.2745 -0.2453
 3515TIP3    H132036   0.747   3.141   4.499 -1.1567 -0.6150 -0.3547
 3515TIP3    H232037   0.728   3.193   4.359 -0.7524 -0.2437 -0.2707
 3516TIP3   OH232038   1.684   6.729  11.153 -0.8570  0.2404 -1.0085
 3516TIP3    H132039   1.773   6.757  11.129  0.2385 -1.8676  0.3579
 3516TIP3    H232040   1.663   6.659  11.091 -1.4291  0.4658 -1.0792
 3517TIP3   OH232041   4.503   1.957  11.699 -0.0743 -0.0263 -0.1171
 3517TIP3    H132042   4.496   2.010  11.620  1.9937 -0.8871 -0.9598
 3517TIP3    H232043   4.500   2.021  11.771 -1.1178  0.8496 -0.9039
 3518TIP3   OH232044   2.929   0.157  13.276 -0.2836  0.5450  0.1069
 3518TIP3    H132045   2.908   0.072  13.315 -0.1466 -0.1173 -1.2136
 3518TIP3    H232046   2.846   0.205  13.276 -0.2605  0.6208  1.3063
 3519TIP3   OH232047   6.768   5.841   0.334 -0.1840 -0.5460  0.3256
 3519TIP3    H132048   6.795   5.880   0.417 -0.0889 -0.9402  0.4816
 3519TIP3    H232049   6.742   5.915   0.280  2.6827  0.0126 -0.4116
 3520TIP3   OH232050   0.153   6.453   2.844  0.0764 -0.4748 -0.0956
 3520TIP3    H132051   0.117   6.412   2.766 -0.4794  0.6674 -0.4702
 3520TIP3    H232052   0.111   6.539   2.847  0.4124 -0.3391  1.2275
 3521TIP3   OH232053   4.496   2.780   0.699 -0.2051  0.0207  0.3299
 3521TIP3    H132054   4.446   2.861   0.709 -0.0556  0.3802 -1.4496
 3521TIP3    H232055   4.565   2.802   0.637 -0.3386 -1.5291 -0.4179
 3522TIP3   OH232056   1.262   2.602   5.646  0.1445 -0.3800 -0.0671
 3522TIP3    H132057   1.204   2.673   5.620 -0.9385 -0.2276  2.4566
 3522TIP3    H232058   1.349   2.642   5.652  0.0790  0.0020 -1.3903
 3523TIP3   OH232059   6.235   1.574  11.926  0.4522  0.5189 -0.0961
 3523TIP3    H132060   6.203   1.487  11.951 -0.4286  0.5477 -1.0653
 3523TIP3    H232061   6.256   1.566  11.833  1.7684  0.9581  0.1413
 3524TIP3   OH232062   4.175   5.419  17.051  1.0585  0.5246  0.0810
 3524TIP3    H132063   4.172   5.511  17.027  1.2064  0.9130  1.4975
 3524TIP3    H232064   4.092   5.402  17.095  1.3192  0.1475  0.4334
 3525TIP3   OH232065   2.962   2.146  13.404 -0.4227 -0.6761  0.6253
 3525TIP3    H132066   2.963   2.079  13.336 -2.7059  0.4991 -0.6633
 3525TIP3    H232067   2.897   2.115  13.467 -0.8465 -0.1318  0.4680
 3526TIP3   OH232068   4.224   3.041  14.180 -0.6816  0.6489  0.3499
 3526TIP3    H132069   4.235   3.060  14.087  3.4563 -0.0507  0.4811
 3526TIP3    H232070   4.219   3.127  14.222  2.3954  1.2250 -0.2417
 3527TIP3   OH232071   1.455   6.689   3.874  0.1296 -0.2017  0.0810
 3527TIP3    H132072   1.479   6.765   3.821 -1.3134 -0.5782 -1.1777
 3527TIP3    H232073   1.524   6.683   3.940  2.6438 -0.3743 -2.3831
 3528TIP3   OH232074   3.002   3.723  12.005  0.6199 -0.0796 -0.1096
 3528TIP3    H132075   2.934   3.727  11.938  0.5913  2.3092 -0.0388
 3528TIP3    H232076   3.067   3.662  11.971  0.9066  1.4978 -2.6831
 3529TIP3   OH232077   5.906   1.715   3.292  0.8025  0.1640 -0.1879
 3529TIP3    H132078   5.870   1.803   3.287  2.2500  0.9694  2.0866
 3529TIP3    H232079   5.939   1.698   3.203  1.2194  2.2503 -0.4897
 3530TIP3   OH232080   0.282   5.985  13.740  0.0704 -0.4173  0.0193
 3530TIP3    H132081   0.308   6.054  13.680  0.5375 -1.0152 -0.4783
 3530TIP3    H232082   0.358   5.927  13.745  0.5426  0.2865  2.2003
 3531TIP3   OH232083   0.971   1.178   3.554  0.2282  0.1817 -0.2671
 3531TIP3    H132084   0.917   1.125   3.496  1.7611 -0.9552 -0.7481
 3531TIP3    H232085   0.977   1.127   3.634 -1.0239  1.2528  0.5298
 3532TIP3   OH232086   4.629   5.504  10.750 -0.4545 -0.2056 -0.3152
 3532TIP3    H132087   4.578   5.463  10.821 -0.0469 -0.4931 -0.1836
 3532TIP3    H232088   4.569   5.505  10.675 -1.1849  0.8889  0.2637
 3533TIP3   OH232089   0.782   3.503   5.844 -0.2605 -0.6171 -0.5197
 3533TIP3    H132090   0.769   3.518   5.938 -0.3266  2.7795 -0.9721
 3533TIP3    H232091   0.759   3.586   5.802  2.2100 -1.1687 -3.3313
 3534TIP3   OH232092   6.478   4.129   0.848  0.0908  0.1302  0.3121
 3534TIP3    H132093   6.441   4.125   0.760 -0.1006  0.7867  0.3589
 3534TIP3    H232094   6.407   4.100   0.905  0.0644  0.1491  0.2892
 3535TIP3   OH232095   0.725   0.801  14.275 -0.2809 -0.4795 -0.1122
 3535TIP3    H132096   0.792   0.748  14.232 -0.8016 -0.0898 -1.4352
 3535TIP3    H232097   0.724   0.884  14.227 -0.1857  0.3643  1.2906
 3536TIP3   OH232098   2.608   0.689  11.290  0.8405 -0.3755  0.1149
 3536TIP3    H132099   2.513   0.702  11.297  0.3446 -3.6576  1.1166
 3536TIP3    H232100   2.643   0.720  11.374  0.4873 -0.3990  0.2726
 3537TIP3   OH232101   2.381   5.138   2.763  0.2252 -0.0332 -0.1907
 3537TIP3    H132102   2.364   5.067   2.701  1.3878  0.6097 -1.2697
 3537TIP3    H232103   2.306   5.197   2.753  0.5298  0.1922 -1.1718
 3538TIP3   OH232104   3.706   0.714   4.684  0.4759 -0.5813 -0.2392
 3538TIP3    H132105   3.623   0.666   4.671  1.6910 -2.5890 -1.0708
 3538TIP3    H232106   3.683   0.786   4.742 -2.3458  0.2823 -2.1916
 3539TIP3   OH232107   5.176   5.317  16.654 -0.1452  0.1399  0.5587
 3539TIP3    H132108   5.240   5.270  16.600 -0.1321  0.2035  0.5183
 3539TIP3    H232109   5.203   5.409  16.649 -0.0899  0.1342  0.7477
 3540TIP3   OH232110   2.239   0.978  15.024  0.3393  0.2561 -0.4651
 3540TIP3    H132111   2.294   1.007  15.096  0.5218  0.6687 -0.7641
 3540TIP3    H232112   2.268   0.888  15.006  0.7224  0.3738 -0.4392
 3541TIP3   OH232113   1.398   5.822   2.015  0.4568  0.3252 -0.1418
 3541TIP3    H132114   1.341   5.881   1.966  0.0757  1.0004  1.0704
 3541TIP3    H232115   1.340   5.749   2.040 -0.2884  1.5907  2.1432
 3542TIP3   OH232116   3.317   6.696  12.569  0.1453  0.5923 -0.5694
 3542TIP3    H132117   3.332   6.701  12.664 -1.3904  1.1305 -0.3203
 3542TIP3    H232118   3.355   6.613  12.543  0.7090  0.4973  0.5091
 3543TIP3   OH232119   4.588   1.434   5.667 -0.5351  0.0488  0.0581
 3543TIP3    H132120   4.500   1.402   5.686 -1.4267  1.5126 -1.3452
 3543TIP3    H232121   4.646   1.381   5.722 -2.5336  1.2607  3.6582
 3544TIP3   OH232122   5.428   6.411   1.633  0.3807  0.0086 -0.1474
 3544TIP3    H132123   5.477   6.487   1.665 -0.9806  0.7495  0.2795
 3544TIP3    H232124   5.382   6.443   1.555  1.9999 -1.1978 -1.6688
 3545TIP3   OH232125   1.408   0.511   1.183 -0.2585 -0.1309  0.5958
 3545TIP3    H132126   1.342   0.469   1.237 -2.3715  1.1441 -0.8637
 3545TIP3    H232127   1.488   0.459   1.198 -1.4394 -1.4762  2.7146
 3546TIP3   OH232128   2.781   5.596   3.479 -0.1968 -0.0188  0.4725
 3546TIP3    H132129   2.746   5.588   3.568  0.7904 -1.4299  0.7637
 3546TIP3    H232130   2.865   5.641   3.490  1.6593 -3.2274  0.8028
 3547TIP3   OH232131   3.506   1.837  15.883  0.3065  0.5519  0.2436
 3547TIP3    H132132   3.515   1.777  15.809  0.8644  2.0719 -0.9807
 3547TIP3    H232133   3.560   1.798  15.952  1.7044  0.2662 -0.9587
 3548TIP3   OH232134   1.069   4.519  15.402  0.4186  0.2456  0.0871
 3548TIP3    H132135   1.059   4.588  15.468 -0.5741  1.0032 -0.8342
 3548TIP3    H232136   1.045   4.561  15.320 -1.4177 -1.5201 -0.3436
 3549TIP3   OH232137   4.499   6.247   6.251 -0.0539 -0.3518 -0.3194
 3549TIP3    H132138   4.534   6.312   6.191 -0.1824  0.3416  0.3466
 3549TIP3    H232139   4.426   6.290   6.295  0.9602 -0.2989  1.4136
 3550TIP3   OH232140   6.027   5.998  14.484 -0.1520 -0.2143 -0.0633
 3550TIP3    H132141   6.024   5.941  14.561  1.9404 -1.3331 -0.7312
 3550TIP3    H232142   6.035   6.086  14.519 -1.9011 -0.4366  0.9882
 3551TIP3   OH232143   1.621   2.079   4.463 -0.0385  0.1903  0.5452
 3551TIP3    H132144   1.611   2.065   4.368  2.0010  2.8714 -0.1852
 3551TIP3    H232145   1.546   2.034   4.501 -1.3642 -0.3661 -2.4026
 3552TIP3   OH232146   4.663   6.674   1.204 -0.7079 -0.5169 -0.3084
 3552TIP3    H132147   4.701   6.649   1.288 -0.0939  1.0287 -0.0933
 3552TIP3    H232148   4.724   6.640   1.139 -0.7188 -0.9528 -0.0911
 3553TIP3   OH232149   1.700   3.114   0.281 -0.7396  0.2412  0.4373
 3553TIP3    H132150   1.685   3.204   0.250  0.1644 -0.0980 -1.0327
 3553TIP3    H232151   1.790   3.094   0.255 -1.3424 -1.5415 -0.3767
 3554TIP3   OH232152   2.853   5.675   1.569 -0.3905  0.4275 -0.5162
 3554TIP3    H132153   2.846   5.648   1.477 -1.7540  0.4910 -0.4576
 3554TIP3    H232154   2.799   5.611   1.616  1.3114 -0.3628  0.4203
 3555TIP3   OH232155   0.533   0.698   4.740  0.2725  0.0877  0.3980
 3555TIP3    H132156   0.505   0.615   4.779  0.0148 -0.0897 -0.1478
 3555TIP3    H232157   0.538   0.679   4.646 -1.5601  1.1827  0.0378
 3556TIP3   OH232158   1.607   5.910  11.436 -0.3363  0.1573 -0.1383
 3556TIP3    H132159   1.663   5.893  11.511 -0.0184  1.2546 -0.1092
 3556TIP3    H232160   1.663   5.956  11.373 -0.8737  0.1866 -0.6107
 3557TIP3   OH232161   2.427   3.337  16.878  0.2071 -0.2036  0.3415
 3557TIP3    H132162   2.347   3.318  16.827  0.2719 -2.2543  0.9147
 3557TIP3    H232163   2.414   3.426  16.910 -2.5555 -0.9377  1.6018
 3558TIP3   OH232164   4.801   1.919   1.576  0.2908 -0.0838  0.3399
 3558TIP3    H132165   4.762   1.989   1.524  0.9179  0.4861  0.6193
 3558TIP3    H232166   4.729   1.885   1.630 -0.0215  0.3192  0.1768
 3559TIP3   OH232167   5.718   2.373  16.303 -0.0066 -0.1580  0.4569
 3559TIP3    H132168   5.635   2.406  16.267 -1.4863 -1.3160  2.5540
 3559TIP3    H232169   5.738   2.432  16.376  1.1338  0.1964 -0.1168
 3560TIP3   OH232170   4.125   6.693  14.373 -0.3945  0.0603 -0.0158
 3560TIP3    H132171   4.203   6.726  14.328  1.9270 -2.4259  1.8285
 3560TIP3    H232172   4.148   6.695  14.466 -2.8811 -0.0741  0.6824
 3561TIP3   OH232173   5.672   3.903  16.778  0.4130 -0.4236  0.0523
 3561TIP3    H132174   5.744   3.965  16.789 -0.0482  0.2227 -0.4579
 3561TIP3    H232175   5.649   3.909  16.685  0.0167 -0.9832  0.1067
 3562TIP3   OH232176   2.728   6.409  16.511  0.2364 -0.0414  0.5581
 3562TIP3    H132177   2.734   6.349  16.585  1.0388 -0.9560 -0.2155
 3562TIP3    H232178   2.656   6.468  16.533 -0.0652 -0.8042  1.6848
 3563TIP3   OH232179   1.343   4.305   5.351 -0.4851 -0.0007 -0.2283
 3563TIP3    H132180   1.370   4.327   5.262  1.8116 -1.7254 -0.0718
 3563TIP3    H232181   1.410   4.345   5.407 -1.7706  0.8668  0.7353
 3564TIP3   OH232182   0.368   6.811  16.000  0.0906  0.1433 -0.1100
 3564TIP3    H132183   0.308   6.741  15.975 -0.1797  0.0909  0.6634
 3564TIP3    H232184   0.409   6.781  16.080 -0.0036  0.8473  0.2145
 3565TIP3   OH232185   6.735   1.165   0.344  0.1657  0.4207  0.0682
 3565TIP3    H132186   6.642   1.180   0.357 -0.1614 -0.9827 -0.4712
 3565TIP3    H232187   6.777   1.205   0.421 -0.9379  0.3672  0.7106
 3566TIP3   OH232188   2.149   3.658   5.898  0.1307 -0.4124 -0.0926
 3566TIP3    H132189   2.135   3.705   5.980 -0.3990 -0.6734 -0.0304
 3566TIP3    H232190   2.150   3.565   5.924 -3.8256 -0.8198 -0.8098
 3567TIP3   OH232191   4.235   2.732   5.779 -0.2248 -0.4336 -0.1271
 3567TIP3    H132192   4.293   2.746   5.854  1.1284  0.7383 -1.3397
 3567TIP3    H232193   4.147   2.745   5.814  0.3637 -0.0533  1.2819
 3568TIP3   OH232194   3.478   0.878   6.064  0.0973 -0.4145 -0.1066
 3568TIP3    H132195   3.497   0.967   6.094  1.3024 -0.7674  0.2122
 3568TIP3    H232196   3.516   0.821   6.131  2.3862 -1.2190 -1.9493
 3569TIP3   OH232197   1.585   0.180   6.032  0.0266  0.1330 -0.0181
 3569TIP3    H132198   1.578   0.198   6.126  0.4708  0.3500 -0.0251
 3569TIP3    H232199   1.601   0.086   6.027  1.9933  0.4159  0.2315
 3570TIP3   OH232200   5.254   0.863  11.157 -0.0093  0.1905 -0.1817
 3570TIP3    H132201   5.276   0.956  11.154  0.2876  0.2324  1.7997
 3570TIP3    H232202   5.216   0.851  11.244 -0.9807 -1.3492 -0.8005
 3571TIP3   OH232203   5.148   2.449  12.265  0.4266 -0.4084 -0.8693
 3571TIP3    H132204   5.157   2.518  12.330  4.1142 -0.9057 -0.6052
 3571TIP3    H232205   5.089   2.385  12.305  0.1867  0.7157  0.6323
 3572TIP3   OH232206   0.529   1.324  13.778 -0.4599 -0.3084  0.0216
 3572TIP3    H132207   0.584   1.262  13.729 -2.1653 -1.5272 -0.4459
 3572TIP3    H232208   0.522   1.286  13.865 -0.7733 -0.3039 -0.0006
 3573TIP3   OH232209   1.073   0.074   4.167 -0.2843 -0.6847 -0.5255
 3573TIP3    H132210   1.012   0.100   4.236  1.4650  1.8042  0.2202
 3573TIP3    H232211   1.061  -0.021   4.159 -1.8999 -0.7674  1.8602
 3574TIP3   OH232212   6.198   0.812  14.012 -0.3573  0.0558 -0.0156
 3574TIP3    H132213   6.157   0.847  14.091 -1.4794 -1.3701  0.0784
 3574TIP3    H232214   6.178   0.718  14.015  0.7008 -0.2321 -1.3339
 3575TIP3   OH232215   3.205   0.015   1.171 -0.4513 -0.0328 -0.0059
 3575TIP3    H132216   3.216  -0.077   1.148 -0.3107  0.0559 -0.2907
 3575TIP3    H232217   3.294   0.048   1.182 -0.5013  0.0652  0.1125
 3576TIP3   OH232218   4.153   2.716   5.155  0.3008 -0.5093 -0.3431
 3576TIP3    H132219   4.162   2.622   5.169  0.4874 -0.6815 -1.5174
 3576TIP3    H232220   4.239   2.752   5.179  0.0905 -0.5736  0.5295
 3577TIP3   OH232221   6.202   4.233  13.198 -0.2778  0.0544 -0.2072
 3577TIP3    H132222   6.206   4.183  13.280  0.3279  0.4534  0.0114
 3577TIP3    H232223   6.139   4.185  13.144 -0.2031 -0.5723  0.2506
 3578TIP3   OH232224   2.248   0.014  14.511  0.4017 -0.0526 -0.1088
 3578TIP3    H132225   2.198  -0.020  14.585 -1.1688  1.4673 -0.4034
 3578TIP3    H232226   2.181   0.044  14.449  1.6111  2.6834 -0.2476
 3579TIP3   OH232227   0.642   1.110  13.600  0.2085  0.5126  0.1009
 3579TIP3    H132228   0.616   1.137  13.511  1.4712  0.4532 -0.3041
 3579TIP3    H232229   0.602   1.023  13.611  0.3779  0.3431 -0.5674
 3580TIP3   OH232230   3.281   4.482   5.009 -0.1331 -0.3438  0.3786
 3580TIP3    H132231   3.203   4.532   4.982  0.8223  1.7377  1.1973
 3580TIP3    H232232   3.246   4.405   5.053 -1.6967 -0.8868 -1.6625
 3581TIP3   OH232233   3.103   5.141  16.667 -0.4962 -0.3922  0.0825
 3581TIP3    H132234   3.174   5.196  16.700 -0.4621 -0.9642  1.0283
 3581TIP3    H232235   3.056   5.196  16.605  1.5349 -0.4153 -1.5686
 3582TIP3   OH232236   6.117   4.709   3.743 -0.0830 -0.2220 -0.3720
 3582TIP3    H132237   6.122   4.661   3.660  0.4008 -1.7739  0.5231
 3582TIP3    H232238   6.196   4.682   3.791 -1.5368 -1.2435  1.5755
 3583TIP3   OH232239   5.281   6.732  15.935  0.0028 -0.2806 -0.8429
 3583TIP3    H132240   5.243   6.785  16.006  0.5580 -0.0563 -0.7108
 3583TIP3    H232241   5.212   6.729  15.869  0.2165  1.2787 -1.1945
 3584TIP3   OH232242   3.383   0.082  11.445  0.0951  0.3727 -0.6515
 3584TIP3    H132243   3.349   0.118  11.527 -1.4060  1.0418 -1.5312
 3584TIP3    H232244   3.311   0.092  11.383  0.4457 -2.0420 -1.5502
 3585TIP3   OH232245   1.322   0.530   5.552 -0.3082 -0.0026 -0.2774
 3585TIP3    H132246   1.407   0.562   5.581 -0.6810  0.8291 -0.0443
 3585TIP3    H232247   1.296   0.591   5.483 -0.8476 -0.0636 -0.1318
 3586TIP3   OH232248   5.230   6.143  16.615  0.4061  0.4060  0.1057
 3586TIP3    H132249   5.282   6.216  16.648  0.8194  0.0497  0.2551
 3586TIP3    H232250   5.165   6.127  16.683  0.9014  0.0363  0.5046
 3587TIP3   OH232251   3.487   1.091  15.031 -0.2293 -0.0717  0.0493
 3587TIP3    H132252   3.496   1.183  15.008  0.2864 -0.0433  0.3399
 3587TIP3    H232253   3.395   1.071  15.016 -1.0234  1.2087  2.5756
 3588TIP3   OH232254   1.756   4.768   5.758  0.2818 -0.6133  0.1330
 3588TIP3    H132255   1.664   4.789   5.746  0.1209 -0.8138  0.9246
 3588TIP3    H232256   1.800   4.808   5.684 -0.0753  2.0186  1.2160
 3589TIP3   OH232257   3.954   0.550   1.408  0.9533  0.2947 -0.1949
 3589TIP3    H132258   4.020   0.561   1.476  0.6563 -0.9138  0.3139
 3589TIP3    H232259   3.886   0.613   1.430  1.3208  0.6207  0.0364
 3590TIP3   OH232260   2.212   1.444  12.265  0.2500 -0.5999 -0.1854
 3590TIP3    H132261   2.237   1.403  12.348  0.4524 -1.0417 -0.4609
 3590TIP3    H232262   2.258   1.393  12.198  1.1622  0.5611 -0.4922
 3591TIP3   OH232263   3.565   0.178  14.155  0.0354 -0.5474 -0.6826
 3591TIP3    H132264   3.636   0.115  14.167  0.1414 -0.5676 -1.3889
 3591TIP3    H232265   3.581   0.244  14.222  0.1907 -1.0267 -0.2370
 3592TIP3   OH232266   4.412   3.875   1.356 -0.2376 -0.2357  0.2121
 3592TIP3    H132267   4.338   3.815   1.364 -0.8315  0.1869 -1.5454
 3592TIP3    H232268   4.483   3.821   1.322 -0.7621  0.0025 -1.3382
 3593TIP3   OH232269   3.258   4.688  13.539 -0.3271 -0.0707 -0.5555
 3593TIP3    H132270   3.220   4.670  13.453  2.5335  0.9226 -2.1473
 3593TIP3    H232271   3.278   4.601  13.575 -2.6499 -0.5479 -0.2804
 3594TIP3   OH232272   2.021   3.137   3.067  0.0845  0.1340  0.4856
 3594TIP3    H132273   2.054   3.182   3.145  1.6003  0.4445 -0.2905
 3594TIP3    H232274   1.968   3.065   3.101  1.3042 -0.1723  1.8282
 3595TIP3   OH232275   2.410   2.585   6.209  0.1161 -0.5299 -0.2177
 3595TIP3    H132276   2.345   2.639   6.252  1.0013 -0.5613  1.2372
 3595TIP3    H232277   2.420   2.509   6.267  1.9516 -0.1722 -0.0064
 3596TIP3   OH232278   1.219   1.534   5.343 -0.4202  0.6750 -0.8202
 3596TIP3    H132279   1.302   1.536   5.294 -0.4353 -0.0156 -0.8849
 3596TIP3    H232280   1.162   1.594   5.295 -0.7271 -0.6700 -2.2204
 3597TIP3   OH232281   4.186   3.854   5.083  0.0905 -0.3044  0.5038
 3597TIP3    H132282   4.183   3.760   5.067  0.8915 -0.3073  0.3334
 3597TIP3    H232283   4.100   3.875   5.120 -0.4980 -0.9068 -0.4850
 3598TIP3   OH232284   0.337   4.483  12.200 -0.1568  0.1549  0.1863
 3598TIP3    H132285   0.412   4.447  12.247 -0.5531 -1.3631 -0.2979
 3598TIP3    H232286   0.347   4.451  12.110 -2.1982 -1.4893  0.4511
 3599TIP3   OH232287   2.133   2.544   3.286 -0.2632  0.1810  0.1879
 3599TIP3    H132288   2.204   2.490   3.252  0.0542 -0.7435  2.2158
 3599TIP3    H232289   2.072   2.482   3.325 -0.4986  1.1876  1.4830
 3600TIP3   OH232290   5.718   3.136   3.962 -0.4427 -0.6119 -0.5042
 3600TIP3    H132291   5.787   3.181   3.914 -1.0869  0.5202 -0.4045
 3600TIP3    H232292   5.638   3.155   3.912 -1.1287  0.5950  0.9663
 3601TIP3   OH232293   2.115   4.148  11.768  0.4686 -0.0314  0.0688
 3601TIP3    H132294   2.073   4.215  11.822  0.8662 -0.4198  0.8756
 3601TIP3    H232295   2.049   4.081  11.757  0.1259  0.3984 -0.5984
 3602TIP3   OH232296   0.622   6.449  15.467 -0.1327  0.0093  0.3301
 3602TIP3    H132297   0.647   6.536  15.435 -0.7322 -0.0651 -0.3659
 3602TIP3    H232298   0.685   6.389  15.427 -0.1368  0.0495  0.2629
 3603TIP3   OH232299   6.054   5.919   5.892 -0.1932  0.1389 -0.5098
 3603TIP3    H132300   5.959   5.926   5.893 -0.2572 -0.5538  0.6015
 3603TIP3    H232301   6.083   5.985   5.956 -0.0137 -0.5082  0.0853
 3604TIP3   OH232302   1.535   5.966  15.185  0.2362 -0.0629  0.4072
 3604TIP3    H132303   1.562   6.041  15.133 -1.3930  1.1576  1.2546
 3604TIP3    H232304   1.442   5.954  15.165  0.5205 -2.0562  0.0694
 3605TIP3   OH232305   6.032   3.350  15.502 -0.1791 -0.3402 -0.1386
 3605TIP3    H132306   6.065   3.276  15.451 -2.5905 -1.2847 -0.4843
 3605TIP3    H232307   5.941   3.327  15.521  0.0811  0.7194  3.1911
 3606TIP3   OH232308   4.875   5.882  12.918 -0.3575  0.1729  0.6730
 3606TIP3    H132309   4.828   5.817  12.866  1.6645  0.0199 -1.1282
 3606TIP3    H232310   4.884   5.843  13.004 -1.9739 -0.5130  0.5598
 3607TIP3   OH232311   4.749   3.188  15.432 -0.1886  0.1432 -0.5353
 3607TIP3    H132312   4.710   3.121  15.375 -1.3182 -0.4385  0.8680
 3607TIP3    H232313   4.685   3.258  15.432 -1.5265 -0.9596  2.0637
 3608TIP3   OH232314   5.086   5.593  11.676  0.2864  0.4002  0.0896
 3608TIP3    H132315   5.138   5.674  11.681  1.4744 -0.3056 -0.3925
 3608TIP3    H232316   5.062   5.586  11.584 -0.1630  0.4118  0.2051
 3609TIP3   OH232317   3.574   1.087   4.098 -1.0513  0.0043  0.1200
 3609TIP3    H132318   3.558   0.993   4.084  2.5768 -0.5983 -1.0613
 3609TIP3    H232319   3.529   1.130   4.025 -0.6792 -1.0931 -0.7944
 3610TIP3   OH232320   6.722   4.161   1.455 -0.0194 -0.3274 -0.2717
 3610TIP3    H132321   6.809   4.172   1.416  0.2489  0.0046  0.3951
 3610TIP3    H232322   6.710   4.241   1.507 -0.4874 -0.6243  0.0762
 3611TIP3   OH232323   3.731   3.494   4.124 -0.2182  0.2743  0.6697
 3611TIP3    H132324   3.702   3.434   4.193 -1.7022  0.8294  0.5571
 3611TIP3    H232325   3.656   3.551   4.109 -0.2568 -0.3492 -1.9753
 3612TIP3   OH232326   3.133   4.731   4.840  0.1273  0.1454  0.1927
 3612TIP3    H132327   3.052   4.778   4.819 -0.9437 -1.8552 -0.4486
 3612TIP3    H232328   3.187   4.743   4.762  0.3670  1.2478  0.5058
 3613TIP3   OH232329   1.751   4.917   1.268  0.1876 -0.2709  1.0899
 3613TIP3    H132330   1.840   4.944   1.292  1.0669  2.2499 -3.7143
 3613TIP3    H232331   1.762   4.830   1.230  0.8125  0.2905 -0.0673
 3614TIP3   OH232332   5.298   2.092  14.316  0.3446  0.4364 -0.0283
 3614TIP3    H132333   5.303   2.177  14.359 -0.8471  0.6281 -0.2366
 3614TIP3    H232334   5.206   2.066  14.325  0.5446 -0.5021 -0.5771
 3615TIP3   OH232335   4.139   3.003  15.558 -0.1241  0.3366  0.0953
 3615TIP3    H132336   4.113   2.916  15.529  0.5328  0.4813 -0.9708
 3615TIP3    H232337   4.219   2.989  15.608  0.6206  0.4203 -1.0316
 3616TIP3   OH232338   6.820   0.196  16.679  0.2034 -0.1615  0.2195
 3616TIP3    H132339   6.829   0.106  16.713 -0.8026  0.6465  2.9644
 3616TIP3    H232340   6.731   0.221  16.705 -0.8835  0.5170 -3.5871
 3617TIP3   OH232341   4.713   6.581   2.270 -0.0255  0.9193  0.1815
 3617TIP3    H132342   4.662   6.568   2.350 -0.2554  0.4449 -0.0384
 3617TIP3    H232343   4.803   6.559   2.294 -0.2969 -0.4746 -0.0068
 3618TIP3   OH232344   4.066   3.445   0.642 -0.4011 -0.4556  0.1432
 3618TIP3    H132345   4.140   3.451   0.581 -1.6846 -1.9912 -1.6786
 3618TIP3    H232346   4.043   3.536   0.660  1.6745  0.0633  0.5165
 3619TIP3   OH232347   3.207   2.754  14.061  0.2721  0.3491  0.4744
 3619TIP3    H132348   3.170   2.707  13.987  0.0558 -0.3056  0.9927
 3619TIP3    H232349   3.281   2.802  14.024 -0.3274  0.6863 -0.3230
 3620TIP3   OH232350   1.599   6.619   5.283 -0.1337 -0.5465  1.0028
 3620TIP3    H132351   1.673   6.559   5.292  1.0166  0.3993 -1.1747
 3620TIP3    H232352   1.640   6.706   5.275 -1.5323  0.1169  0.7601
 3621TIP3   OH232353   2.979   2.030  11.370  0.3059  0.2118  0.1775
 3621TIP3    H132354   2.896   2.075  11.379  1.3263  1.8227  2.2571
 3621TIP3    H232355   2.989   2.018  11.276 -1.7618  0.9189 -0.1922
 3622TIP3   OH232356   5.334   6.081  14.453 -0.0816 -0.2951 -0.2934
 3622TIP3    H132357   5.274   6.068  14.379 -1.6683 -2.6482  1.2694
 3622TIP3    H232358   5.291   6.147  14.507 -0.8415 -1.2579  0.3215
 3623TIP3   OH232359   1.712   2.000   3.620 -0.0771 -0.6154  0.1509
 3623TIP3    H132360   1.769   2.001   3.697 -1.2472  0.4377  1.0488
 3623TIP3    H232361   1.651   1.928   3.637  0.5252 -1.2927 -0.4810
 3624TIP3   OH232362   0.088   4.797  17.030 -0.5220  0.1105 -0.0036
 3624TIP3    H132363   0.111   4.824  17.119  0.2942 -2.7142  0.7546
 3624TIP3    H232364   0.164   4.819  16.977 -0.1068 -0.1711  0.4689
 3625TIP3   OH232365   0.071   0.734   1.944  0.4265 -0.2422  0.3954
 3625TIP3    H132366   0.070   0.806   2.007  0.1302 -0.4165  0.5901
 3625TIP3    H232367   0.054   0.656   1.997 -0.0016 -0.3686  0.0741
 3626TIP3   OH232368   5.939   0.383  14.320  0.0681  0.3588  0.1143
 3626TIP3    H132369   5.925   0.477  14.326 -1.1495  0.2216 -0.3205
 3626TIP3    H232370   5.854   0.348  14.294  1.2185 -0.5581 -2.8686
 3627TIP3   OH232371   3.954   4.511  14.361  0.1060  0.1226  0.2873
 3627TIP3    H132372   3.922   4.546  14.277 -0.0721 -1.6516 -0.4324
 3627TIP3    H232373   4.033   4.562  14.380  1.1599 -0.5551 -1.8922
 3628TIP3   OH232374   6.153   6.468  12.068 -0.7266  0.5918 -0.6061
 3628TIP3    H132375   6.227   6.430  12.115 -0.2326  1.3428 -0.7460
 3628TIP3    H232376   6.092   6.396  12.055 -1.2514  0.5307  1.8659
 3629TIP3   OH232377   4.967   1.770   2.135  0.4964  0.1897  0.0236
 3629TIP3    H132378   4.906   1.779   2.062 -0.1769  1.4798  0.7083
 3629TIP3    H232379   4.911   1.765   2.212  0.9784 -4.1768  0.3864
 3630TIP3   OH232380   2.111   6.765   3.194 -0.4114  0.3477  0.2979
 3630TIP3    H132381   2.190   6.713   3.185  0.1600  0.9004  1.8453
 3630TIP3    H232382   2.119   6.833   3.126  1.2719  1.3884  1.4744
 3631TIP3   OH232383   0.458   4.198  15.515 -0.1928  0.7924  0.0033
 3631TIP3    H132384   0.418   4.129  15.462 -1.2260  1.4440 -0.1134
 3631TIP3    H232385   0.536   4.224  15.466  0.5126 -0.6282  0.3145
 3632TIP3   OH232386   6.200   5.649  10.660  0.8537  0.3683 -0.2767
 3632TIP3    H132387   6.155   5.717  10.712  1.6822  0.6925  0.0352
 3632TIP3    H232388   6.267   5.697  10.612  1.3745 -0.2188 -0.1412
 3633TIP3   OH232389   4.863   1.942   5.385 -0.7418 -0.4489  0.2117
 3633TIP3    H132390   4.935   1.986   5.430 -0.1924  0.3355 -1.3680
 3633TIP3    H232391   4.879   1.958   5.292 -1.9761 -1.7939 -0.2756
 3634TIP3   OH232392   5.119   4.426   2.280  0.0728 -0.1490  0.0343
 3634TIP3    H132393   5.032   4.408   2.317  0.3229 -1.6024 -0.0211
 3634TIP3    H232394   5.145   4.344   2.240  1.2980  0.4047 -0.3473
 3635TIP3   OH232395   6.561   0.730  13.082  0.2591  0.1075  0.1208
 3635TIP3    H132396   6.542   0.801  13.143  0.9940  1.2006 -0.8809
 3635TIP3    H232397   6.526   0.760  12.998  0.3926 -0.8072 -0.2786
 3636TIP3   OH232398   6.123   4.422  15.757  0.8204  0.4750  0.1751
 3636TIP3    H132399   6.160   4.337  15.730  1.1427  0.9628 -0.9873
 3636TIP3    H232400   6.035   4.423  15.718  1.6605  1.6134 -1.8743
 3637TIP3   OH232401   3.667   0.058  15.600  0.2530 -1.0724  0.1081
 3637TIP3    H132402   3.651   0.139  15.551 -0.3600 -2.3113 -1.8856
 3637TIP3    H232403   3.716   0.085  15.677  0.8943  1.0815 -0.9845
 3638TIP3   OH232404   3.637   5.449   3.652 -0.3449 -0.1273  0.4388
 3638TIP3    H132405   3.567   5.514   3.652 -1.1599 -0.9368 -1.1275
 3638TIP3    H232406   3.634   5.410   3.740 -0.4354  1.2798  1.0900
 3639TIP3   OH232407   6.422   3.880   3.257  0.1418  0.2937 -0.5591
 3639TIP3    H132408   6.423   3.797   3.211 -3.1434 -1.5182  2.1814
 3639TIP3    H232409   6.380   3.941   3.197  0.8900 -0.4684 -1.9036
 3640TIP3   OH232410   1.681   3.473   0.491 -0.3229 -0.1032 -0.1882
 3640TIP3    H132411   1.592   3.496   0.465  0.1301  1.3689 -0.5519
 3640TIP3    H232412   1.720   3.556   0.519  0.6886 -0.8619  0.7184
 3641TIP3   OH232413   1.803   1.981   6.774  0.3877  1.0805  0.0631
 3641TIP3    H132414   1.773   2.028   6.696  2.3398  0.0014 -1.4446
 3641TIP3    H232415   1.723   1.954   6.818 -0.8259  0.8676 -2.1331
 3642TIP3   OH232416   5.149   4.684   2.322 -0.2769 -0.1148  0.1925
 3642TIP3    H132417   5.134   4.715   2.233  1.0487 -2.0788 -0.7800
 3642TIP3    H232418   5.119   4.593   2.321 -1.3677  0.1706  2.1175
 3643TIP3   OH232419   6.579   1.983   1.398  0.4418 -0.5060  0.5118
 3643TIP3    H132420   6.663   1.957   1.435  0.5081 -3.8257 -1.5150
 3643TIP3    H232421   6.591   1.974   1.303 -1.6940  0.6645  0.0649
 3644TIP3   OH232422   1.228   6.386  15.893 -0.2267 -0.2444  0.2416
 3644TIP3    H132423   1.225   6.421  15.804  1.3873 -0.3758  0.1088
 3644TIP3    H232424   1.191   6.298  15.884 -0.3684 -0.1437 -0.2340
 3645TIP3   OH232425   0.784   0.821  17.038  0.3295  0.1804 -0.4633
 3645TIP3    H132426   0.792   0.740  17.089 -0.3160  0.3725 -0.0507
 3645TIP3    H232427   0.874   0.842  17.013  0.6700  0.1181  0.6602
 3646TIP3   OH232428   4.832   2.846   2.255  0.5902 -0.6617 -0.0890
 3646TIP3    H132429   4.881   2.855   2.173  0.5629 -0.1644 -0.0539
 3646TIP3    H232430   4.742   2.869   2.232  0.5072 -0.8909  0.0008
 3647TIP3   OH232431   4.755   6.125  13.042  0.2326  0.2457 -0.3503
 3647TIP3    H132432   4.784   6.054  12.984  0.6514 -0.0618  0.2233
 3647TIP3    H232433   4.700   6.082  13.107 -1.0408  0.7341 -1.0548
 3648TIP3   OH232434   0.961   1.204   3.150  0.3116  0.0294  0.2930
 3648TIP3    H132435   0.924   1.183   3.064 -0.2884  0.2838  0.4836
 3648TIP3    H232436   0.922   1.140   3.209  2.1486 -1.3585  0.0975
 3649TIP3   OH232437   6.629   6.546   0.473  0.2580 -0.0039 -0.4167
 3649TIP3    H132438   6.647   6.638   0.451 -1.7279  0.4465 -0.3902
 3649TIP3    H232439   6.657   6.537   0.564 -0.5715  0.9358 -0.0451
 3650TIP3   OH232440   3.346   2.844  16.062 -0.0066 -0.0469  0.1756
 3650TIP3    H132441   3.397   2.769  16.093 -0.6984 -0.3845  0.5147
 3650TIP3    H232442   3.256   2.812  16.058 -0.3393  0.8274  0.5108
 3651TIP3   OH232443   3.310   2.457  14.487  0.1200 -0.3390  0.2835
 3651TIP3    H132444   3.325   2.497  14.402  0.1473  2.7939  1.6232
 3651TIP3    H232445   3.216   2.467  14.503  0.4023  0.9219  1.3758
 3652TIP3   OH232446   2.712   1.632   4.776  0.3554 -0.2170 -0.5332
 3652TIP3    H132447   2.688   1.719   4.745 -1.4731 -0.5605 -0.1710
 3652TIP3    H232448   2.800   1.618   4.742  1.2536  2.3115  0.5423
 3653TIP3   OH232449   0.885   0.498  11.872 -0.4780 -0.3269 -0.2769
 3653TIP3    H132450   0.954   0.479  11.809 -0.3067  0.4520 -0.3282
 3653TIP3    H232451   0.822   0.552  11.825 -1.8004 -2.0773 -0.6192
 3654TIP3   OH232452   3.076   5.495   2.795  0.4614  0.5608  0.4124
 3654TIP3    H132453   3.127   5.455   2.865  0.3207  0.5949  0.5346
 3654TIP3    H232454   3.117   5.463   2.714 -0.7136 -1.2815  0.4699
 3655TIP3   OH232455   5.780   0.292   3.960  0.2670  0.3915 -0.3779
 3655TIP3    H132456   5.854   0.292   3.899  0.6914  0.1910  0.1232
 3655TIP3    H232457   5.807   0.350   4.030  0.5645 -0.7926  0.5252
 3656TIP3   OH232458   5.217   2.529  14.129  0.4541  0.4605  0.4107
 3656TIP3    H132459   5.291   2.571  14.174  1.3418 -1.8174  1.2241
 3656TIP3    H232460   5.251   2.507  14.043  0.3365  0.4439  0.3683
 3657TIP3   OH232461   2.264   5.833   0.820 -0.1945 -0.1679 -0.5036
 3657TIP3    H132462   2.212   5.850   0.742 -0.5965  0.3525 -0.1310
 3657TIP3    H232463   2.327   5.905   0.824  0.7775 -0.9679 -1.1279
 3658TIP3   OH232464   0.229   2.144  15.285  0.2207 -0.3092  0.0271
 3658TIP3    H132465   0.188   2.132  15.371 -1.2642 -1.4859 -0.7927
 3658TIP3    H232466   0.322   2.156  15.304 -0.2920  1.1749  1.8903
 3659TIP3   OH232467   5.310   3.771  10.530  0.4253 -0.7069  0.5343
 3659TIP3    H132468   5.294   3.696  10.587 -2.2879 -0.4384  0.2611
 3659TIP3    H232469   5.264   3.843  10.572  0.6103  0.1339 -0.6508
 3660TIP3   OH232470   6.016   3.429  11.693 -0.2602  0.3246 -0.1911
 3660TIP3    H132471   6.000   3.356  11.754 -0.5763  1.7629  1.5149
 3660TIP3    H232472   6.037   3.503  11.749 -1.8126  2.0510 -1.7499
 3661TIP3   OH232473   3.489   6.499   5.250 -0.7619  0.2405 -0.0497
 3661TIP3    H132474   3.422   6.553   5.208 -0.2017  2.7916  2.0736
 3661TIP3    H232475   3.558   6.491   5.185 -2.1154 -0.5032 -1.4582
 3662TIP3   OH232476   3.530   0.802  12.395 -0.2361  0.2496  0.1024
 3662TIP3    H132477   3.467   0.868  12.424 -1.6191 -0.8092 -0.3707
 3662TIP3    H232478   3.585   0.848  12.332  0.2563  1.5150  1.3922
 3663TIP3   OH232479   0.602   3.429   2.170  0.1633 -0.1331 -0.7564
 3663TIP3    H132480   0.564   3.515   2.186  0.6188 -0.4453  2.8182
 3663TIP3    H232481   0.692   3.436   2.201  0.2381 -1.8383 -0.4752
 3664TIP3   OH232482   1.580   1.368  11.049 -0.4681  0.1656 -0.1955
 3664TIP3    H132483   1.659   1.420  11.066 -0.8113  0.8084 -0.5163
 3664TIP3    H232484   1.557   1.331  11.134  0.9951 -1.2374 -0.3508
 3665TIP3   OH232485   6.160   2.495  10.955  0.4274 -0.5230 -0.6442
 3665TIP3    H132486   6.226   2.447  10.906 -0.3301  0.8317 -3.1391
 3665TIP3    H232487   6.180   2.587  10.940  0.0338 -0.0155  1.5086
 3666TIP3   OH232488   4.845   0.129   2.381 -0.2001 -0.4654  0.2591
 3666TIP3    H132489   4.931   0.141   2.341  0.1963 -0.5724  1.0568
 3666TIP3    H232490   4.786   0.118   2.307  0.2161  1.1840 -0.3528
 3667TIP3   OH232491   0.325   5.932   5.074 -0.2059 -0.1381  0.5967
 3667TIP3    H132492   0.415   5.919   5.045 -0.1569  1.1485  0.1163
 3667TIP3    H232493   0.326   5.912   5.168  0.4026 -0.8408  0.4496
 3668TIP3   OH232494   2.402   1.401   6.513  0.0024 -0.3999 -0.4303
 3668TIP3    H132495   2.471   1.443   6.564 -1.4103 -0.2600  1.4625
 3668TIP3    H232496   2.428   1.309   6.508  0.9792 -0.1074 -0.9118
 3669TIP3   OH232497   5.614   2.483  16.007 -0.5819 -0.0990 -0.3243
 3669TIP3    H132498   5.666   2.544  16.059  0.0316 -0.8538 -0.0364
 3669TIP3    H232499   5.660   2.476  15.924 -0.0242 -1.0017  0.0407
 3670TIP3   OH232500   2.857   3.637   2.207 -0.0023 -0.9780 -0.2797
 3670TIP3    H132501   2.872   3.666   2.297 -1.5092 -1.3379  0.1207
 3670TIP3    H232502   2.920   3.686   2.155  0.2984 -0.1046  0.8652
 3671TIP3   OH232503   6.496   2.760  10.957 -0.5500 -0.5714 -0.0016
 3671TIP3    H132504   6.539   2.750  10.872  0.3577 -1.6105  0.5624
 3671TIP3    H232505   6.443   2.839  10.947  1.4746  0.7762 -0.7227
 3672TIP3   OH232506   6.414   0.198   5.111  0.4529  0.0485  0.5588
 3672TIP3    H132507   6.449   0.110   5.102  1.0846  0.3743 -0.4045
 3672TIP3    H232508   6.490   0.255   5.097 -0.2148  0.7538 -0.2977
 3673TIP3   OH232509   2.082   3.381   2.631  0.2713  0.1086 -0.3661
 3673TIP3    H132510   2.007   3.322   2.641 -1.1224  1.8519 -0.0054
 3673TIP3    H232511   2.142   3.356   2.701 -0.6730 -0.3505  0.2993
 3674TIP3   OH232512   6.487   4.802  13.927 -0.5591 -0.0507  0.3281
 3674TIP3    H132513   6.442   4.717  13.923 -1.3823  0.3503  0.8962
 3674TIP3    H232514   6.420   4.863  13.957 -0.0772  0.8828 -0.4433
 3675TIP3   OH232515   0.913   5.685  10.616  0.4764 -0.2646 -0.2957
 3675TIP3    H132516   0.825   5.647  10.622  0.4592 -0.2139 -0.2271
 3675TIP3    H232517   0.900   5.769  10.573  0.6110 -0.6627 -1.1172
 3676TIP3   OH232518   0.276   1.134  13.997 -0.5579 -0.0787  0.2030
 3676TIP3    H132519   0.305   1.220  13.964 -3.1723  0.5829 -0.5964
 3676TIP3    H232520   0.279   1.077  13.920 -2.3560  0.3052 -0.1953
 3677TIP3   OH232521   6.575   5.092   1.017 -0.2142  0.4362 -0.0698
 3677TIP3    H132522   6.670   5.096   1.024 -0.2022 -0.2046  0.2573
 3677TIP3    H232523   6.557   5.104   0.924  0.1504  1.1184 -0.0518
 3678TIP3   OH232524   5.839   6.474   4.400  0.3059  1.1048  0.2057
 3678TIP3    H132525   5.843   6.426   4.483  2.0724  1.6569  0.4928
 3678TIP3    H232526   5.930   6.474   4.368 -0.3704  0.6687 -1.8848
 3679TIP3   OH232527   4.713   2.802   4.485 -0.2863  0.2394 -0.3061
 3679TIP3    H132528   4.773   2.860   4.437 -1.2298 -0.4775 -2.5016
 3679TIP3    H232529   4.628   2.815   4.442 -1.2051 -0.4352  1.2420
 3680TIP3   OH232530   0.617   6.224   6.012  0.1541 -0.0435 -0.7290
 3680TIP3    H132531   0.523   6.215   5.995 -0.1427  0.8672  0.3162
 3680TIP3    H232532   0.635   6.157   6.078  0.1329  0.1043 -0.5723
 3681TIP3   OH232533   5.703   4.894   2.887  0.2664  0.1505 -0.6997
 3681TIP3    H132534   5.767   4.954   2.927 -0.1661 -0.7671  1.4905
 3681TIP3    H232535   5.739   4.877   2.799  2.1219  1.0195 -0.1744
 3682TIP3   OH232536   2.560   2.627  15.282 -0.2585  0.1957  0.3651
 3682TIP3    H132537   2.554   2.615  15.377 -1.9386 -1.5720  0.0904
 3682TIP3    H232538   2.653   2.615  15.262  0.4018  2.0816  1.9043
 3683TIP3   OH232539   3.052   6.638  16.401  0.0919  0.3263 -0.0326
 3683TIP3    H132540   3.006   6.721  16.406 -2.0949 -0.6504 -2.1307
 3683TIP3    H232541   3.113   6.649  16.328  0.4405  0.3707  0.2636
 3684TIP3   OH232542   0.872   3.579  13.204  0.5362 -0.2522 -0.1469
 3684TIP3    H132543   0.877   3.669  13.236  1.4855  0.2122 -1.5106
 3684TIP3    H232544   0.804   3.582  13.136 -0.0474 -0.7690  0.4057
 3685TIP3   OH232545   5.810   5.746   2.154 -0.7043 -0.1899 -0.0300
 3685TIP3    H132546   5.903   5.732   2.136 -0.5624 -0.0083  0.5306
 3685TIP3    H232547   5.778   5.661   2.182 -1.3122 -0.9019 -2.6196
 3686TIP3   OH232548   6.488   2.802   0.661  0.1297 -0.0705  0.0353
 3686TIP3    H132549   6.432   2.730   0.632 -2.6080  1.2084  1.8070
 3686TIP3    H232550   6.506   2.852   0.581 -0.2289 -1.1893 -0.7695
 3687TIP3   OH232551   1.415   0.380  11.434  0.0850 -0.1791  0.5786
 3687TIP3    H132552   1.400   0.475  11.430 -0.3447 -0.2388 -3.4591
 3687TIP3    H232553   1.508   0.370  11.413  0.2921 -0.6432  1.6997
 3688TIP3   OH232554   4.542   6.084  13.314 -0.0564 -0.4068  0.4800
 3688TIP3    H132555   4.568   6.002  13.271 -0.4301 -1.1647  1.6449
 3688TIP3    H232556   4.618   6.109  13.365  0.3174  0.3862 -0.4450
 3689TIP3   OH232557   3.134   4.311  11.904 -0.0496  0.2027  0.0958
 3689TIP3    H132558   3.149   4.317  11.809  0.2827  1.3995  0.2145
 3689TIP3    H232559   3.156   4.398  11.938  1.4883 -0.6775  1.5074
 3690TIP3   OH232560   4.601   3.788  12.821 -0.4680 -0.1882 -0.2810
 3690TIP3    H132561   4.634   3.707  12.783 -0.0084 -0.4709  0.6873
 3690TIP3    H232562   4.673   3.850  12.811  0.0163 -0.5185  0.9022
 3691TIP3   OH232563   5.726   0.028  13.928 -0.1482  0.0580 -0.3911
 3691TIP3    H132564   5.779   0.089  13.878  0.1067  1.0130  0.9833
 3691TIP3    H232565   5.637   0.063  13.923 -0.2956 -0.3708 -0.9316
 3692TIP3   OH232566   0.675   5.808   2.502  0.4171  0.0088  0.3065
 3692TIP3    H132567   0.770   5.807   2.500  0.4297  0.4244 -1.9784
 3692TIP3    H232568   0.650   5.718   2.522  1.2615 -0.0933  0.9521
 3693TIP3   OH232569   3.258   6.725  10.745 -0.4247  0.4648 -0.2003
 3693TIP3    H132570   3.306   6.755  10.668 -1.1488 -0.2229 -0.9409
 3693TIP3    H232571   3.323   6.682  10.800  0.0880  0.9207 -0.4435
 3694TIP3   OH232572   4.917   6.744  14.034 -0.6846 -0.2408  0.2713
 3694TIP3    H132573   4.869   6.718  13.955  1.9287 -2.9864 -0.6160
 3694TIP3    H232574   4.980   6.809  14.003 -0.2900 -0.6167  0.2769
 3695TIP3   OH232575   2.986   3.304   4.495 -0.0263  0.1597 -0.3547
 3695TIP3    H132576   3.021   3.365   4.560 -1.7558  0.5709  0.2643
 3695TIP3    H232577   2.949   3.233   4.547  1.1039 -0.9721 -1.0362
 3696TIP3   OH232578   5.452   3.732   0.293  0.2510  0.3842 -0.3295
 3696TIP3    H132579   5.492   3.679   0.362 -0.4383  0.5191  0.1908
 3696TIP3    H232580   5.413   3.669   0.233 -2.7527  0.2070  1.5781
 3697TIP3   OH232581   4.988   1.374   2.324 -0.0898  0.1816  0.1559
 3697TIP3    H132582   5.059   1.327   2.369 -0.3169 -1.2983 -0.9560
 3697TIP3    H232583   4.909   1.324   2.345 -0.7896  1.6163  1.0915
 3698TIP3   OH232584   0.172   1.902  15.685  0.1530  0.7032 -0.2998
 3698TIP3    H132585   0.260   1.932  15.706  0.0382  0.8652 -0.0526
 3698TIP3    H232586   0.186   1.818  15.641  0.3831  0.2588  0.6129
 3699TIP3   OH232587   1.766   5.913  16.466  0.1764  0.0178 -0.6674
 3699TIP3    H132588   1.805   5.986  16.417  1.9032  0.1946  0.8728
 3699TIP3    H232589   1.818   5.907  16.546  0.7660 -3.5096 -1.1415
 3700TIP3   OH232590   3.620   1.977  17.030 -0.8136  0.3179 -0.0723
 3700TIP3    H132591   3.557   1.952  16.962  0.5204 -2.4496 -0.4382
 3700TIP3    H232592   3.595   1.925  17.106  0.4644 -0.1706  0.0380
 3701TIP3   OH232593   0.721   4.204  11.287  0.3823 -0.9932  0.0831
 3701TIP3    H132594   0.762   4.280  11.246  2.0998 -1.2358  1.2584
 3701TIP3    H232595   0.634   4.200  11.248 -0.3016  2.3646  0.9288
 3702TIP3   OH232596   6.116   6.066  11.430  0.2532  0.3616  0.0641
 3702TIP3    H132597   6.021   6.056  11.422  0.2770 -2.1651  1.6928
 3702TIP3    H232598   6.151   6.027  11.349 -0.0878 -1.5015  0.7538
 3703TIP3   OH232599   1.745   5.442  14.242  0.0864  0.0167 -0.4008
 3703TIP3    H132600   1.806   5.419  14.311 -0.7384 -0.9401  0.0365
 3703TIP3    H232601   1.777   5.526  14.208  1.8802 -0.6601 -0.5006
 3704TIP3   OH232602   1.199   0.550   3.798 -0.2424  0.0249 -0.2247
 3704TIP3    H132603   1.172   0.470   3.843 -0.3652 -0.1477 -0.6044
 3704TIP3    H232604   1.219   0.611   3.869  1.0941 -0.7441  0.1030
 3705TIP3   OH232605   0.803   5.029   2.769  0.0914  0.4074 -0.5838
 3705TIP3    H132606   0.782   5.098   2.832  0.3811 -0.6835  0.7601
 3705TIP3    H232607   0.892   5.048   2.741 -0.1652  1.1015 -0.9317
 3706TIP3   OH232608   3.902   6.449  12.304  0.2003 -0.1612 -0.6840
 3706TIP3    H132609   3.976   6.426  12.248 -0.6955 -2.0932 -1.1343
 3706TIP3    H232610   3.875   6.535  12.272  2.8102  1.0926  0.1462
 3707TIP3   OH232611   0.123   6.700   2.532 -0.9926 -0.4304 -0.2913
 3707TIP3    H132612   0.056   6.692   2.600 -1.7417 -0.5510 -1.0285
 3707TIP3    H232613   0.181   6.770   2.563  0.3834 -2.3731  1.8665
 3708TIP3   OH232614   2.812   0.839   1.559 -0.1892 -0.5942 -1.0222
 3708TIP3    H132615   2.877   0.864   1.494 -0.0321  0.7002 -0.4094
 3708TIP3    H232616   2.791   0.921   1.604 -1.3451 -1.2066 -0.4021
 3709TIP3   OH232617   0.144   4.218  16.589  0.3300 -0.5917  0.1933
 3709TIP3    H132618   0.180   4.130  16.599 -1.5878 -1.4087  0.3103
 3709TIP3    H232619   0.192   4.255  16.515  0.1768 -2.3054 -0.8312
 3710TIP3   OH232620   4.418   1.767  15.136  0.3055 -0.2880  0.2233
 3710TIP3    H132621   4.509   1.767  15.106 -0.5227  2.7719 -3.0280
 3710TIP3    H232622   4.421   1.807  15.223  2.0398  0.5486 -0.1885
 3711TIP3   OH232623   5.420   3.937  15.451 -0.1765  0.0838  0.1186
 3711TIP3    H132624   5.407   3.984  15.368 -0.9179  2.7064  1.6278
 3711TIP3    H232625   5.512   3.950  15.472 -0.1013 -0.1844 -0.0321
 3712TIP3   OH232626   4.382   1.915  13.141 -0.3101 -0.0361  0.4883
 3712TIP3    H132627   4.310   1.919  13.204  0.0345  0.2749  0.8691
 3712TIP3    H232628   4.365   1.987  13.080 -0.8809 -0.6060 -0.0446
 3713TIP3   OH232629   0.713   4.748   4.346  0.1292  0.3595 -0.2471
 3713TIP3    H132630   0.754   4.760   4.260  0.4935 -1.7419 -0.4219
 3713TIP3    H232631   0.621   4.768   4.331  0.0039 -0.9262 -1.4104
 3714TIP3   OH232632   2.671   0.944   0.669 -0.2267 -0.1417 -0.5414
 3714TIP3    H132633   2.658   1.038   0.659 -1.1970 -0.0127  1.5270
 3714TIP3    H232634   2.751   0.937   0.722 -0.5823 -0.4598 -0.0484
 3715TIP3   OH232635   5.426   0.247   2.024 -0.5485  0.4867 -0.1658
 3715TIP3    H132636   5.519   0.240   2.046 -1.0523 -0.4986  1.8810
 3715TIP3    H232637   5.413   0.340   2.004  0.9706  0.5282 -1.0826
 3716TIP3   OH232638   2.679   3.363   6.493 -0.3324 -0.2734 -0.2995
 3716TIP3    H132639   2.677   3.295   6.426 -1.3162  0.3571 -0.9524
 3716TIP3    H232640   2.588   3.371   6.522 -0.3428  1.0867 -0.6058
 3717TIP3   OH232641   6.023   2.493   2.144 -1.3236 -0.0154 -0.4935
 3717TIP3    H132642   6.089   2.427   2.169 -0.8737  1.0225  1.2065
 3717TIP3    H232643   6.017   2.485   2.048  1.0086 -0.4007 -0.6716
 3718TIP3   OH232644   3.177   5.323   0.914  0.5230  0.3007 -0.4332
 3718TIP3    H132645   3.109   5.315   0.847  0.4672  0.9124 -0.4574
 3718TIP3    H232646   3.255   5.285   0.874  0.0066 -1.1819 -0.1005
 3719TIP3   OH232647   5.805   5.392  17.140 -0.6597  0.0874  0.7477
 3719TIP3    H132648   5.793   5.298  17.126 -0.4627  0.0397  0.9087
 3719TIP3    H232649   5.897   5.408  17.121 -0.9180  0.4289 -0.2972
 3720TIP3   OH232650   4.599   1.951   5.230 -0.2392  0.4269  0.3758
 3720TIP3    H132651   4.603   1.855   5.223  1.8566  0.4875 -0.0236
 3720TIP3    H232652   4.618   1.968   5.322  0.7550  0.4795  0.1706
 3721TIP3   OH232653   3.891   4.628   3.810 -0.0366 -0.2063  0.1248
 3721TIP3    H132654   3.889   4.622   3.715  0.9123  0.5253  0.0419
 3721TIP3    H232655   3.966   4.574   3.836 -0.4649 -0.6373  0.4854
 3722TIP3   OH232656   6.660   1.558   4.120 -0.7455 -0.7320  0.1338
 3722TIP3    H132657   6.744   1.595   4.149 -1.3237  1.0301 -0.2852
 3722TIP3    H232658   6.684   1.482   4.067  0.6278  0.0495 -0.4282
 3723TIP3   OH232659   1.477   1.770   1.282 -0.0266 -0.4386  0.4336
 3723TIP3    H132660   1.484   1.836   1.213  1.4449 -0.1818  0.7917
 3723TIP3    H232661   1.383   1.759   1.296 -0.3317 -0.0039 -1.1327
 3724TIP3   OH232662   3.107   5.047   1.807 -0.3219  0.2440  0.2847
 3724TIP3    H132663   3.128   4.992   1.883 -1.0018 -0.3458  0.0496
 3724TIP3    H232664   3.027   5.009   1.771 -0.1744  0.7069 -0.5494
 3725TIP3   OH232665   6.149   0.822  16.510  0.0899  0.6212  0.2818
 3725TIP3    H132666   6.100   0.847  16.589 -0.5431  2.1474 -0.5587
 3725TIP3    H232667   6.202   0.747  16.538 -2.3108 -0.7993  1.3769
 3726TIP3   OH232668   4.455   2.638  13.855  0.2608  0.8321 -0.1024
 3726TIP3    H132669   4.546   2.632  13.886  0.3015 -1.2235 -0.4600
 3726TIP3    H232670   4.427   2.726  13.879  1.5843  0.7178  2.1947
 3727TIP3   OH232671   2.528   6.023  13.478  0.3415  0.3485 -0.3285
 3727TIP3    H132672   2.601   6.062  13.430  0.1175 -0.1656 -1.1121
 3727TIP3    H232673   2.489   6.096  13.526  1.5287  0.5809  0.3268
 3728TIP3   OH232674   0.525   0.564  14.451 -0.0588 -0.0484 -0.1180
 3728TIP3    H132675   0.508   0.647  14.407  1.5726  0.0221 -0.6881
 3728TIP3    H232676   0.459   0.560  14.520 -0.2585  1.6810 -0.1497
 3729TIP3   OH232677   3.598   5.825  14.295 -0.1681  0.4985 -0.2006
 3729TIP3    H132678   3.511   5.841  14.333 -0.8077  0.3815 -1.5188
 3729TIP3    H232679   3.583   5.831  14.200  1.3469  0.8540 -0.4469
 3730TIP3   OH232680   6.490   1.911   6.630 -0.4051 -0.4545  0.3904
 3730TIP3    H132681   6.552   1.850   6.591 -0.7887 -1.0159  0.6546
 3730TIP3    H232682   6.464   1.968   6.558 -0.2098 -0.7327  0.0969
 3731TIP3   OH232683   6.157   3.569  15.402  0.1775 -0.3830  0.5239
 3731TIP3    H132684   6.222   3.589  15.470  2.6990 -0.2313 -1.7446
 3731TIP3    H232685   6.096   3.508  15.444  0.9909  0.4760  3.1697
 3732TIP3   OH232686   1.274   0.875  15.542  0.2491  0.2426  0.5711
 3732TIP3    H132687   1.317   0.956  15.570  0.5101  1.8135 -3.6310
 3732TIP3    H232688   1.181   0.895  15.549  0.2855  0.2133  1.2148
 3733TIP3   OH232689   6.474   3.192   2.461 -0.5646  0.1613 -0.2071
 3733TIP3    H132690   6.477   3.252   2.386 -1.6589 -1.0528 -1.2878
 3733TIP3    H232691   6.475   3.105   2.421  0.2325 -0.5459  1.2738
 3734TIP3   OH232692   4.440   2.689   5.417 -0.2315  0.1121  0.0688
 3734TIP3    H132693   4.373   2.752   5.443  0.4256  0.4138  1.0734
 3734TIP3    H232694   4.403   2.604   5.441 -0.5962  0.2070 -0.1460
 3735TIP3   OH232695   2.357   2.470  14.150 -0.3426  0.3429 -0.6247
 3735TIP3    H132696   2.436   2.520  14.127 -0.1187  0.1222 -0.3358
 3735TIP3    H232697   2.388   2.400  14.207 -0.6978  0.0319 -0.8085
 3736TIP3   OH232698   1.907   5.167   0.021  0.6211  0.2102  0.2698
 3736TIP3    H132699   1.932   5.214   0.101  1.6462 -0.6557  0.4778
 3736TIP3    H232700   1.825   5.208  -0.007  0.5031  0.8364  1.5014
 3737TIP3   OH232701   6.535   2.937  15.812 -0.6453  0.0466 -0.2987
 3737TIP3    H132702   6.545   2.922  15.718 -3.1760  2.0163 -0.9835
 3737TIP3    H232703   6.487   2.860  15.843  0.0557 -0.5351 -0.6428
 3738TIP3   OH232704   4.172   5.415   5.087  0.4883  0.1063  0.0107
 3738TIP3    H132705   4.106   5.345   5.082 -0.3794  0.8845  0.3442
 3738TIP3    H232706   4.130   5.490   5.045  0.5496  1.0644  1.5897
 3739TIP3   OH232707   0.047   3.119   2.623 -0.1873 -0.3422 -0.2449
 3739TIP3    H132708   0.126   3.075   2.592  0.6939 -0.0405  1.4865
 3739TIP3    H232709   0.069   3.151   2.710 -2.5769 -1.2621  0.7999
 3740TIP3   OH232710   4.379   1.185  12.820  0.0111 -0.1071 -0.2896
 3740TIP3    H132711   4.368   1.278  12.840 -3.5304 -0.2703 -0.8945
 3740TIP3    H232712   4.412   1.184  12.730  1.2636  0.5246  0.1382
 3741TIP3   OH232713   1.495   4.964   1.187  0.1838  0.1070 -0.0811
 3741TIP3    H132714   1.584   4.940   1.212  0.6613  0.2713 -1.4957
 3741TIP3    H232715   1.439   4.900   1.231  0.7314  1.5753  2.9816
 3742TIP3   OH232716   3.759   2.421   3.954 -0.7014  0.0816  0.4394
 3742TIP3    H132717   3.808   2.374   3.886  1.3122 -0.1122  1.9220
 3742TIP3    H232718   3.771   2.513   3.933 -1.5224  0.0166 -0.3841
 3743TIP3   OH232719   1.685   5.654   6.676 -0.0189 -0.5398  0.2127
 3743TIP3    H132720   1.775   5.635   6.702  0.4576  0.3678 -0.6844
 3743TIP3    H232721   1.680   5.626   6.585 -0.7828 -1.0039  0.3902
 3744TIP3   OH232722   2.243   5.954  14.378  0.1850  0.1481  0.0041
 3744TIP3    H132723   2.202   6.029  14.421  1.5451  1.1208 -0.3357
 3744TIP3    H232724   2.285   5.906  14.448  2.4028  1.7323 -0.1307
 3745TIP3   OH232725   1.695   3.371  16.306 -0.3045  0.3284 -0.4093
 3745TIP3    H132726   1.646   3.382  16.387  0.6234 -1.4549  0.4685
 3745TIP3    H232727   1.678   3.451  16.256 -2.0838  0.8319  0.8908
 3746TIP3   OH232728   5.603   3.341  17.042  0.2737 -0.4611 -0.1682
 3746TIP3    H132729   5.631   3.408  17.105  0.3187  0.6904 -1.3676
 3746TIP3    H232730   5.640   3.370  16.959 -1.0077 -1.1383 -1.0054
 3747TIP3   OH232731   2.306   5.599  14.080 -0.0511 -0.1243 -0.1124
 3747TIP3    H132732   2.301   5.657  14.157 -0.1606  0.9386 -0.8941
 3747TIP3    H232733   2.221   5.610  14.037  0.1443 -0.4246 -0.5813
 3748TIP3   OH232734   6.549   6.398  14.960  0.5214 -0.1233  0.2311
 3748TIP3    H132735   6.586   6.428  15.043 -0.5004  1.0290  0.3006
 3748TIP3    H232736   6.519   6.478  14.917 -1.1724 -0.9190 -0.1520
 3749TIP3   OH232737   0.775   5.173   2.425 -0.0104 -0.6310  0.0599
 3749TIP3    H132738   0.763   5.091   2.472  0.7430 -1.3616 -1.0073
 3749TIP3    H232739   0.865   5.171   2.394 -0.9220 -0.9661 -2.8470
 3750TIP3   OH232740   4.140   0.094  10.515  0.5278 -0.6131  0.6089
 3750TIP3    H132741   4.095   0.029  10.459 -0.1369 -1.2129  1.8072
 3750TIP3    H232742   4.087   0.173  10.506  0.1924 -0.8252  0.7052
 3751TIP3   OH232743   1.683   2.810  11.129 -0.1312  0.0346 -0.9522
 3751TIP3    H132744   1.747   2.840  11.065  0.4250 -1.3069 -1.0458
 3751TIP3    H232745   1.723   2.830  11.214 -0.3630  0.7646 -1.0080
 3752TIP3   OH232746   5.254   3.677   1.290 -0.1773 -0.3941 -0.0316
 3752TIP3    H132747   5.338   3.632   1.280 -0.7855 -2.0266  1.5863
 3752TIP3    H232748   5.253   3.707   1.381 -1.6175 -1.0460  0.1958
 3753TIP3   OH232749   6.733   1.259  16.630 -0.3788 -0.3008  0.7458
 3753TIP3    H132750   6.778   1.342  16.611 -1.1053 -0.1512 -0.4088
 3753TIP3    H232751   6.642   1.284  16.645 -0.9890 -1.0287 -1.3822
 3754TIP3   OH232752   1.886   1.014  16.800 -0.3809 -0.1391 -0.2184
 3754TIP3    H132753   1.891   0.944  16.865 -1.6715 -0.8036 -0.7956
 3754TIP3    H232754   1.853   1.089  16.849  0.5302 -0.0638  0.2983
 3755TIP3   OH232755   5.421   2.855  13.203 -0.4805  0.2657 -0.5737
 3755TIP3    H132756   5.376   2.835  13.121 -1.4547 -1.2308  0.2923
 3755TIP3    H232757   5.408   2.778  13.258  1.1151  0.7746  0.6022
 3756TIP3   OH232758   0.266   3.381  10.684 -0.1945  0.0755 -0.7188
 3756TIP3    H132759   0.304   3.398  10.598  0.7104 -1.2602 -0.6255
 3756TIP3    H232760   0.340   3.392  10.745 -0.2883 -1.0989 -0.3683
 3757TIP3   OH232761   1.309   4.990   3.559  0.4356 -0.1128  0.1880
 3757TIP3    H132762   1.240   4.943   3.604  2.8761 -1.6975  2.5827
 3757TIP3    H232763   1.317   4.946   3.474  0.1302 -1.5578  0.8825
 3758TIP3   OH232764   3.832   0.734  14.999  0.7765 -0.4327  0.5388
 3758TIP3    H132765   3.867   0.673  15.064  0.8850 -1.3855 -0.3901
 3758TIP3    H232766   3.748   0.762  15.036  1.1380 -0.4254  1.3981
 3759TIP3   OH232767   1.185   0.357   3.200 -0.3416  0.1237  0.5163
 3759TIP3    H132768   1.160   0.342   3.108  0.9815 -1.4735  0.3697
 3759TIP3    H232769   1.182   0.452   3.210 -1.4025  0.2858 -0.9124
 3760TIP3   OH232770   4.329   6.674  14.887 -0.0560 -0.4194 -0.0202
 3760TIP3    H132771   4.309   6.646  14.976 -0.4849  1.5905  0.5622
 3760TIP3    H232772   4.411   6.630  14.866  0.2872 -0.5894  1.5505
 3761TIP3   OH232773   2.521   3.286   1.269 -0.2840  0.6192 -0.4063
 3761TIP3    H132774   2.520   3.308   1.176 -0.3911 -0.3766 -0.6547
 3761TIP3    H232775   2.505   3.191   1.272 -2.0984  0.9059  0.7045
 3762TIP3   OH232776   0.997   5.036  13.980  0.4083  0.1024  0.2939
 3762TIP3    H132777   1.067   5.016  14.042  2.0167  0.6845 -1.2143
 3762TIP3    H232778   1.022   4.989  13.901 -1.3366 -0.2582 -0.0634
 3763TIP3   OH232779   4.106   1.927  14.843 -0.3611 -0.0434  0.0749
 3763TIP3    H132780   4.086   1.993  14.777  0.5287 -1.2081 -1.4672
 3763TIP3    H232781   4.202   1.923  14.845 -0.3340 -2.4148 -1.1993
 3764TIP3   OH232782   3.935   2.931   3.382  0.7954 -0.0709  0.2929
 3764TIP3    H132783   3.953   2.931   3.288  0.3370 -1.6781  0.1609
 3764TIP3    H232784   3.841   2.912   3.388  1.2288 -2.3334  1.0612
 3765TIP3   OH232785   1.259   4.965  10.988 -0.4159  0.6479  0.3448
 3765TIP3    H132786   1.297   5.029  11.048  0.5790  0.2163  0.1943
 3765TIP3    H232787   1.301   4.882  11.012 -2.6145 -0.2463  1.4174
 3766TIP3   OH232788   4.660   1.070   4.527 -0.2684 -0.0233 -0.2873
 3766TIP3    H132789   4.698   1.105   4.607 -1.6648  0.3740  0.2293
 3766TIP3    H232790   4.670   1.140   4.463  0.8238 -0.3314 -0.4700
 3767TIP3   OH232791   5.379   3.673  15.128  0.2533  0.0448  0.0886
 3767TIP3    H132792   5.380   3.585  15.165  0.9278 -0.8025 -1.8139
 3767TIP3    H232793   5.306   3.716  15.173 -0.4869 -1.6697  0.6378
 3768TIP3   OH232794   0.703   6.834  14.591  0.2852  0.7597 -0.0108
 3768TIP3    H132795   0.754   6.875  14.660  0.4644  2.4407 -1.0982
 3768TIP3    H232796   0.741   6.866  14.509  0.6444 -1.8457 -0.9769
 3769TIP3   OH232797   2.044   6.215   1.511 -0.1866  0.0654 -0.0067
 3769TIP3    H132798   2.000   6.235   1.593  0.2917  0.5066  0.1469
 3769TIP3    H232799   2.071   6.300   1.476  0.6301 -0.1955 -0.0429
 3770TIP3   OH232800   3.466   6.294   5.892  0.0130 -0.1651 -0.1437
 3770TIP3    H132801   3.415   6.218   5.922 -1.8469  1.9741  2.6520
 3770TIP3    H232802   3.416   6.370   5.923  2.0767  2.2476 -2.2765
 3771TIP3   OH232803   0.522   6.216  12.880  0.0061 -0.5537  0.1445
 3771TIP3    H132804   0.614   6.208  12.856  0.2050  1.4255  0.0956
 3771TIP3    H232805   0.519   6.287  12.945 -1.6050  0.2785 -0.7589
 3772TIP3   OH232806   5.932   1.276  16.302  0.0967 -0.1672 -0.1296
 3772TIP3    H132807   5.868   1.274  16.231 -0.7804  3.3225  0.3537
 3772TIP3    H232808   6.017   1.270  16.259 -0.4532 -2.3561 -1.0127
 3773TIP3   OH232809   4.161   0.708   6.198  0.4061  0.2712  0.1482
 3773TIP3    H132810   4.245   0.663   6.201  0.5576  0.5710  0.4341
 3773TIP3    H232811   4.109   0.667   6.268  0.6654  0.7780  0.6411
 3774TIP3   OH232812   0.399   5.609  14.571 -0.1479  0.0687 -0.3073
 3774TIP3    H132813   0.327   5.660  14.607 -0.4736 -0.5215 -0.1015
 3774TIP3    H232814   0.437   5.565  14.648 -0.9602 -1.3487 -0.6777
 3775TIP3   OH232815   0.682   0.551   5.101  0.7599  0.6006  0.4192
 3775TIP3    H132816   0.756   0.557   5.162  0.8203 -0.8360  0.5348
 3775TIP3    H232817   0.661   0.457   5.100  1.4899  0.3858 -2.6312
 3776TIP3   OH232818   2.187   0.814   1.621  0.6107 -0.3422  0.2105
 3776TIP3    H132819   2.126   0.741   1.604  0.1623  0.1033 -0.1147
 3776TIP3    H232820   2.156   0.885   1.565 -0.2406  0.8142  2.0498
 3777TIP3   OH232821   6.278   6.699  15.221  0.1806  0.1355 -0.0484
 3777TIP3    H132822   6.352   6.742  15.264  2.8322 -1.5304 -2.5866
 3777TIP3    H232823   6.285   6.607  15.248  0.0683 -0.3455 -1.5413
 3778TIP3   OH232824   0.556   2.546  11.512 -0.1330  0.2927  0.1299
 3778TIP3    H132825   0.592   2.461  11.536  0.3918  0.3981 -0.2689
 3778TIP3    H232826   0.619   2.610  11.547  0.8598  0.4445 -1.7974
 3779TIP3   OH232827   3.753   4.044   0.455  0.4029 -0.0374 -0.3008
 3779TIP3    H132828   3.692   4.110   0.422  0.3862 -0.5183 -1.2397
 3779TIP3    H232829   3.702   3.993   0.518 -0.7342 -1.5397 -2.3247
 3780TIP3   OH232830   4.240   6.239   5.593 -0.0043  0.1460  0.1621
 3780TIP3    H132831   4.262   6.196   5.510 -1.0380 -0.4766  0.2039
 3780TIP3    H232832   4.147   6.221   5.606 -0.4267  2.1889  0.3009
 3781TIP3   OH232833   1.801   5.981  14.959  0.4907  0.0833 -0.4031
 3781TIP3    H132834   1.736   6.050  14.963  0.9813  0.5907 -0.9958
 3781TIP3    H232835   1.827   5.977  14.867 -0.8333 -2.1303 -0.7401
 3782TIP3   OH232836   2.371   2.782  16.876  0.2335 -0.6249 -0.1921
 3782TIP3    H132837   2.457   2.790  16.834 -0.4076  1.0595 -1.2827
 3782TIP3    H232838   2.338   2.697  16.847  0.5420 -0.2372 -1.7799
 3783TIP3   OH232839   0.765   6.162  13.155 -0.1338  0.1778 -0.1561
 3783TIP3    H132840   0.831   6.121  13.210 -0.6262  1.9304  1.8806
 3783TIP3    H232841   0.802   6.161  13.067  1.9982 -0.0877  0.6934
 3784TIP3   OH232842   2.314   0.285   2.675 -0.1156  0.1679  0.3720
 3784TIP3    H132843   2.286   0.374   2.695  0.8948  0.9591 -1.4736
 3784TIP3    H232844   2.244   0.249   2.621  0.0917  0.3526 -0.0277
 3785TIP3   OH232845   1.287   5.236  15.548  0.8289  0.1294  0.5418
 3785TIP3    H132846   1.374   5.219  15.513  0.0452 -0.9353 -1.0660
 3785TIP3    H232847   1.258   5.152  15.583  0.0506  0.1759  0.0464
 3786TIP3   OH232848   1.199   4.427  16.650  0.2508  0.2924  0.1599
 3786TIP3    H132849   1.278   4.458  16.694  1.1065  0.1714 -1.2300
 3786TIP3    H232850   1.161   4.505  16.609  0.4087  0.1338 -0.3022
 3787TIP3   OH232851   5.831   5.812   5.446 -0.5130 -0.0634 -0.4282
 3787TIP3    H132852   5.754   5.831   5.393 -1.0064  1.1335  0.6493
 3787TIP3    H232853   5.874   5.738   5.403 -1.7702 -0.1553 -1.5483
 3788TIP3   OH232854   5.003   2.122  13.714 -0.0190  0.0009 -0.5654
 3788TIP3    H132855   4.967   2.153  13.631 -2.0380 -0.1011  0.2033
 3788TIP3    H232856   4.926   2.101  13.767  1.2147 -0.3902  1.1735
 3789TIP3   OH232857   6.368   4.880   2.205 -0.2635  0.2717 -0.0176
 3789TIP3    H132858   6.317   4.814   2.252 -1.2981  1.1192  0.0663
 3789TIP3    H232859   6.336   4.876   2.115 -0.8446  1.1386  0.1384
 3790TIP3   OH232860   3.548   4.243  15.057  0.3864  0.0637 -0.2413
 3790TIP3    H132861   3.601   4.261  14.980  3.6957 -2.3086  1.2284
 3790TIP3    H232862   3.531   4.330  15.095  1.5043  1.0730 -1.9003
 3791TIP3   OH232863   0.698   6.410  14.869 -0.1468  0.2109 -0.5586
 3791TIP3    H132864   0.751   6.355  14.926 -0.6134 -0.6180 -0.9050
 3791TIP3    H232865   0.761   6.470  14.828  0.2422  0.5362  0.4956
 3792TIP3   OH232866   2.954   2.572  15.661  0.4049 -0.1800  0.2165
 3792TIP3    H132867   2.985   2.600  15.574  0.8761 -1.7926 -0.1651
 3792TIP3    H232868   2.893   2.501  15.643  0.3103 -0.3596  1.1971
 3793TIP3   OH232869   0.046   2.804   5.127 -0.3129  0.6485  0.3942
 3793TIP3    H132870   0.079   2.771   5.210 -0.6718 -0.1066  0.2486
 3793TIP3    H232871  -0.026   2.862   5.150 -2.5034 -1.9487  0.5589
 3794TIP3   OH232872   2.842   3.032  15.421  0.4270  0.3974 -0.2012
 3794TIP3    H132873   2.848   2.988  15.506  0.3090 -1.4856 -1.1082
 3794TIP3    H232874   2.755   3.072  15.421 -0.1952 -0.8992 -0.0035
 3795TIP3   OH232875   2.339   6.586   6.055 -0.0477 -0.3411 -0.0147
 3795TIP3    H132876   2.321   6.650   5.986  3.5649  1.2255  0.2205
 3795TIP3    H232877   2.385   6.515   6.010 -1.8412 -1.6558  0.1319
 3796TIP3   OH232878   0.813   0.855  13.768  0.2432  0.2747  0.0173
 3796TIP3    H132879   0.842   0.783  13.712 -0.8631 -0.8022  0.7842
 3796TIP3    H232880   0.841   0.934  13.722 -2.3598 -0.4647 -3.1290
 3797TIP3   OH232881   1.239   4.508  15.712 -0.1495 -0.6829 -0.2495
 3797TIP3    H132882   1.202   4.420  15.720 -1.1496 -0.3333 -0.8769
 3797TIP3    H232883   1.185   4.563  15.768 -0.0357 -0.3215 -0.4845
 3798TIP3   OH232884   4.308   6.828   3.713  0.3402 -0.0843 -0.1691
 3798TIP3    H132885   4.298   6.905   3.769  1.9161 -0.9731  1.4332
 3798TIP3    H232886   4.247   6.765   3.749  1.2075 -0.5868  0.4618
 3799TIP3   OH232887   6.629   6.322   1.638  0.1077 -0.3149  0.0522
 3799TIP3    H132888   6.579   6.243   1.617  1.4337 -1.1008 -0.2811
 3799TIP3    H232889   6.700   6.291   1.695 -1.1204  1.1572  2.5145
 3800TIP3   OH232890   5.219   0.657  16.759 -0.1852 -0.1162  0.4174
 3800TIP3    H132891   5.246   0.594  16.692 -0.6153  1.4343 -1.2986
 3800TIP3    H232892   5.166   0.607  16.820 -0.9251 -1.3461 -1.1595
 3801TIP3   OH232893   5.133   2.497  14.548 -0.3238 -0.1443  0.3376
 3801TIP3    H132894   5.167   2.576  14.507  0.9261  0.5867  2.6429
 3801TIP3    H232895   5.040   2.497  14.525  0.2441  0.2627 -2.2813
 3802TIP3   OH232896   1.891   3.756   1.535  1.2866 -0.3814  0.2446
 3802TIP3    H132897   1.805   3.717   1.547  1.1143  0.3124  1.3499
 3802TIP3    H232898   1.952   3.694   1.576  1.2911 -0.6828 -0.2012
 3803TIP3   OH232899   1.098   3.501  12.823  0.1223 -0.3319  0.0680
 3803TIP3    H132900   1.193   3.486  12.821  0.0715 -0.6038 -0.5005
 3803TIP3    H232901   1.069   3.456  12.902  0.5183  0.0921  0.4661
 3804TIP3   OH232902   6.523   4.037  12.954  0.4610  0.3848 -0.8454
 3804TIP3    H132903   6.609   4.054  12.916  1.0953 -0.5139  0.1387
 3804TIP3    H232904   6.492   4.124  12.981  2.2985  0.4715  1.3085
 3805TIP3   OH232905   3.840   1.105   2.676 -0.1228 -0.7068  0.3070
 3805TIP3    H132906   3.764   1.049   2.696 -0.6905 -0.0021  0.1764
 3805TIP3    H232907   3.832   1.122   2.583 -0.1031 -0.1915  0.3994
 3806TIP3   OH232908   4.897   4.519   0.689  0.2404  0.1607  0.1326
 3806TIP3    H132909   4.831   4.454   0.715  1.5212 -0.8342  1.0710
 3806TIP3    H232910   4.935   4.483   0.609 -0.6556  0.9870 -0.6942
 3807TIP3   OH232911   0.524   4.710  17.092  0.3860 -0.1664 -0.0391
 3807TIP3    H132912   0.557   4.631  17.135 -0.6414 -0.7846 -0.3367
 3807TIP3    H232913   0.439   4.683  17.055  1.2598  0.2749 -2.5845
 3808TIP3   OH232914   3.290   5.463   3.503 -0.2049  0.8115 -0.1323
 3808TIP3    H132915   3.224   5.394   3.510 -0.1488  0.5856 -1.5223
 3808TIP3    H232916   3.350   5.448   3.576 -1.1630  0.4522  0.5899
 3809TIP3   OH232917   3.217   5.583  16.976 -0.4281 -0.1982 -0.3758
 3809TIP3    H132918   3.297   5.546  16.938  0.2988 -0.1185  1.0198
 3809TIP3    H232919   3.206   5.667  16.932  1.1198  0.4823  0.4675
 3810TIP3   OH232920   5.294   5.342   0.742 -0.5270 -0.1181 -0.1679
 3810TIP3    H132921   5.272   5.325   0.651 -1.5436  1.7600 -0.3127
 3810TIP3    H232922   5.247   5.423   0.764 -0.8159 -0.8605  2.2139
 3811TIP3   OH232923   2.385   4.200  11.830 -0.1175  0.6136 -0.8687
 3811TIP3    H132924   2.410   4.276  11.776 -1.3773  1.2146 -0.6281
 3811TIP3    H232925   2.296   4.178  11.802 -0.1208 -0.1914 -0.2683
 3812TIP3   OH232926   2.088   5.749  12.401  0.0468 -0.1196 -1.0254
 3812TIP3    H132927   2.102   5.655  12.394 -0.8819 -0.3663  0.0235
 3812TIP3    H232928   2.142   5.776  12.476 -0.5522 -0.0412 -0.6085
 3813TIP3   OH232929   5.645   0.958   0.747 -0.0510 -0.5267  0.0928
 3813TIP3    H132930   5.599   0.874   0.747  0.4729 -0.8355 -1.3763
 3813TIP3    H232931   5.732   0.938   0.783  0.0738 -0.6130 -0.2570
 3814TIP3   OH232932   6.197   5.525   2.377 -0.4625 -0.2046  0.1660
 3814TIP3    H132933   6.104   5.548   2.382 -0.3179  0.2275  0.9211
 3814TIP3    H232934   6.212   5.471   2.455 -0.1916 -0.6920 -0.2176
 3815TIP3   OH232935   6.731   3.266   4.007  0.0288  0.1206 -0.4838
 3815TIP3    H132936   6.672   3.222   3.946  0.3811 -1.0186 -0.0223
 3815TIP3    H232937   6.695   3.247   4.093 -0.0514  1.1107 -0.2891
 3816TIP3   OH232938   1.031   1.034  14.592 -0.3012  0.2320 -0.3101
 3816TIP3    H132939   0.981   1.046  14.512  0.6759  0.0123 -0.9664
 3816TIP3    H232940   0.998   1.102  14.652 -2.8375 -1.2010  0.0455
 3817TIP3   OH232941   2.220   2.346  15.174 -0.3116  0.3552  0.6230
 3817TIP3    H132942   2.126   2.331  15.175 -0.3236  0.3637  0.1171
 3817TIP3    H232943   2.246   2.344  15.266 -0.8700  0.7697  0.7927
 3818TIP3   OH232944   0.183   0.856  14.070 -0.8698 -0.2358  0.0064
 3818TIP3    H132945   0.206   0.928  14.012 -0.6897  0.1173  0.5025
 3818TIP3    H232946   0.088   0.858  14.075 -0.8451  0.3399  0.4616
 3819TIP3   OH232947   1.629   2.052   0.030  0.1094  0.0039  0.8532
 3819TIP3    H132948   1.605   2.128  -0.024  1.1906 -0.5050 -0.4017
 3819TIP3    H232949   1.691   2.087   0.094 -0.9152  0.5497  1.5736
 3820TIP3   OH232950   5.255   1.374   1.956  0.7406  0.0964  0.1022
 3820TIP3    H132951   5.205   1.430   1.897 -0.1780  0.3588  1.0975
 3820TIP3    H232952   5.222   1.396   2.043  1.6564 -0.6948  0.6625
 3821TIP3   OH232953   0.006   2.719  11.974  0.8015 -0.0289  0.3418
 3821TIP3    H132954  -0.014   2.709  12.067  1.8479 -1.6115  0.4439
 3821TIP3    H232955  -0.023   2.637  11.934 -3.0103  1.9376 -1.4647
 3822TIP3   OH232956   0.002   0.711  16.124 -0.1456 -0.1136 -0.3192
 3822TIP3    H132957   0.083   0.719  16.175 -0.1565 -1.0267 -0.1532
 3822TIP3    H232958  -0.067   0.738  16.184 -0.0028  0.3406 -0.3546
 3823TIP3   OH232959   3.033   3.929   1.841  0.9174  0.2879 -0.4785
 3823TIP3    H132960   2.973   3.940   1.768  1.5767  0.3175 -1.0281
 3823TIP3    H232961   3.089   4.006   1.839 -0.2059  1.2173  1.1927
 3824TIP3   OH232962   0.132   3.800   3.635 -0.1194  0.5064  0.1656
 3824TIP3    H132963   0.075   3.826   3.707  0.8979 -0.3610  1.3305
 3824TIP3    H232964   0.157   3.710   3.655  1.2114  0.6748 -0.6015
 3825TIP3   OH232965   3.790   6.096   5.584  0.4590  0.1107 -0.0480
 3825TIP3    H132966   3.839   6.014   5.579 -0.5328 -0.5174  0.2344
 3825TIP3    H232967   3.755   6.099   5.673  2.1438  1.8613  0.6369
 3826TIP3   OH232968   6.395   6.123   3.107  0.6055 -0.1332 -0.2279
 3826TIP3    H132969   6.410   6.033   3.078  2.1858  0.8070 -2.6515
 3826TIP3    H232970   6.448   6.132   3.186  1.4792 -0.9559 -0.7050
 3827TIP3   OH232971   2.966   0.847   1.886 -0.0876  0.6171  0.1845
 3827TIP3    H132972   3.052   0.819   1.919 -1.7099 -0.6640  3.8153
 3827TIP3    H232973   2.936   0.774   1.833  1.0647  1.1726 -1.3224
 3828TIP3   OH232974   2.518   3.829  12.767  0.0332 -0.0340 -0.1817
 3828TIP3    H132975   2.500   3.739  12.793 -2.0981 -0.1204 -1.7275
 3828TIP3    H232976   2.500   3.881  12.845  2.1106 -0.9493  0.9927
 3829TIP3   OH232977   2.670   5.754   2.228 -0.1986 -0.2887 -0.5393
 3829TIP3    H132978   2.651   5.805   2.149  3.3409  0.8578 -0.8123
 3829TIP3    H232979   2.751   5.791   2.261 -0.3941 -2.2330  2.4344
 3830TIP3   OH232980   2.137   6.150  14.155 -0.2883 -0.4088 -0.3771
 3830TIP3    H132981   2.156   6.059  14.133 -0.2451 -0.4098 -0.3368
 3830TIP3    H232982   2.098   6.186  14.076 -0.8322 -0.6197 -0.2081
 3831TIP3   OH232983   0.503   4.070   1.609  0.2617  0.2581 -1.0705
 3831TIP3    H132984   0.536   4.065   1.699 -1.1964  1.4141 -0.4276
 3831TIP3    H232985   0.522   4.159   1.581  0.0203  0.1366 -1.6381
 3832TIP3   OH232986   1.553   0.835  15.311  0.5653  0.2597 -0.0926
 3832TIP3    H132987   1.595   0.750  15.301  0.1991  0.3166 -2.9045
 3832TIP3    H232988   1.625   0.894  15.334  0.9507 -0.6081  1.0558
 3833TIP3   OH232989   0.982   4.940   6.008 -0.7111  0.1739  0.9391
 3833TIP3    H132990   0.909   4.882   6.027 -1.2187  0.3501 -0.3683
 3833TIP3    H232991   1.007   4.976   6.093 -1.2379 -0.9368  1.5859
 3834TIP3   OH232992   2.304   0.779   3.208  0.0943  0.0410 -0.1457
 3834TIP3    H132993   2.276   0.868   3.228 -1.0115 -0.2230 -0.4398
 3834TIP3    H232994   2.225   0.726   3.217  0.9009 -1.0475  0.7811
 3835TIP3   OH232995   5.819   2.451   2.666  0.1548 -0.5330  0.2808
 3835TIP3    H132996   5.855   2.500   2.592 -0.6420  0.9539  0.8327
 3835TIP3    H232997   5.767   2.382   2.625  1.4136 -1.0456 -0.5202
 3836TIP3   OH232998   1.703   0.593  14.867  0.8257  0.4128 -0.5719
 3836TIP3    H132999   1.788   0.550  14.868  0.7493  0.2524  0.5983
 3836TIP3    H233000   1.640   0.523  14.885  0.3048  0.3046 -2.5693
 3837TIP3   OH233001   3.895   0.130   2.298  0.5241  0.2873 -0.2612
 3837TIP3    H133002   3.885   0.085   2.382 -0.5592 -1.5563 -1.2845
 3837TIP3    H233003   3.816   0.184   2.291  0.1134 -0.3224 -0.4862
 3838TIP3   OH233004   4.264   3.478  16.654 -0.4003  0.4767  0.6148
 3838TIP3    H133005   4.282   3.386  16.634  0.2620  0.5583  0.8143
 3838TIP3    H233006   4.170   3.480  16.675 -0.8129  0.1548 -1.0900
 3839TIP3   OH233007   2.318   1.481  12.817 -0.1584 -0.3877  0.4405
 3839TIP3    H133008   2.301   1.546  12.749 -1.5818 -0.9115  0.2483
 3839TIP3    H233009   2.380   1.524  12.876 -0.4271  0.8265 -0.1188
 3840TIP3   OH233010   4.992   6.540  14.184 -0.1858  0.3579  0.1816
 3840TIP3    H133011   4.983   6.607  14.116  1.5814 -0.1608 -0.6254
 3840TIP3    H233012   4.954   6.461  14.145  0.6778  0.1032 -0.1925
 3841TIP3   OH233013   3.534   2.638   5.543  0.4369 -0.5606  0.0998
 3841TIP3    H133014   3.478   2.685   5.481  1.4494  0.5831  0.0264
 3841TIP3    H233015   3.613   2.618   5.494  1.3774  0.6271  1.0520
 3842TIP3   OH233016   1.154   5.649  14.378  0.4940  0.0171  0.2936
 3842TIP3    H133017   1.223   5.592  14.412  0.1620  0.0420  1.0325
 3842TIP3    H233018   1.080   5.589  14.363  0.4836  0.0866  0.0633
 3843TIP3   OH233019   3.315   4.855  11.631  0.2239  0.6618 -0.3559
 3843TIP3    H133020   3.261   4.777  11.619  0.4871  0.3205  0.5479
 3843TIP3    H233021   3.320   4.895  11.544 -2.1500  1.1746 -0.3134
 3844TIP3   OH233022   1.478   0.945  16.088  0.4035  0.0325  0.3551
 3844TIP3    H133023   1.444   1.019  16.038 -1.6751 -0.6973  0.5980
 3844TIP3    H233024   1.560   0.922  16.044 -0.4700  0.5224 -1.6570
 3845TIP3   OH233025   4.295   2.318  15.902  0.0751 -0.6641 -1.1186
 3845TIP3    H133026   4.208   2.307  15.939 -0.0405 -1.6199 -1.6441
 3845TIP3    H233027   4.315   2.234  15.861  1.0313 -0.2912 -1.4614
 3846TIP3   OH233028   3.988   2.252   5.261 -0.2677  0.0127  0.4125
 3846TIP3    H133029   3.958   2.220   5.346  1.4426 -3.0031  0.0129
 3846TIP3    H233030   3.908   2.259   5.209 -0.9447 -2.1081  1.0863
 3847TIP3   OH233031   1.096   5.581   3.526  0.1036 -0.5573  0.0718
 3847TIP3    H133032   1.025   5.617   3.473  0.5262  0.6872  0.3257
 3847TIP3    H233033   1.169   5.572   3.465  0.2578 -0.1738  0.2010
 3848TIP3   OH233034   0.895   3.456  15.749  0.2608  0.5950  0.1516
 3848TIP3    H133035   0.960   3.412  15.693 -2.6713 -1.7318 -1.6961
 3848TIP3    H233036   0.883   3.396  15.823 -2.9268 -1.4823 -1.8147
 3849TIP3   OH233037   4.502   4.701   4.541  0.4623  0.1585 -0.3571
 3849TIP3    H133038   4.592   4.712   4.570  1.1054 -1.6357 -1.4968
 3849TIP3    H233039   4.493   4.761   4.467 -0.4008  2.8439  1.7583
 3850TIP3   OH233040   4.303   2.749   3.803  0.1134  0.0165  0.1241
 3850TIP3    H133041   4.374   2.768   3.865  0.4970 -1.1863  0.0789
 3850TIP3    H233042   4.263   2.835   3.786  1.9080  0.8340 -0.2919
 3851TIP3   OH233043   0.839   0.877  14.802 -0.1833  0.1195 -0.0402
 3851TIP3    H133044   0.916   0.926  14.773 -1.4034  1.9055 -0.3972
 3851TIP3    H233045   0.816   0.822  14.727 -0.2691  0.8920 -0.5923
 3852TIP3   OH233046   5.324   1.700   4.761 -0.4114 -0.0818  0.6349
 3852TIP3    H133047   5.299   1.610   4.743 -3.5435  0.6913  0.5193
 3852TIP3    H233048   5.311   1.711   4.856  1.9491 -0.2324  1.0367
 3853TIP3   OH233049   3.275   1.786   4.062  0.3338  0.6182  0.0042
 3853TIP3    H133050   3.369   1.784   4.043  0.5424  0.3131  1.0139
 3853TIP3    H233051   3.259   1.874   4.096  0.3037  0.5978  0.0434
 3854TIP3   OH233052   5.534   1.822   5.115 -0.6164 -0.0941 -0.2252
 3854TIP3    H133053   5.608   1.766   5.138 -1.6594 -2.2714 -1.8572
 3854TIP3    H233054   5.538   1.894   5.178  2.3893 -0.5449  0.2202
 3855TIP3   OH233055   0.833   3.934   1.589  0.0370  0.1151 -0.0058
 3855TIP3    H133056   0.750   3.908   1.549  0.2346  0.5565 -0.7216
 3855TIP3    H233057   0.863   3.856   1.636 -0.4733 -0.2389 -0.2676
 3856TIP3   OH233058   0.304   3.287   2.355 -0.2877 -0.0204 -0.3631
 3856TIP3    H133059   0.277   3.299   2.265  0.8627 -1.7087 -0.9864
 3856TIP3    H233060   0.368   3.216   2.352  0.3120  0.3495  1.6864
 3857TIP3   OH233061   6.501   1.024  14.430 -0.8231 -0.7301 -0.2620
 3857TIP3    H133062   6.437   1.000  14.362 -1.5391  1.0357 -0.2599
 3857TIP3    H233063   6.583   1.036  14.382 -0.7874 -1.6712 -0.4639
 3858TIP3   OH233064   5.790   0.141  11.218  0.0404 -0.2354 -0.3873
 3858TIP3    H133065   5.825   0.157  11.130 -0.3160 -1.8941 -0.8727
 3858TIP3    H233066   5.722   0.208  11.229  0.6420  0.5031 -1.0360
 3859TIP3   OH233067   6.257   2.174   3.585 -0.3990  0.1945 -0.0249
 3859TIP3    H133068   6.339   2.136   3.551 -0.0070  1.1961 -0.2335
 3859TIP3    H233069   6.191   2.148   3.521  0.0119  0.5423 -0.6101
 3860TIP3   OH233070   0.197   2.627  12.483 -0.0699  0.1553  0.2219
 3860TIP3    H133071   0.160   2.681  12.553  1.0597  0.3451  0.7047
 3860TIP3    H233072   0.278   2.592  12.521 -0.9443 -2.2034  0.0592
 3861TIP3   OH233073   0.484   6.594   3.959  0.2771  0.1399  0.2596
 3861TIP3    H133074   0.470   6.522   3.897 -2.1407 -0.0948  0.9704
 3861TIP3    H233075   0.579   6.606   3.961  0.7255 -2.6826 -0.2688
 3862TIP3   OH233076   3.354   4.490   1.637  0.1148  0.4809  0.0622
 3862TIP3    H133077   3.427   4.497   1.699  0.5754 -0.9993 -0.2521
 3862TIP3    H233078   3.276   4.506   1.690  0.5159 -0.4312  0.9758
 3863TIP3   OH233079   0.122   4.652   3.676  0.0372 -0.3692 -0.4217
 3863TIP3    H133080   0.197   4.710   3.686  0.8894 -1.1719 -1.8332
 3863TIP3    H233081   0.093   4.634   3.765  1.6316 -0.1679  0.1702
 3864TIP3   OH233082   3.280   5.119  11.999  0.0296  0.3799  0.0180
 3864TIP3    H133083   3.267   5.206  11.961 -0.2327 -0.3804 -1.7277
 3864TIP3    H233084   3.201   5.102  12.050  0.1319  1.1807  0.4667
 3865TIP3   OH233085   4.849   0.149   1.815  0.3170 -0.1866  0.5870
 3865TIP3    H133086   4.815   0.214   1.877 -0.0937  1.5132 -1.3174
 3865TIP3    H233087   4.800   0.069   1.835 -0.5113  0.5803  1.7795
 3866TIP3   OH233088   4.170   3.312  12.148  0.3025  0.3251  0.1436
 3866TIP3    H133089   4.188   3.393  12.196  1.9023 -0.3891  0.7986
 3866TIP3    H233090   4.230   3.248  12.185 -0.3673 -0.9756 -0.9279
 3867TIP3   OH233091   5.722   3.813  13.031 -0.2077 -0.3502  0.2901
 3867TIP3    H133092   5.792   3.789  12.970 -1.1176 -1.2108 -0.4423
 3867TIP3    H233093   5.683   3.730  13.058 -0.7935  0.1045  0.8757
 3868TIP3   OH233094   1.539   4.712  16.950 -0.0551  0.1328  0.1411
 3868TIP3    H133095   1.529   4.641  17.013  1.7136 -0.7854 -0.5445
 3868TIP3    H233096   1.625   4.750  16.971  0.1455  0.4093 -1.0955
 3869TIP3   OH233097   0.844   2.222   3.477 -0.1659 -1.1593  0.5638
 3869TIP3    H133098   0.817   2.197   3.389  0.0151 -0.7654  0.3906
 3869TIP3    H233099   0.769   2.269   3.513  0.1211 -0.4194  0.2322
 3870TIP3   OH233100   0.241   5.977   1.807 -0.0776  0.0770 -0.1924
 3870TIP3    H133101   0.313   5.917   1.824 -0.4350 -0.3140 -0.0635
 3870TIP3    H233102   0.257   6.009   1.719 -0.1867 -0.6258 -0.4701
 3871TIP3   OH233103   2.783   3.709   4.323  0.3797  0.2130 -0.2314
 3871TIP3    H133104   2.704   3.655   4.331 -1.3321  2.3429 -1.6753
 3871TIP3    H233105   2.849   3.648   4.289 -1.3453 -1.0991 -1.4237
 3872TIP3   OH233106   1.707   3.907   2.395 -0.3539 -0.4010  0.1132
 3872TIP3    H133107   1.669   3.822   2.371 -1.1170 -0.5869  1.8687
 3872TIP3    H233108   1.797   3.886   2.420  0.3350 -0.2599 -1.9961
 3873TIP3   OH233109   3.852   5.654   2.861  0.8443  0.7685 -0.0367
 3873TIP3    H133110   3.880   5.641   2.771 -0.7481  0.3337 -0.5105
 3873TIP3    H233111   3.871   5.571   2.905  1.9030  1.0869  0.1175
 3874TIP3   OH233112   6.463   3.624  12.204 -0.5513  0.3733 -0.1607
 3874TIP3    H133113   6.394   3.644  12.141 -2.1743  0.0601  1.4150
 3874TIP3    H233114   6.529   3.576  12.154 -1.9497 -0.2030 -1.5235
 3875TIP3   OH233115   1.692   2.252  14.850  0.3867 -0.3697  0.8709
 3875TIP3    H133116   1.631   2.304  14.799 -0.7995 -2.7902 -0.3639
 3875TIP3    H233117   1.779   2.282  14.822 -0.1830  1.8396  1.2861
 3876TIP3   OH233118   3.827   5.090   1.846  0.7648  0.2358  0.1003
 3876TIP3    H133119   3.765   5.152   1.885  0.8849  0.1585  0.4132
 3876TIP3    H233120   3.840   5.023   1.913  0.9756  0.1051 -0.0694
 3877TIP3   OH233121   4.741   3.097  14.580 -0.2054 -0.5871  0.0828
 3877TIP3    H133122   4.762   3.182  14.541  0.2513 -0.5975  0.3046
 3877TIP3    H233123   4.825   3.063  14.610 -0.5890 -0.4547  1.3435
 3878TIP3   OH233124   3.941   2.332  13.349 -0.1250 -0.1513  0.1546
 3878TIP3    H133125   3.905   2.382  13.277 -0.5873  0.2644  0.6656
 3878TIP3    H233126   3.865   2.292  13.392 -0.1984  1.8044  2.0467
 3879TIP3   OH233127   1.882   2.121   2.777  0.2700  0.1516  0.2411
 3879TIP3    H133128   1.869   2.032   2.809  1.0304 -0.4721 -1.1200
 3879TIP3    H233129   1.907   2.110   2.685 -1.2595  1.8389 -0.4299
 3880TIP3   OH233130   5.278   3.116  15.508 -0.4306 -0.6526 -0.1239
 3880TIP3    H133131   5.195   3.164  15.509 -0.3163 -0.4556  0.5201
 3880TIP3    H233132   5.264   3.043  15.568 -0.6100 -1.4562 -1.1138
 3881TIP3   OH233133   5.429   1.627  16.940 -0.5415 -0.5480 -0.2796
 3881TIP3    H133134   5.387   1.672  17.013  0.5422 -0.6938  0.4591
 3881TIP3    H233135   5.380   1.545  16.930 -2.1439  0.5016 -1.2421
 3882TIP3   OH233136   2.047   0.131   2.225 -0.6652  0.4809  0.0553
 3882TIP3    H133137   2.076   0.097   2.141 -3.2397 -0.1720 -0.6562
 3882TIP3    H233138   2.063   0.225   2.221  1.4706  0.1656 -0.1308
 3883TIP3   OH233139   2.194   5.472   2.539 -0.0531  0.2346  0.3573
 3883TIP3    H133140   2.272   5.526   2.546 -0.4291  0.6876  1.3449
 3883TIP3    H233141   2.151   5.502   2.459  0.8756 -0.1636 -0.3038
 3884TIP3   OH233142   2.832   2.266  14.981 -0.3611  0.3553  0.0175
 3884TIP3    H133143   2.844   2.255  15.075  0.3326  1.4104  0.0686
 3884TIP3    H233144   2.832   2.177  14.946  0.5898  0.0044  0.8645
 3885TIP3   OH233145   2.866   4.966   5.870  0.1776 -0.6269  0.3527
 3885TIP3    H133146   2.850   4.987   5.962 -1.6549  0.3043 -0.1461
 3885TIP3    H233147   2.784   4.929   5.839  0.0325  1.0656 -1.4615
 3886TIP3   OH233148   6.136   3.121  12.803  0.2580  0.1523 -0.5326
 3886TIP3    H133149   6.093   3.200  12.834 -0.1887 -0.9373  1.8798
 3886TIP3    H233150   6.145   3.067  12.881  1.6153 -1.6971 -1.8826
 3887TIP3   OH233151   5.980   6.516   4.849 -0.2483  0.2808  0.3208
 3887TIP3    H133152   6.049   6.493   4.911 -0.4496 -0.9753  0.1029
 3887TIP3    H233153   5.949   6.602   4.879  1.0887  0.6601  0.6787
 3888TIP3   OH233154   5.110   3.010  17.157  0.1137 -0.1143  0.0328
 3888TIP3    H133155   5.017   2.985  17.156  0.0202  0.2564 -1.0808
 3888TIP3    H233156   5.109   3.104  17.176  0.2107  0.0555 -0.7674
 3889TIP3   OH233157   3.264   6.396  14.950  0.5117  0.0598  0.1378
 3889TIP3    H133158   3.252   6.312  14.994 -1.8438  0.0657 -0.3668
 3889TIP3    H233159   3.300   6.454  15.018 -0.7684 -0.5575  1.4024
 3890TIP3   OH233160   4.570   3.897   2.355  0.1733  0.3064 -0.1468
 3890TIP3    H133161   4.546   3.906   2.263 -0.2757  1.1338  0.0454
 3890TIP3    H233162   4.521   3.821   2.386  0.1673  0.1512 -0.5335
 3891TIP3   OH233163   2.700   1.053  15.295  0.4960 -0.8165 -0.1688
 3891TIP3    H133164   2.779   1.040  15.244 -0.4627 -0.5290 -1.8133
 3891TIP3    H233165   2.724   1.117  15.362  1.4228 -0.0657 -1.1932
 3892TIP3   OH233166   5.302   3.118  12.428 -0.3283  0.5710 -0.7651
 3892TIP3    H133167   5.293   3.026  12.454  0.1129  0.4168 -1.1575
 3892TIP3    H233168   5.268   3.167  12.503  1.1198  0.1400  0.2241
 3893TIP3   OH233169   3.410   4.113   5.796 -0.2083 -0.1860  0.7181
 3893TIP3    H133170   3.425   4.047   5.864  0.9296 -0.9798 -0.2587
 3893TIP3    H233171   3.410   4.063   5.714  1.5857  1.0946 -0.1302
 3894TIP3   OH233172   3.532   3.016  12.260  0.8949 -0.0086 -0.2194
 3894TIP3    H133173   3.492   3.027  12.346  0.4108  0.7955 -0.5418
 3894TIP3    H233174   3.524   3.102  12.219 -1.3054 -1.0166 -2.1150
 3895TIP3   OH233175   0.924   0.839  12.336  0.3462 -0.0980  0.3199
 3895TIP3    H133176   0.834   0.860  12.360  0.0494  0.6104 -1.3029
 3895TIP3    H233177   0.961   0.799  12.415 -0.9183  0.9950  1.5152
 3896TIP3   OH233178   5.730   3.531   1.718  0.1132 -0.3804 -0.3053
 3896TIP3    H133179   5.683   3.482   1.650 -0.9025  0.8748 -0.5423
 3896TIP3    H233180   5.667   3.597   1.748  0.0638 -1.6829  2.7774
 3897TIP3   OH233181   3.783   0.467  15.124 -0.4090  0.8808  1.0781
 3897TIP3    H133182   3.784   0.372  15.112 -0.0219  0.8751  1.1259
 3897TIP3    H233183   3.693   0.493  15.106  0.0185  0.8337 -1.4212
 3898TIP3   OH233184   6.810   1.522   5.708 -0.2081  0.0110 -0.6411
 3898TIP3    H133185   6.730   1.474   5.685  0.5144 -1.1410 -0.8613
 3898TIP3    H233186   6.831   1.492   5.796  0.0691  0.1893 -0.6480
 3899TIP3   OH233187   0.649   4.899  16.729 -0.6204 -0.0365 -0.2368
 3899TIP3    H133188   0.651   4.837  16.656 -1.0599  0.1349 -0.3997
 3899TIP3    H233189   0.669   4.983  16.688 -0.0633 -0.0650 -0.0252
 3900TIP3   OH233190   3.719   3.441  14.005 -0.0785 -0.0322 -0.8229
 3900TIP3    H133191   3.801   3.390  14.003 -0.3924 -1.1298  3.3717
 3900TIP3    H233192   3.743   3.523  14.047 -0.8532  0.3189 -1.0492
 3901TIP3   OH233193   3.207   5.288  15.975 -0.1837  0.3025 -0.4816
 3901TIP3    H133194   3.111   5.288  15.977 -0.2074  1.0092 -1.0695
 3901TIP3    H233195   3.230   5.201  15.942 -0.5865 -0.1603  0.4198
 3902TIP3   OH233196   4.699   6.780  11.469 -0.0819 -0.3982  0.6921
 3902TIP3    H133197   4.699   6.701  11.415  1.0567 -0.2463  0.4510
 3902TIP3    H233198   4.768   6.765  11.533  3.8263  2.3357 -2.3610
 3903TIP3   OH233199   3.871   4.425  12.487  0.0081 -0.1700  0.0095
 3903TIP3    H133200   3.945   4.365  12.497 -0.7218 -1.1651 -0.4053
 3903TIP3    H233201   3.904   4.495  12.432  1.3223  0.6114  1.7035
 3904TIP3   OH233202   2.311   0.725  13.930  0.1208  0.5625  0.3874
 3904TIP3    H133203   2.233   0.673  13.916  0.0195  0.7981  0.0610
 3904TIP3    H233204   2.280   0.805  13.973  0.3511  0.1099  1.4503
 3905TIP3   OH233205   5.829   3.619   3.623 -0.4341 -0.6895 -0.2004
 3905TIP3    H133206   5.890   3.598   3.552  1.9213 -0.4436  1.6302
 3905TIP3    H233207   5.882   3.616   3.702 -2.0708  2.6988  1.2157
 3906TIP3   OH233208   5.200   6.322   2.058  0.2318  0.1134  0.6161
 3906TIP3    H133209   5.199   6.359   1.970  0.2225  0.8382  0.9123
 3906TIP3    H233210   5.221   6.229   2.046  0.4142  0.2514 -0.1279
 3907TIP3   OH233211   2.081   2.952   4.611  0.1007 -0.2749  0.1925
 3907TIP3    H133212   2.078   3.027   4.670 -2.1712 -1.8955  2.4066
 3907TIP3    H233213   2.166   2.912   4.627  0.2848  0.3969  0.9724
 3908TIP3   OH233214   6.298   0.791   5.715  0.3443  0.1749  0.1513
 3908TIP3    H133215   6.258   0.822   5.634  0.6605  2.1526  0.6949
 3908TIP3    H233216   6.243   0.827   5.785  2.5897  2.5068  0.8963
 3909TIP3   OH233217   3.726   2.116  15.589  0.0561  0.4766  0.0491
 3909TIP3    H133218   3.738   2.197  15.541 -1.6282  0.6188 -0.2189
 3909TIP3    H233219   3.713   2.143  15.680  0.4963  0.4343  0.1229
 3910TIP3   OH233220   1.814   6.053  13.177 -0.1385  0.3204 -0.1143
 3910TIP3    H133221   1.829   6.148  13.174 -1.1591  0.4797 -0.6912
 3910TIP3    H233222   1.856   6.025  13.258  0.4202  1.2205 -0.0723
 3911TIP3   OH233223   5.151   6.214  12.606  0.1449 -0.1957 -0.0122
 3911TIP3    H133224   5.113   6.190  12.521 -0.4832 -0.0605  0.2207
 3911TIP3    H233225   5.235   6.169  12.609 -1.2656 -2.9598  0.7041
 3912TIP3   OH233226   1.306   4.493  14.178  0.1192  0.4222  0.8602
 3912TIP3    H133227   1.294   4.420  14.118 -0.2750 -0.0883  1.5590
 3912TIP3    H233228   1.387   4.473  14.224  1.0412  1.3701 -0.2670
 3913TIP3   OH233229   2.431   0.365   5.762 -0.3019  0.0708  0.1630
 3913TIP3    H133230   2.490   0.324   5.698 -0.5951 -2.1580  1.2292
 3913TIP3    H233231   2.397   0.442   5.716  2.0578  0.4542 -1.1120
 3914TIP3   OH233232   4.809   2.811  13.743 -0.4196 -0.2073 -0.8202
 3914TIP3    H133233   4.904   2.819  13.738 -0.5391  2.0073 -0.4262
 3914TIP3    H233234   4.794   2.749  13.814  0.7259  0.8813  0.4198
 3915TIP3   OH233235   5.496   4.732   2.915  0.5063 -0.1170 -0.6401
 3915TIP3    H133236   5.575   4.786   2.904  0.4247  0.0886 -0.2164
 3915TIP3    H233237   5.524   4.645   2.887  0.9365 -0.0819 -0.3483
 3916TIP3   OH233238   6.069   4.434  16.837 -0.3503 -0.2626 -0.3726
 3916TIP3    H133239   6.033   4.499  16.897  0.6697  0.4006 -0.4751
 3916TIP3    H233240   6.106   4.484  16.765 -0.3539 -0.9990 -0.9081
 3917TIP3   OH233241   0.630   3.706  12.442  0.4790 -0.3860  0.5441
 3917TIP3    H133242   0.577   3.773  12.485  2.6764  0.6462  1.8493
 3917TIP3    H233243   0.669   3.656  12.514  1.5356 -0.8778 -0.3402
 3918TIP3   OH233244   5.310   6.682  15.147 -0.5550  0.1706  0.2523
 3918TIP3    H133245   5.299   6.775  15.166  2.5314  1.1211 -1.7164
 3918TIP3    H233246   5.386   6.656  15.198 -0.5698 -0.8933 -0.2341
 3919TIP3   OH233247   0.053   2.767  15.818 -0.0515 -0.4543  0.1624
 3919TIP3    H133248   0.089   2.854  15.801 -1.8693  0.7320  1.9151
 3919TIP3    H233249  -0.008   2.751  15.745  1.1502 -0.8122 -0.7864
 3920TIP3   OH233250   0.483   4.375  12.594  0.2443 -0.5770 -0.3802
 3920TIP3    H133251   0.444   4.446  12.543  0.1709 -0.5669 -0.3099
 3920TIP3    H233252   0.472   4.297  12.539  3.0737 -0.0427 -1.8614
 3921TIP3   OH233253   5.930   6.305   3.071 -0.2380 -0.3051  0.3454
 3921TIP3    H133254   5.954   6.396   3.083 -0.5099 -0.1087 -0.5123
 3921TIP3    H233255   5.962   6.261   3.149  1.4515  0.2190 -0.0079
 3922TIP3   OH233256   6.384   0.664  14.261  0.0321 -0.1157  0.3994
 3922TIP3    H133257   6.418   0.748  14.231 -0.6332  0.5058  1.3319
 3922TIP3    H233258   6.388   0.669  14.357  1.2973 -1.6988  0.4851
 3923TIP3   OH233259   0.891   4.121   1.198 -0.0256  0.0907 -0.6130
 3923TIP3    H133260   0.893   4.140   1.104 -0.5303  2.4841 -0.2091
 3923TIP3    H233261   0.801   4.136   1.223 -0.5272 -3.0503 -0.1119
 3924TIP3   OH233262   3.203   3.201   0.338  0.0727  0.9086  0.3550
 3924TIP3    H133263   3.255   3.142   0.283  0.1685  1.6641 -0.3777
 3924TIP3    H233264   3.142   3.243   0.278 -0.5458  0.9558  1.0106
 3925TIP3   OH233265   4.096   5.209   1.708 -0.0450  0.0562  0.1706
 3925TIP3    H133266   4.143   5.270   1.764  0.0753 -0.8373  1.0680
 3925TIP3    H233267   4.032   5.263   1.663 -0.0026  0.8312  1.0062
 3926TIP3   OH233268   5.724   6.818  12.091  0.0038 -0.0859  0.2464
 3926TIP3    H133269   5.656   6.751  12.087  1.8587 -2.1487  1.1377
 3926TIP3    H233270   5.796   6.782  12.040  2.6598 -0.8833  4.1560
 3927TIP3   OH233271   5.453   4.400  13.871 -0.0165 -0.0003 -0.0308
 3927TIP3    H133272   5.436   4.476  13.927 -1.4753 -0.3320  0.0200
 3927TIP3    H233273   5.495   4.437  13.793  2.8401  0.3701  1.5368
 3928TIP3   OH233274   4.589   0.244  16.558  0.2314  0.7679 -0.5341
 3928TIP3    H133275   4.668   0.210  16.600 -0.4523 -2.7427 -1.7389
 3928TIP3    H233276   4.570   0.325  16.605  1.8292 -0.7174  3.0219
 3929TIP3   OH233277   6.395   3.032   3.173 -0.6081 -0.7907  0.3318
 3929TIP3    H133278   6.386   2.976   3.096  0.2220 -1.4274  0.6850
 3929TIP3    H233279   6.384   2.973   3.248  1.8235 -0.8329  0.7400
 3930TIP3   OH233280   2.831   1.436   0.364 -0.3419 -0.1208  0.1320
 3930TIP3    H133281   2.855   1.351   0.402 -0.7504  0.3822  1.5858
 3930TIP3    H233282   2.911   1.487   0.368 -0.0856 -0.4347 -0.7804
 3931TIP3   OH233283   3.902   3.941   6.023  0.4333 -0.0847  0.2382
 3931TIP3    H133284   3.941   4.008   5.967  0.9054 -0.4517  0.1149
 3931TIP3    H233285   3.976   3.885   6.048  0.4469  0.6596  2.0821
 3932TIP3   OH233286   0.600   4.783   1.727  0.1760  0.2084 -0.1748
 3932TIP3    H133287   0.588   4.708   1.668  1.8632  0.4119 -0.8322
 3932TIP3    H233288   0.695   4.792   1.735 -0.0152  1.0525  1.5033
 3933TIP3   OH233289   3.323   5.456   0.075 -0.1336  0.4113  0.1999
 3933TIP3    H133290   3.318   5.400   0.152 -1.0744  0.0668 -0.1043
 3933TIP3    H233291   3.238   5.447   0.032  0.6677 -0.1363 -1.3828
 3934TIP3   OH233292   2.901   4.944  13.002 -0.1327 -0.0579  0.2508
 3934TIP3    H133293   2.908   4.850  13.018  1.0230 -0.1760 -0.7426
 3934TIP3    H233294   2.834   4.952  12.934 -2.7211  0.1797  2.6496
 3935TIP3   OH233295   4.951   1.558  16.943  0.2122 -1.0201  0.6371
 3935TIP3    H133296   4.857   1.566  16.932  0.5832  0.2806 -2.5321
 3935TIP3    H233297   4.968   1.464  16.933 -0.7710 -1.3915  2.1457
 3936TIP3   OH233298   6.177   6.319   2.066  0.5796  0.2691  0.1870
 3936TIP3    H133299   6.192   6.271   1.985 -0.5698  0.1063  0.0507
 3936TIP3    H233300   6.084   6.308   2.083  0.9208 -0.3188  1.9085
 3937TIP3   OH233301   1.703   6.093   0.319 -0.4587 -0.0969 -0.4113
 3937TIP3    H133302   1.609   6.073   0.322 -1.3505  3.1898 -1.9899
 3937TIP3    H233303   1.736   6.045   0.244 -1.6877  1.2589 -1.8869
 3938TIP3   OH233304   5.584   0.554  11.933  0.1099 -0.1023  0.5790
 3938TIP3    H133305   5.552   0.486  11.993  0.0676  0.9982  1.8254
 3938TIP3    H233306   5.638   0.506  11.870 -1.7334 -1.6226  0.0540
 3939TIP3   OH233307   4.625   1.943  12.816 -0.2132  0.9402 -0.3798
 3939TIP3    H133308   4.599   1.851  12.807  1.0119  0.3840  1.3721
 3939TIP3    H233309   4.716   1.945  12.786 -0.6841  1.9165 -1.8624
 3940TIP3   OH233310   6.282   2.199  13.272 -0.1089 -0.7058  0.4255
 3940TIP3    H133311   6.273   2.154  13.188 -0.7936 -0.6276  0.4517
 3940TIP3    H233312   6.352   2.151  13.317  0.3171 -0.7006 -0.2116
 3941TIP3   OH233313   2.582   6.407  14.256  0.5188 -0.4659 -0.0086
 3941TIP3    H133314   2.505   6.357  14.281 -1.6637  2.6618  0.1853
 3941TIP3    H233315   2.574   6.417  14.161  1.9608 -1.9637 -0.3168
 3942TIP3   OH233316   0.856   4.832   5.695  0.5157  0.2213 -0.4698
 3942TIP3    H133317   0.832   4.743   5.722  0.7756  0.7034  1.4640
 3942TIP3    H233318   0.934   4.819   5.640  0.7678 -0.7244  0.0854
 3943TIP3   OH233319   3.138   5.676  11.131  0.0942 -0.0465 -0.2984
 3943TIP3    H133320   3.152   5.594  11.083  0.5622  0.1538 -0.5112
 3943TIP3    H233321   3.054   5.709  11.098 -0.7297 -1.0660  0.7054
 3944TIP3   OH233322   5.893   5.099  14.523  0.0312 -0.2413 -0.8871
 3944TIP3    H133323   5.820   5.075  14.580 -1.4089  1.4218 -1.9172
 3944TIP3    H233324   5.947   5.157  14.576 -1.3265  1.3331 -1.1207
 3945TIP3   OH233325   0.531   1.870   1.729  0.0258 -0.5314  0.5174
 3945TIP3    H133326   0.497   1.781   1.718  1.8963 -1.3067  0.6185
 3945TIP3    H233327   0.520   1.911   1.643  0.6247 -1.4142  0.0075
 3946TIP3   OH233328   0.452   1.525   5.863 -0.5140  0.2770  0.5570
 3946TIP3    H133329   0.375   1.473   5.887  1.5950 -2.7554  1.2898
 3946TIP3    H233330   0.489   1.553   5.947  0.8663 -1.0034  0.4116
 3947TIP3   OH233331   5.457   6.191   3.401 -0.5971  0.4138  0.4351
 3947TIP3    H133332   5.509   6.182   3.321  0.4442 -0.7463  1.2026
 3947TIP3    H233333   5.393   6.259   3.381  0.5295  1.1249 -0.9246
 3948TIP3   OH233334   0.142   5.107  14.691 -0.5413  0.8030  0.5351
 3948TIP3    H133335   0.175   5.022  14.661  0.3407  1.5782 -0.8136
 3948TIP3    H233336   0.065   5.122  14.635 -0.7672  0.8453  0.8576
 3949TIP3   OH233337   1.288   0.807   5.974 -0.5212 -0.0945  0.1348
 3949TIP3    H133338   1.281   0.741   6.043  1.3611  0.3806  0.8263
 3949TIP3    H233339   1.227   0.777   5.906 -0.3343 -2.0722  0.7888
 3950TIP3   OH233340   3.846   6.801  15.938 -0.0673 -0.5396 -0.3616
 3950TIP3    H133341   3.902   6.801  16.016 -0.6355 -0.7317  0.0505
 3950TIP3    H233342   3.793   6.881  15.947  0.6310  0.0154 -1.1114
 3951TIP3   OH233343   5.800   6.479  11.990  0.2940 -0.3408  0.0006
 3951TIP3    H133344   5.879   6.429  11.970  0.8435  0.8156 -0.7948
 3951TIP3    H233345   5.764   6.504  11.905 -0.3915 -0.0299  0.3712
 3952TIP3   OH233346   6.660   4.412   5.561 -0.2633 -0.6224  0.5481
 3952TIP3    H133347   6.666   4.486   5.622 -0.1766 -1.8276  2.0651
 3952TIP3    H233348   6.610   4.346   5.609  0.9135 -2.1078 -0.1970
 3953TIP3   OH233349   0.139   0.284   3.853  0.1469 -0.2926 -0.6195
 3953TIP3    H133350   0.082   0.207   3.857 -1.2835  0.5505 -2.6890
 3953TIP3    H233351   0.124   0.319   3.765  0.6448  2.4338  0.2978
 3954TIP3   OH233352   6.764   2.449  13.571 -0.1690 -0.2253  0.6514
 3954TIP3    H133353   6.791   2.442  13.480 -0.5658  0.3472  0.4792
 3954TIP3    H233354   6.671   2.427  13.569 -0.5626  1.2991  0.6545
 3955TIP3   OH233355   5.838   2.735  11.941 -0.1874  0.1762  0.4487
 3955TIP3    H133356   5.790   2.714  11.860  0.3643  0.5663  0.0071
 3955TIP3    H233357   5.781   2.795  11.988 -0.6358 -0.2708  0.4851
 3956TIP3   OH233358   1.137   6.391  14.989 -0.0189 -0.3276 -0.3528
 3956TIP3    H133359   1.229   6.379  15.009 -0.2684  0.0771  1.1431
 3956TIP3    H233360   1.124   6.345  14.906  1.2611 -1.3996  0.0173
 3957TIP3   OH233361   3.001   6.057   4.388 -0.2872 -0.2068 -0.3321
 3957TIP3    H133362   3.038   6.071   4.475 -1.0978  1.2710 -0.1973
 3957TIP3    H233363   3.028   6.133   4.338 -0.3053 -0.7760 -1.2263
 3958TIP3   OH233364   5.474   2.507  11.635  0.0568 -0.1788  0.0803
 3958TIP3    H133365   5.532   2.530  11.562  0.1246 -0.3476  0.0808
 3958TIP3    H233366   5.478   2.583  11.693 -2.2124  1.2131 -1.4300
 3959TIP3   OH233367   0.628   3.394   0.958  0.1785 -0.2180  0.1000
 3959TIP3    H133368   0.606   3.354   1.042 -0.4146 -0.8388 -0.3415
 3959TIP3    H233369   0.549   3.383   0.905  0.1912  1.0655 -0.2173
 3960TIP3   OH233370   2.958   0.839  11.987  0.0669 -0.2268 -0.4813
 3960TIP3    H133371   2.977   0.857  11.895  0.4462  0.6562 -0.2454
 3960TIP3    H233372   2.870   0.874  12.001  1.1892  2.5729  0.2287
 3961TIP3   OH233373   5.216   5.827  16.294 -0.4093 -0.2078  0.2558
 3961TIP3    H133374   5.138   5.849  16.345 -0.8099  0.3767 -0.5804
 3961TIP3    H233375   5.226   5.901  16.234  1.0217 -0.0953  0.6155
 3962TIP3   OH233376   5.162   6.357  17.045 -0.1429 -0.0009 -0.0706
 3962TIP3    H133377   5.220   6.431  17.061  1.5413 -0.9793 -1.3434
 3962TIP3    H233378   5.102   6.387  16.978  0.2843  0.3309 -0.3088
 3963TIP3   OH233379   5.405   6.255  17.144  0.4307 -0.3297 -0.2581
 3963TIP3    H133380   5.312   6.267  17.122  0.0807 -0.8401  0.8688
 3963TIP3    H233381   5.443   6.343  17.133  0.1199 -0.3658 -1.9733
 3964TIP3   OH233382   5.247   2.962   2.032 -0.5348 -0.0052 -0.3387
 3964TIP3    H133383   5.247   2.936   1.939 -0.0215 -1.2280 -0.0185
 3964TIP3    H233384   5.256   2.879   2.079  2.2341  0.8293  0.7421
 3965TIP3   OH233385   1.022   5.355  11.304  0.1667 -0.2111 -0.1344
 3965TIP3    H133386   1.071   5.436  11.318 -0.7142  0.1994  0.6417
 3965TIP3    H233387   1.014   5.347  11.209 -0.0559  0.8049 -0.2096
 3966TIP3   OH233388   0.834   6.704   3.043 -0.0335 -0.0485 -0.3360
 3966TIP3    H133389   0.843   6.796   3.067  0.6392 -0.3064  0.4608
 3966TIP3    H233390   0.744   6.696   3.013 -0.3305  0.7158  0.3055
 3967TIP3   OH233391   4.249   5.753   5.754  0.5101 -0.1253 -0.2172
 3967TIP3    H133392   4.294   5.719   5.831 -0.0837  0.0220  0.2099
 3967TIP3    H233393   4.275   5.695   5.682  1.3036 -0.0870  0.0302
 3968TIP3   OH233394   4.674   5.905   4.086  0.4297  0.2001 -0.2591
 3968TIP3    H133395   4.738   5.903   4.157  0.1807  1.4146  0.0258
 3968TIP3    H233396   4.652   5.813   4.070  2.1730 -0.2500 -0.3055
 3969TIP3   OH233397   1.167   1.018  16.805  0.2033 -0.3280 -0.0290
 3969TIP3    H133398   1.243   1.058  16.763  0.9189  0.4739  1.8980
 3969TIP3    H233399   1.095   1.031  16.744  0.5197  3.4496  0.1876
 3970TIP3   OH233400   4.014   5.031  15.002 -0.8924  0.0808  0.1460
 3970TIP3    H133401   4.032   5.125  15.001  0.7408 -0.1762  1.0802
 3970TIP3    H233402   4.053   5.000  15.084  1.6890 -1.9413 -1.6573
 3971TIP3   OH233403   4.342   3.309   0.212  0.2598  0.4643  0.3704
 3971TIP3    H133404   4.432   3.290   0.185  0.3354 -2.3433  2.1669
 3971TIP3    H233405   4.322   3.394   0.172  3.2701  0.6319 -1.0429
 3972TIP3   OH233406   3.469   4.097   1.968  0.1125  0.1107 -0.3243
 3972TIP3    H133407   3.385   4.086   1.922 -0.3783  1.1107  0.3113
 3972TIP3    H233408   3.462   4.038   2.044  0.2675 -0.3178 -0.6378
 3973TIP3   OH233409   5.469   2.997   2.183 -0.3294 -0.4940 -0.2236
 3973TIP3    H133410   5.539   3.019   2.122 -0.4845  0.5711 -0.0428
 3973TIP3    H233411   5.403   2.954   2.129 -0.4365  0.3754 -0.8105
 3974TIP3   OH233412   4.909   2.073   2.499 -0.0013  0.7227 -0.1440
 3974TIP3    H133413   4.909   2.128   2.577 -0.0511 -1.2630  1.3236
 3974TIP3    H233414   5.000   2.044   2.490 -0.3595 -0.6978  0.4479
 3975TIP3   OH233415   4.672   0.394   2.860 -0.1662 -0.1571  0.6482
 3975TIP3    H133416   4.713   0.343   2.791  1.1944  1.0153  0.5398
 3975TIP3    H233417   4.679   0.485   2.831  1.2993  0.4725  2.6806
 3976TIP3   OH233418   1.635   2.198   2.498  0.0950 -0.1691  0.3945
 3976TIP3    H133419   1.675   2.122   2.541 -0.2230  0.4040  1.7438
 3976TIP3    H233420   1.541   2.179   2.497  0.1926 -0.7602 -1.2716
 3977TIP3   OH233421   2.762   3.606  14.194 -0.7415 -0.2170  0.0122
 3977TIP3    H133422   2.684   3.559  14.224 -1.5914  1.4846  0.6157
 3977TIP3    H233423   2.764   3.591  14.100 -2.0485  0.0205 -0.0830
 3978TIP3   OH233424   4.504   5.532  13.827  0.1875 -0.2447  0.2761
 3978TIP3    H133425   4.573   5.465  13.827  1.0785  0.6470  0.8526
 3978TIP3    H233426   4.456   5.518  13.909  0.9045  0.3282  0.8095
 3979TIP3   OH233427   2.085   4.327   3.557 -0.1846  0.2206  0.5436
 3979TIP3    H133428   2.086   4.344   3.463 -2.1966 -0.9774  0.2550
 3979TIP3    H233429   2.133   4.245   3.567 -2.1025 -1.0070  0.1840
 3980TIP3   OH233430   3.563   5.618  11.198  0.6986  0.5755 -0.1792
 3980TIP3    H133431   3.598   5.621  11.287  1.7580  1.1176 -0.6007
 3980TIP3    H233432   3.625   5.564  11.149 -1.0619 -1.6575 -0.1178
 3981TIP3   OH233433   2.035   4.631  14.376 -0.2009  0.2470  0.2146
 3981TIP3    H133434   2.117   4.584  14.362  0.5156  1.6366 -0.3396
 3981TIP3    H233435   1.972   4.562  14.396  0.7013 -1.0261 -1.1002
 3982TIP3   OH233436   3.983   4.714  15.072  0.6524  0.6175 -0.1566
 3982TIP3    H133437   3.976   4.624  15.105  0.8192  0.8260  0.4744
 3982TIP3    H233438   4.047   4.755  15.130 -1.7136  2.0600  1.5909
 3983TIP3   OH233439   5.461   6.276  14.771  0.5588  0.1379  0.1631
 3983TIP3    H133440   5.444   6.345  14.834 -0.0703  1.1613 -1.0921
 3983TIP3    H233441   5.555   6.280  14.755  0.6201  0.2927  0.5650
 3984TIP3   OH233442   3.122   2.855   4.970 -0.2153 -0.0316  0.5967
 3984TIP3    H133443   3.180   2.884   4.900  1.7733 -1.5584  1.4957
 3984TIP3    H233444   3.053   2.806   4.926 -0.0787  0.6730 -0.4250
 3985TIP3   OH233445   1.556   4.173   1.605  0.4161 -0.0790  0.0269
 3985TIP3    H133446   1.598   4.087   1.598  1.4518  0.2815  1.3546
 3985TIP3    H233447   1.483   4.169   1.543  1.6773 -1.1652 -1.4774
 3986TIP3   OH233448   2.301   2.765   1.024 -0.3554 -0.2521 -0.6917
 3986TIP3    H133449   2.332   2.685   1.066  1.6868 -0.3913 -2.3049
 3986TIP3    H233450   2.216   2.782   1.064  0.9778 -0.8809  2.7458
 3987TIP3   OH233451   5.928   3.379   2.854  0.5317 -0.5292  0.2912
 3987TIP3    H133452   5.832   3.381   2.857  0.5394 -0.7989  0.8794
 3987TIP3    H233453   5.949   3.290   2.824  0.5694  0.3977 -2.8272
 3988TIP3   OH233454   3.184   3.326   1.407  0.2360 -0.6035 -0.1993
 3988TIP3    H133455   3.226   3.403   1.445 -0.8247 -0.1141  0.0240
 3988TIP3    H233456   3.145   3.281   1.482 -1.9199  0.3977 -0.6411
 3989TIP3   OH233457   0.844   5.196   2.948  0.2262 -0.0074 -0.2844
 3989TIP3    H133458   0.937   5.216   2.959  0.7563 -2.6450  1.0174
 3989TIP3    H233459   0.799   5.278   2.968  2.1800  0.6863  1.7698
 3990TIP3   OH233460   1.365   2.887  16.871 -0.7362 -0.3104  0.1301
 3990TIP3    H133461   1.278   2.847  16.868  0.5476 -3.2786 -0.9278
 3990TIP3    H233462   1.371   2.924  16.960 -2.9814 -0.0737  0.2606
 3991TIP3   OH233463   5.966   1.151   4.346  0.9030  0.0667 -0.1058
 3991TIP3    H133464   5.962   1.056   4.349  0.0326  0.1278  1.0077
 3991TIP3    H233465   5.913   1.175   4.270  0.6339 -0.3137 -0.0401
 3992TIP3   OH233466   5.068   3.608   2.910 -0.1968  0.2567 -0.3922
 3992TIP3    H133467   5.084   3.580   2.819 -0.1895  0.2622 -0.3926
 3992TIP3    H233468   5.007   3.543   2.944  0.0842  0.0475 -0.2863
 3993TIP3   OH233469   5.237   2.198   5.067  0.4734  0.1608  0.2548
 3993TIP3    H133470   5.314   2.169   5.018 -0.0395 -2.0340  0.6396
 3993TIP3    H233471   5.198   2.266   5.012  2.1200  0.6039 -0.4159
 3994TIP3   OH233472   1.388   0.719   1.020  0.0213 -0.0197  0.3196
 3994TIP3    H133473   1.397   0.637   1.068  2.2047  0.0217  0.0444
 3994TIP3    H233474   1.473   0.733   0.979 -0.7960  1.5932 -0.9360
 3995TIP3   OH233475   5.908   3.529  16.056  0.3712 -0.6944 -0.1112
 3995TIP3    H133476   5.867   3.505  15.973 -0.5656  0.7974 -0.1205
 3995TIP3    H233477   5.894   3.453  16.113 -1.3246 -0.7121 -0.5025
 3996TIP3   OH233478   3.016   6.163  12.721  0.1516  0.1070  0.1362
 3996TIP3    H133479   3.034   6.144  12.629  1.8295  0.4505  0.3605
 3996TIP3    H233480   3.016   6.076  12.763  1.3226  0.0797  0.1089
 3997TIP3   OH233481   1.022   6.604   0.019  0.1880 -0.0956  0.2986
 3997TIP3    H133482   1.064   6.644   0.095 -0.0092  0.4258  0.1331
 3997TIP3    H233483   1.086   6.540  -0.012  0.9601  0.8307 -0.0739
 3998TIP3   OH233484   1.904   1.631   1.660 -0.0132  0.0314 -0.1127
 3998TIP3    H133485   1.994   1.661   1.651 -0.0801  0.1169 -0.5418
 3998TIP3    H233486   1.863   1.653   1.576 -0.6248  0.6534  0.3262
 3999TIP3   OH233487   6.788   5.110  12.382  0.2480 -0.0172 -0.3863
 3999TIP3    H133488   6.696   5.108  12.407 -0.3019 -1.1389 -2.2604
 3999TIP3    H233489   6.795   5.186  12.323 -0.4830 -2.0525 -3.3472
 4000TIP3   OH233490   5.373   3.151  15.991 -0.1386  0.2397 -0.3937
 4000TIP3    H133491   5.457   3.196  15.993  1.1834 -1.9616 -1.8874
 4000TIP3    H233492   5.367   3.107  16.076 -0.5284  1.5837  0.3002
 4001TIP3   OH233493   2.467   5.571   4.151 -0.1435 -0.5986 -0.4829
 4001TIP3    H133494   2.475   5.537   4.240 -0.0151  0.8019  0.0641
 4001TIP3    H233495   2.470   5.666   4.161  3.2648 -0.3810 -2.3007
 4002TIP3   OH233496   3.590   0.493  15.931 -0.5321  0.1922 -0.2439
 4002TIP3    H133497   3.627   0.406  15.917  0.1947  0.3612  0.5590
 4002TIP3    H233498   3.612   0.515  16.021 -2.3321  0.4527  0.1553
 4003TIP3   OH233499   2.039   3.961   3.420 -0.0059 -0.3396 -0.5958
 4003TIP3    H133500   2.134   3.952   3.419 -0.0678 -1.0806 -0.9185
 4003TIP3    H233501   2.008   3.885   3.369 -0.8565 -1.2706  1.2315
 4004TIP3   OH233502   3.491   4.093   0.431  0.1486 -0.3675 -0.0818
 4004TIP3    H133503   3.481   4.007   0.470 -3.0089  0.6336  1.6916
 4004TIP3    H233504   3.441   4.089   0.350  0.3741 -0.3186 -0.2253
 4005TIP3   OH233505   5.409   5.460  11.353  0.5475  0.1985 -0.2874
 4005TIP3    H133506   5.456   5.379  11.373 -1.5285 -0.7429  1.1538
 4005TIP3    H233507   5.456   5.528  11.401  0.5353 -0.6868  1.0209
 4006TIP3   OH233508   0.140   1.319   0.998  0.0533  0.2764 -0.0833
 4006TIP3    H133509   0.188   1.328   1.081 -0.0085 -0.0317 -0.0142
 4006TIP3    H233510   0.051   1.293   1.025 -0.3507  1.5004 -0.1683
 4007TIP3   OH233511   6.541   4.289   4.036  0.1354  0.2988  0.6692
 4007TIP3    H133512   6.549   4.370   3.986 -0.5928 -1.2763 -2.2732
 4007TIP3    H233513   6.631   4.264   4.057  0.4667  1.1135  0.2566
 4008TIP3   OH233514   4.323   0.956  13.009  0.3820 -0.1914  0.1004
 4008TIP3    H133515   4.228   0.945  12.999  0.2696 -0.0272  0.8784
 4008TIP3    H233516   4.342   1.041  12.970  0.3696 -0.6318 -0.9093
 4009TIP3   OH233517   3.948   4.940   3.231  0.1925  0.1748  0.3671
 4009TIP3    H133518   4.011   4.878   3.268  0.3603 -0.5756 -1.0948
 4009TIP3    H233519   3.995   5.023   3.229  1.1300 -0.3532 -0.6043
 4010TIP3   OH233520   4.173   3.723   3.087  0.2149 -0.0722  0.5454
 4010TIP3    H133521   4.229   3.791   3.125  2.5076 -0.8151 -1.2955
 4010TIP3    H233522   4.191   3.645   3.139  1.4022 -0.4511 -0.3878
 4011TIP3   OH233523   0.522   0.152   0.023 -0.0578  0.6400 -0.1649
 4011TIP3    H133524   0.508   0.166   0.116  0.8975  0.0644  0.0854
 4011TIP3    H233525   0.477   0.225  -0.020 -0.0285  1.2201  0.7685
 4012TIP3   OH233526   0.710   5.355   2.122  0.1550  0.2132  0.0727
 4012TIP3    H133527   0.670   5.414   2.058 -0.2104  0.9802  0.9741
 4012TIP3    H233528   0.743   5.282   2.070 -0.5531  0.5781 -0.9355
 4013TIP3   OH233529   6.707   0.787  16.623 -0.1993  0.4149 -0.3162
 4013TIP3    H133530   6.735   0.745  16.542  0.3037  1.6721 -0.8172
 4013TIP3    H233531   6.672   0.715  16.676 -2.2683 -0.2355 -2.3432
 4014TIP3   OH233532   1.768   1.274   5.314  0.2516  0.1369 -0.1496
 4014TIP3    H133533   1.691   1.291   5.369  0.0018 -0.7378 -0.2117
 4014TIP3    H233534   1.740   1.298   5.226  0.1699  0.1700 -0.1147
 4015TIP3   OH233535   3.460   6.222  11.895 -0.0041 -0.4556  0.6000
 4015TIP3    H133536   3.473   6.221  11.800 -1.1319  1.1692  0.3861
 4015TIP3    H233537   3.425   6.135  11.914  1.1109 -1.1367 -0.3087
 4016TIP3   OH233538   2.248   6.823  12.888 -0.2250  0.2772 -0.2252
 4016TIP3    H133539   2.247   6.767  12.810  1.3184 -1.5939  1.0048
 4016TIP3    H233540   2.339   6.853  12.894 -0.2825  0.2548  0.9190
 4017TIP3   OH233541   3.697   0.093  11.225  0.3983  0.1534  1.1191
 4017TIP3    H133542   3.639   0.017  11.218  0.0462  0.2581  2.6589
 4017TIP3    H233543   3.764   0.066  11.287  2.1110  0.0104 -0.6814
 4018TIP3   OH233544   4.492   2.077  16.322 -0.4291  0.3251  0.1690
 4018TIP3    H133545   4.423   2.129  16.281  0.3981  0.9030 -0.5089
 4018TIP3    H233546   4.467   2.076  16.415 -1.1808  0.7902 -0.0106
 4019TIP3   OH233547   3.630   3.186   3.510  0.0008  0.2142  0.1997
 4019TIP3    H133548   3.582   3.112   3.473  0.1791  0.1819  0.0367
 4019TIP3    H233549   3.596   3.262   3.462 -0.6910  0.3268  0.8460
 4020TIP3   OH233550   0.964   6.720  10.614 -0.4664  0.2737  0.6883
 4020TIP3    H133551   0.981   6.655  10.546  2.1050 -0.8368  2.2195
 4020TIP3    H233552   1.003   6.801  10.581 -2.4800  0.7705 -0.6395
 4021TIP3   OH233553   3.482   5.463   2.657 -0.1740  0.3432  0.3238
 4021TIP3    H133554   3.437   5.459   2.742 -1.4250 -0.1170 -0.3367
 4021TIP3    H233555   3.414   5.488   2.595  1.3655  4.0603 -0.1104
 4022TIP3   OH233556   4.890   0.327  12.237  0.3598  0.1969  0.3116
 4022TIP3    H133557   4.915   0.415  12.210  2.1083  0.2686  1.9269
 4022TIP3    H233558   4.803   0.337  12.275  1.0513  1.5203  1.6480
 4023TIP3   OH233559   2.103   5.714   3.689  0.0709  0.2107  0.2436
 4023TIP3    H133560   2.132   5.637   3.641  2.0266  0.2625  1.2282
 4023TIP3    H233561   2.008   5.709   3.688  0.1429 -2.1330  0.1758
 4024TIP3   OH233562   0.744   6.612  16.205  0.4114  0.0199 -0.4386
 4024TIP3    H133563   0.724   6.574  16.291  0.7308 -0.4779 -0.5753
 4024TIP3    H233564   0.826   6.659  16.219 -0.5572  1.6588  0.0088
 4025TIP3   OH233565   2.710   5.180  14.214 -0.6750 -0.2173 -0.2776
 4025TIP3    H133566   2.774   5.237  14.257 -1.2446  0.3541 -0.1596
 4025TIP3    H233567   2.690   5.225  14.132 -0.4894 -0.6937 -0.5889
 4026TIP3   OH233568   5.418   1.201  11.917  0.4458 -0.3507  0.0700
 4026TIP3    H133569   5.330   1.237  11.919  1.6727  2.9129  0.4225
 4026TIP3    H233570   5.419   1.143  11.840 -1.3127  1.5011 -1.4368
 4027TIP3   OH233571   2.055   3.775   0.309  0.7783  0.4713 -0.1724
 4027TIP3    H133572   2.002   3.702   0.340  0.2740  0.5137 -0.9347
 4027TIP3    H233573   2.038   3.781   0.216  0.9018  1.4902 -0.1489
 4028TIP3   OH233574   4.533   6.467  12.022 -0.7605  0.8260  0.5932
 4028TIP3    H133575   4.607   6.521  12.050 -0.7070  1.0712 -0.0067
 4028TIP3    H233576   4.491   6.440  12.104  0.9932 -0.7768  1.0105
 4029TIP3   OH233577   3.032   4.524   2.025  0.9659 -0.2314  0.4338
 4029TIP3    H133578   3.089   4.450   2.044  2.3902  0.6850 -0.1504
 4029TIP3    H233579   2.951   4.484   1.994  1.7154 -1.5512  0.1068
 4030TIP3   OH233580   6.313   5.633  11.028 -0.1649  0.2454  0.3371
 4030TIP3    H133581   6.245   5.605  11.090  1.6930 -0.3873  2.1952
 4030TIP3    H233582   6.335   5.553  10.980  0.0087  0.2073  0.4806
 4031TIP3   OH233583   0.887   6.124  16.703 -0.1101  0.1126  0.2449
 4031TIP3    H133584   0.886   6.040  16.748 -0.2696  0.6939  1.3479
 4031TIP3    H233585   0.977   6.133  16.671 -0.5457 -1.3144 -1.5426
 4032TIP3   OH233586   1.253   3.221  11.811  0.3288 -0.2095 -0.0065
 4032TIP3    H133587   1.315   3.240  11.882  0.3152 -2.7666  0.7730
 4032TIP3    H233588   1.303   3.167  11.749 -1.1684 -2.8109  0.9117
 4033TIP3   OH233589   3.667   1.389   1.197 -0.0206  0.7960 -0.4461
 4033TIP3    H133590   3.716   1.447   1.255 -1.3120  1.4131  0.0706
 4033TIP3    H233591   3.673   1.303   1.240 -2.2170  1.5171  1.5137
 4034TIP3   OH233592   6.121   3.397   5.787  0.2865  0.1512  0.2885
 4034TIP3    H133593   6.065   3.416   5.863 -0.2420 -1.9601  0.4822
 4034TIP3    H233594   6.117   3.302   5.777  3.4097 -0.0425 -0.0513
 4035TIP3   OH233595   3.947   5.084   5.573 -0.9415 -0.3049 -0.4195
 4035TIP3    H133596   3.896   5.160   5.601 -0.9819  0.7903 -3.1887
 4035TIP3    H233597   3.890   5.039   5.511  0.9537  0.3365 -2.7481
 4036TIP3   OH233598   5.198   3.645  16.732  0.0425  0.2074 -0.5941
 4036TIP3    H133599   5.182   3.620  16.641  0.1258  2.0452 -1.1565
 4036TIP3    H233600   5.124   3.609  16.781 -1.7955  1.9238 -1.9249
 4037TIP3   OH233601   1.728   2.539   6.127  0.1248 -0.2100 -0.4389
 4037TIP3    H133602   1.713   2.538   6.032  0.3774  0.0740 -0.4884
 4037TIP3    H233603   1.798   2.475   6.140  0.4490  0.1229 -0.5170
 4038TIP3   OH233604   3.644   0.849  15.953  0.2340  0.4133 -0.1000
 4038TIP3    H133605   3.559   0.814  15.924  0.4362  0.7652 -1.1598
 4038TIP3    H233606   3.623   0.937  15.986  0.1501  0.4091 -0.1405
 4039TIP3   OH233607   2.153   1.591  13.846  0.1537 -0.1018 -0.3114
 4039TIP3    H133608   2.103   1.607  13.926  3.1875  1.6523  1.4039
 4039TIP3    H233609   2.102   1.526  13.799 -1.0427 -2.4586  3.7547
 4040TIP3   OH233610   0.951   5.302  13.295 -0.2732  0.6613 -0.3836
 4040TIP3    H133611   0.996   5.386  13.294  0.0839  0.5643  2.0480
 4040TIP3    H233612   1.020   5.238  13.311 -0.6851 -0.0130 -1.2075
 4041TIP3   OH233613   5.389   4.161  16.544 -0.0023  0.7685 -0.5039
 4041TIP3    H133614   5.460   4.182  16.484 -0.0498  2.4467 -0.0307
 4041TIP3    H233615   5.401   4.221  16.618 -1.0759  0.0965  0.2482
 4042TIP3   OH233616   0.484   5.363   4.909 -0.0162  0.2480  0.4357
 4042TIP3    H133617   0.430   5.317   4.844  1.2956 -1.0661  0.2191
 4042TIP3    H233618   0.433   5.359   4.990 -0.8274  0.2277 -0.0695
 4043TIP3   OH233619   2.381   4.211   5.893  0.1289 -0.1305 -0.2010
 4043TIP3    H133620   2.366   4.291   5.842 -0.9865 -1.5538 -2.2271
 4043TIP3    H233621   2.362   4.237   5.983 -1.0837  1.6793 -0.9064
 4044TIP3   OH233622   1.704   4.002   2.107  1.2347  0.0228  0.2451
 4044TIP3    H133623   1.663   3.958   2.033 -0.0037  0.9465  0.3431
 4044TIP3    H233624   1.753   3.933   2.153  1.3774 -0.7079 -0.9761
 4045TIP3   OH233625   3.370   3.768   2.879  0.2167  0.2799  0.4560
 4045TIP3    H133626   3.303   3.703   2.860  0.9332 -0.4317  0.2977
 4045TIP3    H233627   3.405   3.793   2.793  0.5716  0.1844  0.5697
 4046TIP3   OH233628   4.959   5.382  15.440 -0.9609 -0.4873  0.4148
 4046TIP3    H133629   4.966   5.311  15.503 -3.0870 -0.5303  0.6522
 4046TIP3    H233630   4.901   5.445  15.481  0.5461  1.2472  0.0243
 4047TIP3   OH233631   4.995   4.524   2.666 -0.2745  0.1825  0.5948
 4047TIP3    H133632   5.080   4.528   2.708  0.5410 -2.0010 -0.6871
 4047TIP3    H233633   4.939   4.478   2.728  0.2393 -0.7779  0.3679
 4048TIP3   OH233634   5.823   5.767  10.913  0.5547 -0.1198 -0.7162
 4048TIP3    H133635   5.744   5.733  10.871 -2.9387  1.3565  3.7133
 4048TIP3    H233636   5.866   5.690  10.950 -1.9061 -0.7155  1.1660
 4049TIP3   OH233637   0.402   4.632  12.511  0.6364 -0.1341 -0.3258
 4049TIP3    H133638   0.453   4.680  12.445 -0.7359  1.5694 -0.2086
 4049TIP3    H233639   0.349   4.699  12.554 -1.4294 -1.7755 -0.1664
 4050TIP3   OH233640   4.695   5.633  15.354  0.2158 -0.0352  0.3738
 4050TIP3    H133641   4.672   5.540  15.361  0.1621  0.0225  0.9735
 4050TIP3    H233642   4.625   5.671  15.302  0.0994 -0.2801  0.3521
 4051TIP3   OH233643   4.705   0.455  15.941  0.0502 -0.4992 -0.3764
 4051TIP3    H133644   4.772   0.405  15.989  1.3046 -0.1321 -1.6993
 4051TIP3    H233645   4.626   0.401  15.949  0.5561 -1.1073  0.9334
 4052TIP3   OH233646   2.620   1.361  13.448 -0.3106  0.2035 -0.1577
 4052TIP3    H133647   2.596   1.440  13.399 -2.7013 -0.1045  0.3683
 4052TIP3    H233648   2.538   1.334  13.490  0.9082 -1.4316  1.2965
 4053TIP3   OH233649   2.362   5.604   1.098 -0.8354 -0.2389  0.3864
 4053TIP3    H133650   2.422   5.651   1.156 -1.0309  2.1457 -1.1770
 4053TIP3    H233651   2.417   5.544   1.049  0.1409  1.1019 -0.2199
 4054TIP3   OH233652   3.710   6.572   4.725  0.2619  0.0954  0.0981
 4054TIP3    H133653   3.621   6.557   4.757 -0.2478  1.3226 -0.6975
 4054TIP3    H233654   3.713   6.665   4.703  1.0595 -0.3556 -1.9330
 4055TIP3   OH233655   4.995   6.404   2.715  0.1191 -0.1279 -0.2814
 4055TIP3    H133656   5.058   6.472   2.739 -0.8565  0.2579  1.2768
 4055TIP3    H233657   4.983   6.416   2.620 -0.2285  2.0577 -0.0096
 4056TIP3   OH233658   3.376   1.017  11.053  0.4009  0.6134  0.3172
 4056TIP3    H133659   3.443   1.029  10.986 -1.0539 -1.9234 -1.7703
 4056TIP3    H233660   3.370   0.923  11.066 -1.3317  0.8764  1.9828
 4057TIP3   OH233661   3.107   2.425   2.738  0.0195  0.3740  0.0188
 4057TIP3    H133662   3.118   2.413   2.644 -1.9054 -0.4609 -0.1392
 4057TIP3    H233663   3.168   2.363   2.778  0.4386  0.3273 -0.6870
 4058TIP3   OH233664   3.455   6.072   4.206  0.0085 -0.1407  0.8154
 4058TIP3    H133665   3.530   6.125   4.234  0.6451  0.9217 -2.4806
 4058TIP3    H233666   3.407   6.128   4.146 -1.7115 -1.8912  0.4630
 4059TIP3   OH233667   4.492   6.532  10.890 -0.0908  0.1627  0.2021
 4059TIP3    H133668   4.410   6.512  10.936 -0.4395  1.3408  0.1205
 4059TIP3    H233669   4.474   6.614  10.844  0.8137 -0.0958 -0.6405
 4060TIP3   OH233670   5.937   2.273   5.601 -0.1009 -0.4922 -0.4465
 4060TIP3    H133671   5.913   2.288   5.510 -0.6432  0.4027 -0.1665
 4060TIP3    H233672   5.896   2.345   5.649 -0.3454 -1.2976  0.5853
 4061TIP3   OH233673   0.678   1.635  14.727 -0.3442 -0.5610  0.0095
 4061TIP3    H133674   0.667   1.716  14.777 -1.1387 -0.6046 -0.0699
 4061TIP3    H233675   0.588   1.608  14.707 -0.0954 -1.5984  0.2552
 4062TIP3   OH233676   6.235   4.196  12.682  0.0880 -0.4170 -0.2842
 4062TIP3    H133677   6.303   4.132  12.660  2.0390  0.8121  1.7844
 4062TIP3    H233678   6.207   4.170  12.770 -2.2594 -0.9339 -1.1163
 4063TIP3   OH233679   2.363   5.253   3.449 -0.3736  0.1365 -0.0951
 4063TIP3    H133680   2.329   5.206   3.373 -2.7494  0.9884  0.3384
 4063TIP3    H233681   2.380   5.184   3.514 -2.6075 -0.3412  0.0901
 4064TIP3   OH233682   5.878   0.188  16.762 -0.4236 -0.5175 -0.0806
 4064TIP3    H133683   5.960   0.179  16.811  0.0640  1.9426 -0.3291
 4064TIP3    H233684   5.896   0.145  16.678  0.3838 -0.5567  0.0997
 4065TIP3   OH233685   3.031   3.736   6.563 -0.0224 -0.0217 -0.5688
 4065TIP3    H133686   2.963   3.803   6.555 -0.0577 -0.1247 -1.1799
 4065TIP3    H233687   2.998   3.675   6.628  0.4858  1.1222  0.8220
 4066TIP3   OH233688   5.305   4.686  10.595  0.6105  0.0323  0.1980
 4066TIP3    H133689   5.286   4.596  10.622 -1.8170  0.1449 -0.8824
 4066TIP3    H233690   5.244   4.739  10.647 -0.2154  0.7285 -1.4191
 4067TIP3   OH233691   2.025   2.478  13.980 -0.7033 -0.6051  0.4609
 4067TIP3    H133692   1.971   2.541  13.931 -0.3459  0.6623  1.6339
 4067TIP3    H233693   2.047   2.524  14.061  2.7879 -0.7660 -0.2658
 4068TIP3   OH233694   3.395   6.614   3.695 -0.7256 -0.2116 -0.5606
 4068TIP3    H133695   3.396   6.523   3.723 -1.2023  0.4173  1.8070
 4068TIP3    H233696   3.486   6.636   3.676 -0.3817 -0.7711  0.4080
 4069TIP3   OH233697   2.848   0.686   5.294  0.3588  0.2270  0.2073
 4069TIP3    H133698   2.771   0.630   5.302 -0.5946  1.3181 -0.8396
 4069TIP3    H233699   2.842   0.746   5.369 -0.5914  1.1677 -0.5795
 4070TIP3   OH233700   5.013   1.317  12.598  0.3520 -0.5367  0.2171
 4070TIP3    H133701   5.018   1.357  12.685  1.4983  1.4685 -0.6871
 4070TIP3    H233702   5.075   1.244  12.601  1.0924  0.1069  0.8014
 4071TIP3   OH233703   4.647   2.731  14.436  0.4102  0.8310 -0.4033
 4071TIP3    H133704   4.611   2.790  14.370 -1.4049 -0.0094 -0.2130
 4071TIP3    H233705   4.656   2.647  14.391  3.1846  1.2002 -0.7366
 4072TIP3   OH233706   0.227   1.745  15.120 -0.3887  0.3824  0.5141
 4072TIP3    H133707   0.298   1.724  15.060 -1.1711 -0.1011 -0.2757
 4072TIP3    H233708   0.226   1.673  15.183 -1.1333 -0.4277 -0.3884
 4073TIP3   OH233709   5.009   2.624   4.255 -0.0638  0.6722  0.5233
 4073TIP3    H133710   5.032   2.575   4.334 -3.5841 -3.1152 -0.4509
 4073TIP3    H233711   5.048   2.573   4.184  0.3174  2.1914 -0.4051
 4074TIP3   OH233712   4.274   0.724   1.888 -0.2013 -0.3665  0.6937
 4074TIP3    H133713   4.316   0.792   1.941 -0.0153  0.3524 -0.3412
 4074TIP3    H233714   4.215   0.772   1.830 -0.0314 -1.0779 -0.0880
 4075TIP3   OH233715   4.264   6.015   5.182  0.6429 -0.8358 -0.3419
 4075TIP3    H133716   4.280   5.926   5.150 -0.7306 -1.3652  0.3557
 4075TIP3    H233717   4.243   6.004   5.275  1.3921  0.3364 -0.0064
 4076TIP3   OH233718   1.495   1.512  14.201  0.1788 -0.0694 -0.0327
 4076TIP3    H133719   1.569   1.467  14.243 -0.1146 -0.9514 -0.4266
 4076TIP3    H233720   1.489   1.472  14.115  0.1697  1.0520 -0.5649
 4077TIP3   OH233721   3.549   4.539   5.635 -0.2572  0.8832 -0.2149
 4077TIP3    H133722   3.509   4.584   5.709 -0.3171 -1.0214  0.9744
 4077TIP3    H233723   3.500   4.569   5.559  0.1070  3.2355  0.4209
 4078TIP3   OH233724   3.012   4.194   4.446 -0.2459  0.1668  0.1121
 4078TIP3    H133725   3.039   4.114   4.491 -1.6284 -0.0929  0.5161
 4078TIP3    H233726   2.918   4.200   4.462 -0.4768  0.9493 -1.3963
 4079TIP3   OH233727   3.225   1.576  15.888  0.0851  0.5804  0.1470
 4079TIP3    H133728   3.184   1.528  15.960 -0.5218 -0.4371 -0.8572
 4079TIP3    H233729   3.226   1.515  15.815  1.3026  1.3683 -0.5386
 4080TIP3   OH233730   5.032   5.850   2.753 -0.2627 -0.1400 -0.3574
 4080TIP3    H133731   5.020   5.944   2.737  0.7749 -0.1152 -1.1358
 4080TIP3    H233732   5.073   5.845   2.839 -2.0925 -0.0157  0.5660
 4081TIP3   OH233733   0.842   5.648   3.920  0.1990  0.0255  0.3944
 4081TIP3    H133734   0.883   5.569   3.885  0.2255  0.0862  0.2920
 4081TIP3    H233735   0.851   5.639   4.015  2.5691  1.1709  0.3452
 4082TIP3   OH233736   4.417   4.706  13.283  0.4245  0.2888  0.1346
 4082TIP3    H133737   4.330   4.746  13.278  0.0178 -0.6274 -0.4752
 4082TIP3    H233738   4.409   4.640  13.352  0.0902 -1.0082 -1.0871
 4083TIP3   OH233739   1.812   0.808  10.762 -0.4061  0.3084  0.0141
 4083TIP3    H133740   1.823   0.903  10.766  1.9969  0.0530  1.0541
 4083TIP3    H233741   1.797   0.790  10.669 -0.4819  1.6585 -0.2528
 4084TIP3   OH233742   1.347   3.311  15.587  0.0327 -0.0651 -0.2327
 4084TIP3    H133743   1.427   3.353  15.618 -1.2165  1.1752  1.4539
 4084TIP3    H233744   1.321   3.363  15.511  0.7719 -0.4513 -0.7697
 4085TIP3   OH233745   5.178   3.878   5.258 -0.3886 -0.6226 -0.2433
 4085TIP3    H133746   5.196   3.908   5.169  2.2269 -0.5736  0.2159
 4085TIP3    H233747   5.140   3.791   5.247  0.8363 -1.0465 -1.4235
 4086TIP3   OH233748   0.003   5.598  15.725  0.2400  0.1501 -0.6682
 4086TIP3    H133749  -0.041   5.555  15.798  1.1013  0.9946  0.3897
 4086TIP3    H233750   0.039   5.526  15.673 -0.5255 -0.4677 -0.3625
 4087TIP3   OH233751   6.176   1.557   5.812 -1.1655  0.0787  0.0127
 4087TIP3    H133752   6.087   1.574   5.782 -0.9049  0.1000 -0.7977
 4087TIP3    H233753   6.174   1.468   5.845 -1.1779 -0.4401 -1.3285
 4088TIP3   OH233754   0.005   6.143   4.414  0.1195  0.0245 -0.0696
 4088TIP3    H133755  -0.069   6.086   4.393  1.3563 -2.0491  0.9589
 4088TIP3    H233756  -0.035   6.229   4.427 -1.8165 -0.5501 -1.6591
 4089TIP3   OH233757   4.760   3.589  12.636  0.0572 -0.0738  0.2134
 4089TIP3    H133758   4.802   3.517  12.589 -0.4391  0.6109 -1.3391
 4089TIP3    H233759   4.809   3.666  12.609 -1.5561  0.6099 -0.8581
 4090TIP3   OH233760   6.327   3.259  15.252  0.4952 -0.2848  0.2686
 4090TIP3    H133761   6.402   3.232  15.304  0.4093 -1.0684 -0.0011
 4090TIP3    H233762   6.342   3.352  15.234  1.4935 -0.4774  0.0507
 4091TIP3   OH233763   2.657   4.542   3.887  0.1737  0.1804 -0.7211
 4091TIP3    H133764   2.651   4.490   3.967 -2.0756  1.9548  0.3556
 4091TIP3    H233765   2.701   4.623   3.913 -0.3785  0.6874 -1.3283
 4092TIP3   OH233766   0.248   1.570   0.626  0.3433  0.7082 -0.3944
 4092TIP3    H133767   0.183   1.604   0.564  0.5315 -2.3311 -2.4841
 4092TIP3    H233768   0.283   1.648   0.668 -0.7793  2.9024 -3.1455
 4093TIP3   OH233769   3.446   1.756   1.951 -0.8802 -0.0531 -0.5397
 4093TIP3    H133770   3.401   1.832   1.914 -0.7959  0.0480 -0.4341
 4093TIP3    H233771   3.377   1.705   1.993 -1.1130 -0.5765 -1.5082
 4094TIP3   OH233772   6.412   0.206   2.627  0.2000  0.4629 -0.6603
 4094TIP3    H133773   6.333   0.233   2.673  0.7076 -1.2064  1.3557
 4094TIP3    H233774   6.468   0.170   2.695  2.8233  1.7666 -2.0011
 4095TIP3   OH233775   6.402   4.767   5.282 -0.2798 -0.0302 -0.1533
 4095TIP3    H133776   6.404   4.700   5.214 -0.7523 -0.5550  0.3401
 4095TIP3    H233777   6.401   4.718   5.364  1.0804  0.5952  0.2667
 4096TIP3   OH233778   0.484   0.062   0.586 -0.2658  0.0222 -0.1097
 4096TIP3    H133779   0.392   0.036   0.573 -0.2694  0.4931 -1.1157
 4096TIP3    H233780   0.524  -0.013   0.631 -1.8602  1.0262  3.3158
 4097TIP3   OH233781   1.352   2.105   2.411  0.3082  0.5127 -0.1417
 4097TIP3    H133782   1.386   2.019   2.388  1.9559  1.1733 -0.4067
 4097TIP3    H233783   1.273   2.115   2.359  0.3460 -0.6560 -0.4469
 4098TIP3   OH233784   3.036   5.047   2.191 -0.0161  0.4439 -1.1988
 4098TIP3    H133785   2.982   4.968   2.191 -0.8573  1.0071 -1.0666
 4098TIP3    H233786   3.121   5.019   2.156 -0.2352 -0.5591 -0.9507
 4099TIP3   OH233787   5.900   3.799  15.781  0.3105  0.6561 -0.1944
 4099TIP3    H133788   5.915   3.854  15.704 -1.3540  0.2963 -0.8312
 4099TIP3    H233789   5.869   3.716  15.745  1.1348 -0.1112  0.8231
 4100TIP3   OH233790   6.410   6.809   4.395 -0.2368  0.1328 -0.3248
 4100TIP3    H133791   6.324   6.788   4.432 -0.3591  0.4557 -0.4261
 4100TIP3    H233792   6.443   6.725   4.363  0.3104 -0.3478  1.3900
 4101TIP3   OH233793   6.673   2.522   4.368 -0.5525 -0.0547 -0.0922
 4101TIP3    H133794   6.622   2.556   4.294 -1.7673  0.1326  0.7893
 4101TIP3    H233795   6.702   2.599   4.415 -1.3358 -0.1712  0.6159
 4102TIP3   OH233796   4.002   2.184   5.926  0.6701 -0.1346 -0.2515
 4102TIP3    H133797   3.998   2.202   6.019 -1.6313  0.6620 -0.4557
 4102TIP3    H233798   4.017   2.269   5.885 -1.8954  0.1586 -0.7476
 4103TIP3   OH233799   5.844   4.539  15.711 -0.0364  0.4217 -0.4463
 4103TIP3    H133800   5.819   4.512  15.623 -2.6340  0.5623  0.1642
 4103TIP3    H233801   5.871   4.631  15.701  1.0386  0.0389 -1.2640
 4104TIP3   OH233802   5.407   5.442  16.551  0.4575 -0.3851 -0.2251
 4104TIP3    H133803   5.422   5.487  16.468  0.9060  1.0391  0.5954
 4104TIP3    H233804   5.382   5.512  16.612  1.6495 -1.1581  1.2135
 4105TIP3   OH233805   3.345   5.216   4.616 -0.4611 -0.2413  0.6143
 4105TIP3    H133806   3.394   5.163   4.679  0.0498  0.8313  1.1673
 4105TIP3    H233807   3.358   5.173   4.532  0.9019 -0.3724  0.8569
 4106TIP3   OH233808   3.460   5.883  17.097 -0.0783  0.1719 -0.1877
 4106TIP3    H133809   3.365   5.889  17.088 -0.0591 -0.0974 -0.6107
 4106TIP3    H233810   3.482   5.800  17.055  0.5264  1.0164 -1.6397
 4107TIP3   OH233811   2.616   6.815   3.318 -0.5055 -0.1245 -0.7136
 4107TIP3    H133812   2.542   6.848   3.267 -2.3563 -2.1248  0.4746
 4107TIP3    H233813   2.601   6.720   3.322  0.0547 -0.1826  2.6451
 4108TIP3   OH233814   1.576   6.329  12.496 -0.4637 -0.6976 -0.1528
 4108TIP3    H133815   1.619   6.333  12.410  0.2426  0.4874  0.2313
 4108TIP3    H233816   1.648   6.323  12.559 -0.6551  2.5758  0.5923
 4109TIP3   OH233817   0.059   3.779  16.001 -0.0939  0.1484  0.0366
 4109TIP3    H133818   0.080   3.727  16.079  0.9510  1.8454  0.9656
 4109TIP3    H233819  -0.012   3.837  16.030  1.8704  2.4766  0.6129
 4110TIP3   OH233820   6.333   3.133   4.054  0.1514  0.2000 -0.6641
 4110TIP3    H133821   6.372   3.084   4.126  1.1029  1.5082 -0.2485
 4110TIP3    H233822   6.242   3.147   4.081 -0.1712 -1.3921 -0.8469
 4111TIP3   OH233823   2.871   1.667  13.261 -0.0425  0.4769 -0.2629
 4111TIP3    H133824   2.799   1.731  13.261 -1.7634 -1.3796  0.0304
 4111TIP3    H233825   2.860   1.619  13.179 -1.0264 -1.7956  1.1217
 4112TIP3   OH233826   1.262   2.361  13.550 -0.2024  0.0280  0.4146
 4112TIP3    H133827   1.295   2.344  13.639 -0.1172  1.6192  0.7110
 4112TIP3    H233828   1.268   2.456  13.540 -1.9628  0.0631 -0.6198
 4113TIP3   OH233829   3.883   6.313   2.325  0.6857  0.2087 -0.2278
 4113TIP3    H133830   3.974   6.303   2.353  0.4532  0.3427  0.5946
 4113TIP3    H233831   3.864   6.406   2.337  1.0386  0.5921 -2.2906
 4114TIP3   OH233832   6.050   3.595   0.061 -0.3303  0.3221 -0.1558
 4114TIP3    H133833   6.098   3.613  -0.020 -0.6563 -0.9079 -0.6436
 4114TIP3    H233834   5.961   3.628   0.043 -0.6760 -0.8283 -0.7046
 4115TIP3   OH233835   3.704   4.326   5.715 -0.3507 -0.0741 -0.2485
 4115TIP3    H133836   3.750   4.347   5.796 -0.1288 -1.9573  0.1439
 4115TIP3    H233837   3.664   4.409   5.689 -0.7558  0.5130  1.9922
 4116TIP3   OH233838   4.075   5.479  14.525 -0.3234  0.2623 -0.6264
 4116TIP3    H133839   3.992   5.456  14.567  0.0761  1.0778  0.6829
 4116TIP3    H233840   4.086   5.573  14.543  1.5124 -0.1010  0.3855
 4117TIP3   OH233841   2.364   4.993   2.452  0.6785  0.4278  0.4587
 4117TIP3    H133842   2.379   5.081   2.486  0.2607  0.7911 -0.2661
 4117TIP3    H233843   2.394   4.997   2.361 -0.3457  0.1402  0.0893
 4118TIP3   OH233844   6.025   1.270  12.715 -0.0302 -0.2285 -0.5719
 4118TIP3    H133845   6.041   1.331  12.643 -0.8847 -1.0492 -1.4868
 4118TIP3    H233846   6.050   1.184  12.680 -1.0982 -0.7355 -0.1503
 4119TIP3   OH233847   2.813   0.798  15.184 -0.2004 -0.4451 -0.1255
 4119TIP3    H133848   2.720   0.808  15.167 -0.1158 -0.4108 -0.5614
 4119TIP3    H233849   2.844   0.736  15.119 -0.0874 -1.1324  0.5667
 4120TIP3   OH233850   2.321   1.074  13.752  0.3831  0.1778 -0.3060
 4120TIP3    H133851   2.310   1.086  13.846  1.2353 -1.2900  0.0137
 4120TIP3    H233852   2.370   0.992  13.744  0.4617  0.3593 -2.0237
 4121TIP3   OH233853   2.851   2.990   0.472  0.1436 -0.8691 -0.5269
 4121TIP3    H133854   2.773   2.953   0.513 -0.3874 -1.2141 -1.7891
 4121TIP3    H233855   2.922   2.970   0.533 -0.7646 -0.4341  0.7088
 4122TIP3   OH233856   4.749   1.888  14.747  0.5723 -1.0323  0.0438
 4122TIP3    H133857   4.761   1.889  14.652  0.0703 -1.3643 -0.0214
 4122TIP3    H233858   4.829   1.929  14.781  1.0059 -1.4222 -0.4925
 4123TIP3   OH233859   4.592   3.498   5.174 -0.1505 -0.7099 -0.7526
 4123TIP3    H133860   4.675   3.489   5.221  0.9359 -0.5143 -2.5587
 4123TIP3    H233861   4.604   3.445   5.095 -1.2046  0.4862 -1.7408
 4124TIP3   OH233862   6.316   6.191   0.849  0.2038 -0.5337 -0.2501
 4124TIP3    H133863   6.283   6.239   0.774  0.1452  2.9484  1.7962
 4124TIP3    H233864   6.404   6.226   0.864 -0.4151  0.1950  2.2185
 4125TIP3   OH233865   1.742   5.155   4.038 -0.1962  0.2773  0.2078
 4125TIP3    H133866   1.816   5.216   4.039 -0.7074  0.8967  1.0100
 4125TIP3    H233867   1.679   5.192   4.100 -0.9522 -0.5304 -0.0581
 4126TIP3   OH233868   1.664   1.264  16.549 -0.0484 -0.3042 -0.3506
 4126TIP3    H133869   1.684   1.186  16.497  1.0509 -0.5322  0.3917
 4126TIP3    H233870   1.644   1.230  16.636  0.9144  0.2795  0.1022
 4127TIP3   OH233871   2.566   6.032  16.671 -0.4164  0.1559 -0.2829
 4127TIP3    H133872   2.528   5.952  16.633 -1.2302 -1.3264  3.2991
 4127TIP3    H233873   2.511   6.102  16.636 -0.3748 -0.8805 -2.6660
 4128TIP3   OH233874   0.469   2.706  16.994  0.0745 -0.5458  0.2760
 4128TIP3    H133875   0.466   2.660  16.910  2.1782  0.0999 -0.2035
 4128TIP3    H233876   0.503   2.642  17.055  0.9222 -0.2899  0.0806
 4129TIP3   OH233877   5.904   1.544   1.054 -0.6744 -0.0955 -0.4502
 4129TIP3    H133878   5.812   1.568   1.065 -0.6074 -0.5181  1.2359
 4129TIP3    H233879   5.905   1.449   1.065  0.2290  0.1304  1.8223
 4130TIP3   OH233880   1.380   5.618   2.675  0.1783  0.2646 -0.0819
 4130TIP3    H133881   1.358   5.554   2.606  0.8918  0.2477 -0.3043
 4130TIP3    H233882   1.461   5.659   2.644  1.2520 -0.6883  1.3814
 4131TIP3   OH233883   2.403   5.585  15.223  0.3648  0.1373 -0.5323
 4131TIP3    H133884   2.354   5.642  15.163 -0.1359 -0.8744 -1.1231
 4131TIP3    H233885   2.335   5.531  15.264  0.6953  0.8952  1.0505
 4132TIP3   OH233886   2.159   1.191  16.207 -0.1161 -0.3110  0.2179
 4132TIP3    H133887   2.242   1.183  16.159  0.4859 -1.0038  1.3213
 4132TIP3    H233888   2.155   1.111  16.259 -1.3352 -0.1290  0.4190
 4133TIP3   OH233889   4.679   5.230   5.414 -0.6341 -0.1680 -0.4665
 4133TIP3    H133890   4.593   5.267   5.430 -0.7110 -0.9047  0.9591
 4133TIP3    H233891   4.730   5.302   5.379 -1.5726  0.5182 -0.4549
 4134TIP3   OH233892   6.079   5.436   5.254  0.5126 -0.3542 -0.2515
 4134TIP3    H133893   6.107   5.519   5.216 -1.5648  0.2560 -0.5833
 4134TIP3    H233894   6.015   5.461   5.321  0.3860 -1.6552  0.1390
 4135TIP3   OH233895   5.333   3.626  13.072  0.1436 -0.0054  0.6730
 4135TIP3    H133896   5.326   3.713  13.113  0.5718  0.6362 -0.5625
 4135TIP3    H233897   5.402   3.636  13.007 -1.4497 -0.5468 -1.2022
 4136TIP3   OH233898   4.484   5.023   5.772  0.1373 -0.0567  0.4087
 4136TIP3    H133899   4.422   4.988   5.836  0.5375 -1.5437  0.0189
 4136TIP3    H233900   4.570   5.002   5.808  0.4584  2.1621  1.0403
 4137TIP3   OH233901   0.762   5.308   4.971 -0.1427 -0.2418 -0.0666
 4137TIP3    H133902   0.781   5.232   4.916 -1.0982 -1.7289  1.5660
 4137TIP3    H233903   0.672   5.332   4.949  0.0355  0.2189 -0.3180
 4138TIP3   OH233904   4.611   6.553   3.945 -0.1169 -0.4490  0.0080
 4138TIP3    H133905   4.673   6.506   4.002  1.0410  0.2662 -0.6216
 4138TIP3    H233906   4.606   6.641   3.983 -4.4107 -1.5922  2.8750
 4139TIP3   OH233907   6.834   2.784   1.405  0.1333 -0.2351 -0.0434
 4139TIP3    H133908   6.842   2.846   1.332 -1.1977  0.5813  0.4710
 4139TIP3    H233909   6.850   2.837   1.483  0.3989 -0.8529  0.3286
 4140TIP3   OH233910   1.508   5.173   3.847 -0.0814  0.3024 -0.1772
 4140TIP3    H133911   1.585   5.185   3.903 -0.1209  0.4939 -0.1630
 4140TIP3    H233912   1.464   5.096   3.883  0.1439  0.1502 -0.2311
 4141TIP3   OH233913   3.676   1.048  16.254  0.2715  0.3334 -0.1656
 4141TIP3    H133914   3.652   0.959  16.279 -0.4632  0.6498  0.2796
 4141TIP3    H233915   3.756   1.066  16.304  1.0143 -0.4315 -1.0323
 4142TIP3   OH233916   5.843   1.314  11.196 -0.2021  0.4199 -0.2912
 4142TIP3    H133917   5.872   1.230  11.159  0.9841  0.4557  0.4900
 4142TIP3    H233918   5.814   1.292  11.285 -0.0266  0.8099 -0.1353
 4143TIP3   OH233919   2.809   3.148   1.274 -0.1043 -0.3834  0.2133
 4143TIP3    H133920   2.728   3.177   1.317 -0.4091  1.5275 -1.4626
 4143TIP3    H233921   2.860   3.228   1.263  0.8599 -1.1323 -1.0670
 4144TIP3   OH233922   4.394   5.597   6.400  0.7156  0.1285  0.4157
 4144TIP3    H133923   4.371   5.657   6.471  0.0762  0.1960  0.1618
 4144TIP3    H233924   4.437   5.652   6.335 -0.3926  0.4465 -0.0764
 4145TIP3   OH233925   0.563   0.853   2.275  0.4507  0.3331  0.6100
 4145TIP3    H133926   0.524   0.804   2.348  1.2615 -1.3115 -0.0080
 4145TIP3    H233927   0.561   0.792   2.201  1.5793  1.2015 -0.1752
 4146TIP3   OH233928   5.233   1.625   5.305  0.0759 -1.1923 -0.1998
 4146TIP3    H133929   5.235   1.530   5.316 -0.0351 -1.0588  1.0611
 4146TIP3    H233930   5.157   1.654   5.357  1.9653 -0.1134  2.1363
 4147TIP3   OH233931   3.741   4.078   1.542 -0.4966  0.1709 -0.0303
 4147TIP3    H133932   3.774   4.152   1.594 -0.5814  1.3723 -1.5929
 4147TIP3    H233933   3.689   4.027   1.603  2.2148 -0.4690  1.9501
 4148TIP3   OH233934   0.429   0.772   0.726 -0.2158 -0.8238  0.0400
 4148TIP3    H133935   0.376   0.846   0.754  0.1018 -0.9611  1.0821
 4148TIP3    H233936   0.483   0.805   0.654 -1.3829 -0.5700 -0.7328
 4149TIP3   OH233937   1.906   4.201  11.306  0.3300  0.0312 -0.1577
 4149TIP3    H133938   1.969   4.142  11.265  0.4466 -0.5782  0.8507
 4149TIP3    H233939   1.825   4.150  11.310 -0.1124  0.6486 -1.0389
 4150TIP3   OH233940   1.774   3.843  12.799  0.3691 -0.2433 -0.4992
 4150TIP3    H133941   1.703   3.884  12.750  0.5309 -1.4203 -1.7654
 4150TIP3    H233942   1.853   3.887  12.768  0.2240  1.4113  1.2635
 4151TIP3   OH233943   5.352   1.160   5.127  0.0592  0.2916 -0.0309
 4151TIP3    H133944   5.398   1.206   5.057  0.4832  0.6769  0.4950
 4151TIP3    H233945   5.385   1.070   5.121  1.0334  0.5999  0.4510
 4152TIP3   OH233946   5.030   3.733  13.262  0.4843  0.3614 -0.1426
 4152TIP3    H133947   5.064   3.681  13.335 -0.6603  0.7423  0.7130
 4152TIP3    H233948   5.032   3.674  13.187  0.5696 -0.4468  0.4783
 4153TIP3   OH233949   3.948   6.173  13.147  0.5762 -0.0369 -0.2953
 4153TIP3    H133950   4.036   6.198  13.118  0.5408  0.3461 -0.0808
 4153TIP3    H233951   3.892   6.245  13.117  0.5084  0.2673  0.5422
 4154TIP3   OH233952   3.057   4.306  12.693 -0.1197  0.5429 -0.8015
 4154TIP3    H133953   3.126   4.252  12.655 -0.8393 -1.0544  0.0738
 4154TIP3    H233954   3.103   4.365  12.753  0.3644 -2.1037  1.6010
 4155TIP3   OH233955   6.765   3.203  13.933 -0.5112 -0.2716  0.3769
 4155TIP3    H133956   6.828   3.275  13.924 -1.1002  0.0880 -1.1856
 4155TIP3    H233957   6.798   3.134  13.876 -1.6775  0.0502 -0.7349
 4156TIP3   OH233958   3.680   3.584   4.481  0.4465 -0.1717 -0.7089
 4156TIP3    H133959   3.753   3.633   4.518 -0.8602 -0.2997  2.3375
 4156TIP3    H233960   3.625   3.651   4.440  0.9447  0.2925 -0.6293
 4157TIP3   OH233961   0.617   5.549   2.310 -0.0997 -0.1976 -0.1376
 4157TIP3    H133962   0.612   5.517   2.400  2.6268 -0.1385  0.1471
 4157TIP3    H233963   0.640   5.472   2.258  0.7092  0.1790 -0.3635
 4158TIP3   OH233964   6.269   1.922  16.170 -0.0424  0.0710 -0.3313
 4158TIP3    H133965   6.331   1.879  16.112  0.8855  2.3757 -1.1307
 4158TIP3    H233966   6.229   1.990  16.117 -1.9505 -0.1790  0.7015
 4159TIP3   OH233967   4.963   1.062   3.039  0.1084 -0.1119  0.5869
 4159TIP3    H133968   4.891   1.095   2.984  0.6289 -1.2693 -0.8378
 4159TIP3    H233969   5.038   1.117   3.016  0.2909 -0.4994  0.2598
 4160TIP3   OH233970   0.016   2.325  13.799  0.1797  0.2205  0.1922
 4160TIP3    H133971  -0.006   2.329  13.706  4.5513  1.0116 -1.0317
 4160TIP3    H233972  -0.010   2.409  13.834 -0.8536  0.1957 -0.4847
 4161TIP3   OH233973   6.338   1.638  13.463 -0.5997 -0.2797  0.2294
 4161TIP3    H133974   6.351   1.561  13.520  0.0054 -0.1503  0.2690
 4161TIP3    H233975   6.264   1.614  13.408  0.4885 -1.4933 -0.7697
 4162TIP3   OH233976   1.519   3.487   4.705  0.7440  0.4286  0.0582
 4162TIP3    H133977   1.472   3.519   4.782  0.7281  1.4003 -0.3443
 4162TIP3    H233978   1.584   3.555   4.687  1.7977 -0.5365  0.1458
 4163TIP3   OH233979   0.324   4.290   0.989 -0.3587 -0.6549 -0.1825
 4163TIP3    H133980   0.292   4.281   0.899  1.0453 -0.3967 -0.7382
 4163TIP3    H233981   0.300   4.208   1.031 -0.0496 -1.2549 -1.1311
 4164TIP3   OH233982   3.846   5.951   1.519  0.2078  0.0518 -0.4413
 4164TIP3    H133983   3.809   6.037   1.539  0.5304  0.2204 -0.5657
 4164TIP3    H233984   3.918   5.969   1.459  1.6901 -0.0656  1.1917
 4165TIP3   OH233985   0.062   3.627   1.580  0.4918  0.9957 -0.1745
 4165TIP3    H133986   0.155   3.603   1.571  0.6460  1.7605 -0.7741
 4165TIP3    H233987   0.044   3.681   1.503  0.0262  2.3160  0.8202
 4166TIP3   OH233988   4.740   0.466  16.881 -0.3024  0.0281  0.0418
 4166TIP3    H133989   4.728   0.406  16.955  1.4242  1.2797  1.4450
 4166TIP3    H233990   4.665   0.526  16.886 -0.8693 -0.6602 -0.0311
 4167TIP3   OH233991   5.310   5.618  16.737  0.5067 -0.0478  0.7362
 4167TIP3    H133992   5.313   5.601  16.831  0.4789  1.8208  1.1049
 4167TIP3    H233993   5.300   5.712  16.730  0.9589 -0.1067 -1.1612
 4168TIP3   OH233994   1.311   1.116   4.657 -0.4536  0.1690  0.2485
 4168TIP3    H133995   1.330   1.023   4.646  1.5471  0.3350  1.7742
 4168TIP3    H233996   1.381   1.161   4.610 -0.0001  0.8635  1.5370
 4169TIP3   OH233997   1.325   4.155   1.435 -0.3464  0.5589 -0.0472
 4169TIP3    H133998   1.314   4.205   1.354  0.0138  1.5753  0.5155
 4169TIP3    H233999   1.236   4.135   1.463 -0.7099  3.4597  1.2628
 4170TIP3   OH234000   2.570   1.120   5.475 -0.6005 -0.0938 -0.1368
 4170TIP3    H134001   2.502   1.055   5.488 -1.2913  0.6140 -0.1528
 4170TIP3    H234002   2.591   1.151   5.564  0.5516 -1.1493 -0.0211
 4171TIP3   OH234003   4.326   5.800   4.388  0.0472  0.1525  0.9556
 4171TIP3    H134004   4.254   5.862   4.376  1.0087  1.1197  0.0362
 4171TIP3    H234005   4.298   5.721   4.341  0.1716  1.0057 -0.6024
 4172TIP3   OH234006   4.419   6.761   4.550  0.4636  0.2333 -0.1646
 4172TIP3    H134007   4.330   6.789   4.573  0.1761 -0.6078 -0.2070
 4172TIP3    H234008   4.419   6.757   4.455 -0.1719 -1.8891 -0.1385
 4173TIP3   OH234009   2.856   6.372  13.692 -0.3318 -0.1009  0.2732
 4173TIP3    H134010   2.797   6.298  13.677 -1.0414  0.2780  1.1022
 4173TIP3    H234011   2.803   6.437  13.738  0.2748  0.9431 -0.4354
 4174TIP3   OH234012   3.314   5.758  16.238 -0.3272  0.0630 -0.3804
 4174TIP3    H134013   3.310   5.674  16.192 -0.5081  0.2653 -0.7348
 4174TIP3    H234014   3.222   5.778  16.259 -0.5519  1.3034 -2.3453
 4175TIP3   OH234015   3.842   4.353   2.872  0.4567 -0.0562 -0.0140
 4175TIP3    H134016   3.930   4.316   2.875  0.2305 -0.5517  0.7962
 4175TIP3    H234017   3.787   4.286   2.911  0.0424  1.1831  1.6116
 4176TIP3   OH234018   1.746   5.013   0.265  0.4456  0.4273 -0.3675
 4176TIP3    H134019   1.652   5.018   0.282  0.8350  0.1187  2.2585
 4176TIP3    H234020   1.779   5.101   0.284  1.0437 -0.1877  1.7660
 4177TIP3   OH234021   4.388   5.529   2.438 -0.5865 -0.2113  0.4639
 4177TIP3    H134022   4.465   5.541   2.493  0.2670 -1.0856 -0.4880
 4177TIP3    H234023   4.422   5.487   2.359 -2.0626 -0.7211  0.0759
 4178TIP3   OH234024   6.459   6.100   4.130  0.1172  0.1882 -0.7204
 4178TIP3    H134025   6.393   6.168   4.146 -0.1257 -0.4313  1.1109
 4178TIP3    H234026   6.412   6.031   4.084 -0.0806  0.4600 -0.9328
 4179TIP3   OH234027   0.495   1.729   3.066  0.4976  0.4415 -0.0379
 4179TIP3    H134028   0.534   1.656   3.020  2.0428  0.6467  0.8715
 4179TIP3    H234029   0.501   1.802   3.004 -0.6359 -0.0596 -0.7756
 4180TIP3   OH234030   1.203   1.459  15.584 -0.0134 -0.5552  0.2914
 4180TIP3    H134031   1.295   1.441  15.604 -0.0525 -0.6229  0.4142
 4180TIP3    H234032   1.172   1.380  15.541 -0.1871 -0.7868  0.8359
 4181TIP3   OH234033   3.167   6.363   1.762 -0.1531 -0.1853  0.2820
 4181TIP3    H134034   3.079   6.326   1.766 -1.0155  1.6209 -0.6401
 4181TIP3    H234035   3.192   6.356   1.670 -0.0038  0.7217  0.2430
 4182TIP3   OH234036   1.713   0.112   4.104 -0.0362 -0.3612 -0.9142
 4182TIP3    H134037   1.731   0.168   4.179  1.1223  0.0983 -1.4996
 4182TIP3    H234038   1.665   0.038   4.139 -0.3972  0.3410  0.1033
 4183TIP3   OH234039   5.965   3.079   3.800  0.6823 -0.0869  0.5926
 4183TIP3    H134040   6.014   2.998   3.809 -0.5783 -1.0377 -0.5985
 4183TIP3    H234041   6.030   3.149   3.807  1.9676 -1.2487  0.4134
 4184TIP3   OH234042   0.827   2.575  16.715  0.1029  0.0001 -0.3967
 4184TIP3    H134043   0.921   2.560  16.717  0.1748  0.5015  0.5744
 4184TIP3    H234044   0.806   2.582  16.622  0.7019 -1.9526 -0.7294
 4185TIP3   OH234045   6.172   1.470  13.730 -0.0923 -0.0848  0.0724
 4185TIP3    H134046   6.186   1.431  13.816  1.5764  0.2049 -0.0354
 4185TIP3    H234047   6.134   1.556  13.749  1.5393  0.5584  0.6416
 4186TIP3   OH234048   4.270   5.151   3.420  0.2796 -0.4954  0.3260
 4186TIP3    H134049   4.222   5.234   3.422 -0.1141 -0.6496 -1.1041
 4186TIP3    H234050   4.362   5.177   3.417  0.5114 -0.2020  4.5591
 4187TIP3   OH234051   5.628   1.660   4.574 -0.1378 -0.0111  0.2397
 4187TIP3    H134052   5.600   1.663   4.665 -0.5934  2.4743  0.0882
 4187TIP3    H234053   5.554   1.619   4.528 -0.2023 -0.6229  0.8706
 4188TIP3   OH234054   0.817   3.398  16.082 -0.3083  0.2001  0.4583
 4188TIP3    H134055   0.873   3.476  16.092 -2.1638  1.6181  0.3286
 4188TIP3    H234056   0.839   3.343  16.157  2.7216 -0.3326 -0.6697
 4189TIP3   OH234057   1.093   6.313  12.801  0.1508 -0.2001  0.1186
 4189TIP3    H134058   1.038   6.373  12.752  1.9307  1.1660 -0.3374
 4189TIP3    H234059   1.182   6.330  12.768  0.9589 -1.7120  1.3688
 4190TIP3   OH234060   4.769   4.447   0.073 -0.8380 -1.0406  0.0787
 4190TIP3    H134061   4.762   4.414   0.162 -0.0252  0.2807  0.6665
 4190TIP3    H234062   4.863   4.466   0.061 -0.5708 -3.1379 -1.8026
 4191TIP3   OH234063   1.046   3.685   2.229 -0.4354 -0.4235  0.1089
 4191TIP3    H134064   1.006   3.747   2.168 -0.1602 -0.9577 -0.6247
 4191TIP3    H234065   1.139   3.706   2.227 -0.2702 -1.1613 -0.5192
 4192TIP3   OH234066   0.516   2.122   6.362 -0.6452 -0.2434  0.3915
 4192TIP3    H134067   0.573   2.073   6.422 -0.6082  1.2373  1.6062
 4192TIP3    H234068   0.525   2.213   6.388 -1.0630  0.4076 -1.5382
 4193TIP3   OH234069   5.245   6.724  11.182  0.0527  0.4459  0.1700
 4193TIP3    H134070   5.240   6.694  11.273  0.2032 -3.2094 -0.8586
 4193TIP3    H234071   5.169   6.683  11.139  0.2446  1.7012 -1.4666
 4194TIP3   OH234072   3.226   3.855  16.113 -0.3100 -0.4097  0.5497
 4194TIP3    H134073   3.209   3.821  16.025 -0.2050  1.3081 -0.1638
 4194TIP3    H234074   3.273   3.784  16.156  0.5368 -0.9395 -1.1177
 4195TIP3   OH234075   4.987   0.609  16.929  0.2891  0.4463 -0.5088
 4195TIP3    H134076   4.972   0.652  17.013 -2.2539  2.3468 -1.8234
 4195TIP3    H234077   4.910   0.554  16.916  1.5152 -1.2941 -0.8193
 4196TIP3   OH234078   4.909   6.570   3.318 -0.4410 -0.0839 -0.2433
 4196TIP3    H134079   5.001   6.555   3.298 -0.4179  0.1040 -0.2849
 4196TIP3    H234080   4.861   6.514   3.256 -0.3454 -0.8528  0.3675
 4197TIP3   OH234081   4.477   4.493   3.061 -0.5133  0.2409 -0.1359
 4197TIP3    H134082   4.553   4.453   3.105  0.0326  0.9863 -0.3798
 4197TIP3    H234083   4.402   4.463   3.112 -0.0276 -0.2609  0.3025
 4198TIP3   OH234084   3.699   2.006  16.084  0.7690  0.3071  0.0720
 4198TIP3    H134085   3.671   1.982  16.172 -0.1226 -1.7413 -0.7119
 4198TIP3    H234086   3.734   1.925  16.046 -0.6830  0.6152 -2.1131
 4199TIP3   OH234087   4.909   5.147  12.327 -0.0590  0.4364 -0.0109
 4199TIP3    H134088   4.988   5.186  12.365  0.0190  0.2656  0.0042
 4199TIP3    H234089   4.858   5.118  12.402  0.5960 -0.8860 -0.0413
 4200TIP3   OH234090   1.327   3.621  16.690 -0.2467 -0.3053  0.2848
 4200TIP3    H134091   1.324   3.717  16.689  0.5429 -0.2650  0.9380
 4200TIP3    H234092   1.235   3.595  16.685 -0.4392  0.4648 -0.6535
 4201TIP3   OH234093   5.800   1.347  10.941 -0.3158 -0.7281  0.4259
 4201TIP3    H134094   5.821   1.337  11.034 -0.5173  0.8320  0.6783
 4201TIP3    H234095   5.724   1.405  10.940 -1.1232 -1.7640 -0.6850
 4202TIP3   OH234096   5.813   3.037  12.713 -0.2046  0.2389  0.4171
 4202TIP3    H134097   5.763   2.972  12.762  0.4639  0.6958  1.7610
 4202TIP3    H234098   5.853   3.092  12.780  2.5471 -0.4304 -0.5306
 4203TIP3   OH234099   6.158   1.852   3.532  0.5405  0.3313  0.2386
 4203TIP3    H134100   6.103   1.807   3.596  1.0960 -0.2289  0.3324
 4203TIP3    H234101   6.213   1.911   3.584  0.4624  0.4369  0.2023
 4204TIP3   OH234102   6.599   3.507   4.156 -0.1013  0.0795 -0.0864
 4204TIP3    H134103   6.640   3.424   4.131 -0.6958 -0.3793  0.4638
 4204TIP3    H234104   6.508   3.499   4.127  0.1885  1.1367 -1.3948
 4205TIP3   OH234105   4.244   0.595  14.175  0.3326 -0.0155 -0.3044
 4205TIP3    H134106   4.282   0.633  14.096  1.9184  0.6134  0.7198
 4205TIP3    H234107   4.161   0.642  14.187  1.6154  2.2527  0.1833
 4206TIP3   OH234108   1.002   2.107  14.402  0.3584 -0.1862 -0.5839
 4206TIP3    H134109   0.977   2.077  14.314  0.7873 -2.6345  0.0340
 4206TIP3    H234110   0.934   2.071  14.459  0.5679  0.6200  0.1955
 4207TIP3   OH234111   2.825   3.707   1.047  0.0420 -0.1620  0.3315
 4207TIP3    H134112   2.848   3.614   1.043  1.6296  0.2520 -1.1681
 4207TIP3    H234113   2.904   3.750   1.079 -0.1532  0.8071 -0.4299
 4208TIP3   OH234114   4.979   0.489   3.548 -1.0955 -0.4727 -0.1364
 4208TIP3    H134115   5.070   0.464   3.536 -0.6032  1.4703 -0.6664
 4208TIP3    H234116   4.951   0.437   3.624  0.4306 -1.0930  0.0471
 4209TIP3   OH234117   2.122   4.997   2.647  0.1126  0.6772  0.0458
 4209TIP3    H134118   2.141   4.967   2.558  2.2205  1.8498  0.0573
 4209TIP3    H234119   2.113   5.092   2.639 -1.9816  0.5983  0.7618
 4210TIP3   OH234120   4.479   3.595   0.990 -0.3053 -0.1052 -1.1240
 4210TIP3    H134121   4.523   3.669   1.032  0.8430  0.1046 -2.5805
 4210TIP3    H234122   4.529   3.518   1.017  0.9081  0.1111 -2.6159
 4211TIP3   OH234123   1.759   2.255   4.636 -0.1355  0.3227 -0.0646
 4211TIP3    H134124   1.791   2.324   4.577 -2.2569  1.0971 -0.4065
 4211TIP3    H234125   1.713   2.194   4.579  0.4053 -0.5671  0.4368
 4212TIP3   OH234126   3.488   5.573  15.789  0.1206  0.3129 -0.4439
 4212TIP3    H134127   3.534   5.489  15.785 -0.2502  0.1028 -0.3577
 4212TIP3    H234128   3.556   5.638  15.772  0.3566 -0.0188 -0.7838
 4213TIP3   OH234129   3.678   0.949  11.229  0.0645 -0.2985 -0.7474
 4213TIP3    H134130   3.705   0.857  11.227  1.4895 -0.0084  1.1839
 4213TIP3    H234131   3.592   0.949  11.270  0.2952 -0.7636 -0.2522
 4214TIP3   OH234132   1.223   2.040  12.141  0.6131 -0.5506 -0.3220
 4214TIP3    H134133   1.128   2.046  12.144  0.6746  1.1764 -0.8401
 4214TIP3    H234134   1.242   1.950  12.168 -1.1142 -0.7102  0.5127
 4215TIP3   OH234135   0.297   5.159  10.645  0.0697 -0.4660 -0.0017
 4215TIP3    H134136   0.297   5.192  10.555 -1.5323  0.2046  0.2257
 4215TIP3    H234137   0.235   5.214  10.692  2.2541  0.4666  2.0443
 4216TIP3   OH234138   2.176   1.128  12.601 -0.1517  0.2735  0.4093
 4216TIP3    H134139   2.214   1.215  12.592  0.5528  0.0372  0.9944
 4216TIP3    H234140   2.251   1.070  12.613 -0.2764 -0.9539 -3.3040
 4217TIP3   OH234141   2.237   6.726   5.767 -0.5367 -0.0557  0.6565
 4217TIP3    H134142   2.247   6.809   5.814 -3.4300  1.5572 -1.2495
 4217TIP3    H234143   2.301   6.729   5.697 -1.6143  1.3562 -0.3151
 4218TIP3   OH234144   2.788   4.404  12.515 -0.1020  0.3909  0.1238
 4218TIP3    H134145   2.805   4.440  12.603 -0.9597  0.7648  0.1471
 4218TIP3    H234146   2.875   4.397  12.475  0.5244 -1.4917  1.6288
 4219TIP3   OH234147   4.306   6.107   0.792 -0.4629 -0.7616 -0.0396
 4219TIP3    H134148   4.351   6.147   0.718  3.3886 -0.6026  2.1254
 4219TIP3    H234149   4.275   6.023   0.758 -0.1807 -0.0511 -2.1906
 4220TIP3   OH234150   5.483   0.060  13.633 -0.8387  0.0924 -0.1722
 4220TIP3    H134151   5.512  -0.028  13.608  0.5921  0.2532  0.7978
 4220TIP3    H234152   5.482   0.059  13.729  0.4295  1.4776 -0.1048
 4221TIP3   OH234153   0.054   1.772  11.450  0.4522  0.3913 -0.0220
 4221TIP3    H134154  -0.009   1.796  11.382 -0.4419  0.4688  0.8091
 4221TIP3    H234155   0.086   1.686  11.424 -2.3408 -1.1147  1.1001
 4222TIP3   OH234156   2.638   5.834   1.646  0.0495 -0.2809  0.9694
 4222TIP3    H134157   2.695   5.905   1.675  0.9094  0.0818 -1.3608
 4222TIP3    H234158   2.698   5.766   1.614 -0.7801 -0.6554  0.1453
 4223TIP3   OH234159   4.247   6.348  13.671 -0.2066  0.1296 -0.8240
 4223TIP3    H134160   4.295   6.430  13.659 -0.8699  0.2254 -3.4711
 4223TIP3    H234161   4.312   6.288  13.708  1.2629  0.9338 -1.9732
 4224TIP3   OH234162   0.275   3.837   5.294 -0.0867  0.0332 -0.1515
 4224TIP3    H134163   0.283   3.768   5.360 -1.0819  0.1316  0.0866
 4224TIP3    H234164   0.237   3.794   5.218 -0.5944  0.2840 -0.0452
 4225TIP3   OH234165   5.509   1.414  16.390  0.2466  0.6987  0.2220
 4225TIP3    H134166   5.499   1.500  16.430  2.0496  0.7363  0.7144
 4225TIP3    H234167   5.474   1.424  16.301  1.4130  2.2768 -0.1079
 4226TIP3   OH234168   4.112   2.829  16.510 -0.2800 -0.2242 -0.5042
 4226TIP3    H134169   4.120   2.734  16.501  0.0871 -0.3457  0.9073
 4226TIP3    H234170   4.199   2.863  16.487 -0.6332 -0.1381 -1.8051
 4227TIP3   OH234171   5.024   1.837  16.490 -0.2501 -0.2579  0.2596
 4227TIP3    H134172   4.932   1.864  16.495 -0.4591 -1.0180  0.7253
 4227TIP3    H234173   5.073   1.919  16.489 -0.8345  0.1602  2.1184
 4228TIP3   OH234174   4.414   1.619   1.047  0.4053  0.3046 -0.4058
 4228TIP3    H134175   4.503   1.639   1.016  0.1814  0.9221 -0.6540
 4228TIP3    H234176   4.359   1.687   1.009  0.0230  0.7268  0.8558
 4229TIP3   OH234177   6.277   4.330   4.084  0.0414 -0.7001  0.1194
 4229TIP3    H134178   6.373   4.331   4.086  0.0683  1.7226  0.7200
 4229TIP3    H234179   6.252   4.279   4.161  0.9462  2.0261  2.3904
 4230TIP3   OH234180   4.798   1.094  11.752  0.0620  0.0909  0.2486
 4230TIP3    H134181   4.720   1.048  11.782  0.6322 -1.3312 -0.3937
 4230TIP3    H234182   4.773   1.131  11.667 -0.4312  1.1170  0.8167
 4231TIP3   OH234183   4.517   5.544  13.124 -0.2743 -0.1539  0.2321
 4231TIP3    H134184   4.469   5.466  13.152 -1.5702  0.3356 -0.5318
 4231TIP3    H234185   4.495   5.611  13.188 -0.8295  0.1400 -0.2551
 4232TIP3   OH234186   1.071   4.864   3.635  0.4125  0.0833  0.1931
 4232TIP3    H134187   1.005   4.912   3.685  0.7486 -0.5482  1.2594
 4232TIP3    H234188   1.020   4.802   3.582 -0.2457  3.0526 -3.0083
 4233TIP3   OH234189   5.606   1.180  16.736 -0.4401 -0.1956 -0.4095
 4233TIP3    H134190   5.554   1.189  16.656 -0.6675  0.3384 -0.2134
 4233TIP3    H234191   5.549   1.132  16.796 -1.0946  1.1450  0.1068
 4234TIP3   OH234192   4.051   6.713  10.350 -0.1519  0.6391 -0.3274
 4234TIP3    H134193   3.987   6.679  10.413  0.5539  0.4837  0.3264
 4234TIP3    H234194   4.105   6.637  10.326 -0.1008  0.8021 -0.7363
 4235TIP3   OH234195   4.957   5.910  10.256  0.8364  0.3155 -0.1190
 4235TIP3    H134196   4.926   5.834  10.208 -1.2590  0.0182  1.5329
 4235TIP3    H234197   4.946   5.886  10.348  2.4010  1.7450  0.4878
 4236TIP3   OH234198   5.548   3.758   5.587 -0.5434  0.7076  0.9302
 4236TIP3    H134199   5.464   3.736   5.626 -1.2722 -0.4800 -1.1390
 4236TIP3    H234200   5.599   3.677   5.593 -0.4505  0.6906  0.0515
 4237TIP3   OH234201   3.526   1.825  15.569 -0.4303  0.1167  0.9181
 4237TIP3    H134202   3.453   1.853  15.625 -1.0022 -0.3526  0.4220
 4237TIP3    H234203   3.500   1.738  15.538  1.8198 -1.5910  3.3897
 4238TIP3   OH234204   1.863   2.627   6.744  0.2239  0.3154  0.6369
 4238TIP3    H134205   1.951   2.629   6.781  1.2968  1.7684 -1.7376
 4238TIP3    H234206   1.824   2.711   6.770  0.6035  0.8813 -0.5075
 4239TIP3   OH234207   0.383   1.824   4.397  0.1296 -0.7375 -0.0285
 4239TIP3    H134208   0.351   1.911   4.374 -0.2031 -0.8714 -0.0736
 4239TIP3    H234209   0.306   1.768   4.394  0.6239 -1.3736 -1.6283
 4240TIP3   OH234210   6.291   4.455  12.560  0.1284 -0.3417  0.2229
 4240TIP3    H134211   6.253   4.374  12.594  1.6640 -1.4602 -0.6345
 4240TIP3    H234212   6.369   4.469  12.613 -0.2709  0.7723  0.5544
 4241TIP3   OH234213   3.003   2.117  15.154  0.5195  0.3809 -0.1337
 4241TIP3    H134214   3.060   2.193  15.156  0.8272  0.1624 -0.4472
 4241TIP3    H234215   3.048   2.055  15.097 -0.0466  0.2159 -0.4081
 4242TIP3   OH234216   4.471   4.735  15.203 -0.0842 -0.4339 -0.3500
 4242TIP3    H134217   4.531   4.762  15.134 -0.2094  1.3091  0.1828
 4242TIP3    H234218   4.515   4.761  15.285 -1.0581 -0.1517  0.0960
 4243TIP3   OH234219   4.346   3.002  13.360 -0.5728 -0.2670  0.4025
 4243TIP3    H134220   4.333   3.001  13.455 -0.4271 -0.5010  0.4192
 4243TIP3    H234221   4.363   3.094  13.340  0.9867 -0.4443  0.8173
 4244TIP3   OH234222   2.891   0.060   6.457  0.2488 -0.4841  0.1852
 4244TIP3    H134223   2.885   0.128   6.391 -0.9665 -0.8001 -0.0541
 4244TIP3    H234224   2.865   0.104   6.539  0.2643 -0.4630  0.1787
 4245TIP3   OH234225   5.950   1.953  14.493 -0.0992 -0.1679  0.3418
 4245TIP3    H134226   5.932   2.019  14.560 -1.8621  0.1303 -0.3626
 4245TIP3    H234227   5.995   1.883  14.540 -1.1956  0.0766  1.8275
 4246TIP3   OH234228   6.533   5.486   2.437 -0.6796  0.5091 -0.5350
 4246TIP3    H134229   6.481   5.442   2.504  0.6129  1.2345  1.0096
 4246TIP3    H234230   6.619   5.499   2.478  0.7217 -0.5700 -2.9605
 4247TIP3   OH234231   1.270   0.958   2.142 -0.0084  0.0797 -0.3729
 4247TIP3    H134232   1.316   1.041   2.152 -0.6832  0.4554 -0.3288
 4247TIP3    H234233   1.207   0.956   2.215  0.4030 -0.7386 -0.0290
 4248TIP3   OH234234   0.658   6.073  11.407  1.0998 -0.3975 -0.4159
 4248TIP3    H134235   0.644   6.064  11.501 -0.3938 -1.3507 -0.6896
 4248TIP3    H234236   0.570   6.084  11.370  1.7987  2.5387 -1.5069
 4249TIP3   OH234237   0.644   6.714  13.874  0.2096  0.6405 -0.0933
 4249TIP3    H134238   0.659   6.799  13.833  0.6816  0.7453  0.2793
 4249TIP3    H234239   0.643   6.733  13.968  3.8305 -0.1955  0.2722
 4250TIP3   OH234240   3.243   3.712   3.377  0.7087 -0.2562 -0.5820
 4250TIP3    H134241   3.265   3.786   3.320  0.9922  0.7457  0.7590
 4250TIP3    H234242   3.317   3.707   3.438  0.4559 -1.3330 -0.3524
 4251TIP3   OH234243   4.251   5.450   2.039 -0.2472 -0.0351  0.1681
 4251TIP3    H134244   4.168   5.488   2.069  0.5621  1.3252  0.7972
 4251TIP3    H234245   4.314   5.475   2.106  0.6981 -0.9624 -0.3499
 4252TIP3   OH234246   3.999   0.219   1.511 -0.0061  0.1108 -0.1741
 4252TIP3    H134247   4.016   0.222   1.417 -0.1299  0.9731 -0.1733
 4252TIP3    H234248   3.904   0.229   1.519  0.0330  0.2988  0.0561
 4253TIP3   OH234249   0.366   3.169   0.092  0.0892  0.7925  0.2377
 4253TIP3    H134250   0.350   3.129   0.007 -0.0883 -0.2065  0.7309
 4253TIP3    H234251   0.434   3.235   0.075  0.3032  0.3666 -0.6033
 4254TIP3   OH234252   1.974   2.046  15.481 -0.2627  0.6775 -0.1795
 4254TIP3    H134253   2.017   2.111  15.537  0.0941  0.6305 -0.3957
 4254TIP3    H234254   1.925   2.097  15.417  0.2467  0.7351 -0.5253
 4255TIP3   OH234255   6.531   3.410  11.999 -0.1112 -0.1295 -0.0469
 4255TIP3    H134256   6.444   3.409  11.961  0.9902 -0.3379 -2.7497
 4255TIP3    H234257   6.543   3.321  12.034 -0.6847 -0.3255 -0.3485
 4256TIP3   OH234258   0.112   3.655   2.445 -0.5427  0.3842 -0.4012
 4256TIP3    H134259   0.093   3.614   2.361  1.9970  1.1500 -1.4469
 4256TIP3    H234260   0.132   3.582   2.503 -0.5120 -0.0632 -0.9624
 4257TIP3   OH234261   3.148   3.167  11.547  0.1129 -0.5132 -0.2960
 4257TIP3    H134262   3.142   3.261  11.533  0.7758 -0.3230  0.6089
 4257TIP3    H234263   3.104   3.151  11.630  3.1798 -0.4228  1.4898
 4258TIP3   OH234264   1.721   5.587  17.153  0.5725  0.2906  0.5395
 4258TIP3    H134265   1.764   5.623  17.076 -0.7411 -0.8348 -0.8041
 4258TIP3    H234266   1.659   5.655  17.181 -1.4841 -0.5508 -1.6253
 4259TIP3   OH234267   3.971   5.711  11.937 -0.5702 -0.5802 -0.3335
 4259TIP3    H134268   3.964   5.616  11.950 -1.6591 -0.3995  0.5359
 4259TIP3    H234269   4.062   5.732  11.958 -0.2366 -1.4655 -0.8390
 4260TIP3   OH234270   2.604   3.118   6.319 -0.3948 -0.4198  0.2140
 4260TIP3    H134271   2.531   3.107   6.380 -0.6161 -0.2861 -0.0240
 4260TIP3    H234272   2.606   3.035   6.270 -0.4004 -0.4151  0.2057
 4261TIP3   OH234273   4.608   4.225  11.434 -0.0111  0.2200  0.2213
 4261TIP3    H134274   4.537   4.269  11.386 -0.0413 -0.3384 -0.2585
 4261TIP3    H234275   4.680   4.220  11.371  0.4610  0.7701  0.7035
 4262TIP3   OH234276   1.560   1.321  14.736 -0.2740  0.2641 -1.2676
 4262TIP3    H134277   1.522   1.395  14.689 -1.6772  0.3514 -0.0686
 4262TIP3    H234278   1.498   1.249  14.721 -0.3651  0.1007 -0.2017
 4263TIP3   OH234279   2.533   4.677  12.091 -0.1204  0.1545 -0.6226
 4263TIP3    H134280   2.583   4.610  12.046  1.7010  0.2359  1.1355
 4263TIP3    H234281   2.599   4.733  12.132 -1.6237  0.8849  0.9614
 4264TIP3   OH234282   0.712   3.090  12.003  0.2114  0.6564 -0.2626
 4264TIP3    H134283   0.754   3.021  11.952  1.1510  0.8907  0.1875
 4264TIP3    H234284   0.693   3.049  12.088  0.5737  0.8844 -0.0701
 4265TIP3   OH234285   1.816   0.321   4.803 -0.1767 -0.2551 -0.2927
 4265TIP3    H134286   1.764   0.243   4.824  0.3896 -0.8681 -1.0695
 4265TIP3    H234287   1.767   0.365   4.733 -0.0384 -0.4177 -0.4931
 4266TIP3   OH234288   6.653   2.928   1.589  0.4236 -0.0135  0.2454
 4266TIP3    H134289   6.568   2.889   1.609 -0.3319  1.6087  0.4150
 4266TIP3    H234290   6.631   3.011   1.546  1.9444 -0.2474 -1.0763
 4267TIP3   OH234291   2.813   2.407  15.421 -0.2886  0.9438  0.3231
 4267TIP3    H134292   2.727   2.372  15.444 -0.6548  1.2062 -0.6357
 4267TIP3    H234293   2.797   2.468  15.350  0.7622  0.5612 -0.2774
 4268TIP3   OH234294   5.951   0.950  12.695  0.1768 -0.0766  0.1284
 4268TIP3    H134295   5.901   1.019  12.738 -0.8027 -0.0448 -1.0031
 4268TIP3    H234296   5.981   0.990  12.613  0.9279 -0.5169  0.1814
 4269TIP3   OH234297   1.625   2.760   5.133  0.6783 -0.0725 -0.3405
 4269TIP3    H134298   1.703   2.816   5.134  0.6099  0.0932 -1.6476
 4269TIP3    H234299   1.572   2.795   5.061 -1.4968  0.9510  1.6149
 4270TIP3   OH234300   5.035   3.233  15.516  0.0847 -0.0339  0.2518
 4270TIP3    H134301   4.965   3.193  15.463  0.8070 -2.4732  1.0116
 4270TIP3    H234302   4.996   3.243  15.603  0.2060  0.0744  0.2931
 4271TIP3   OH234303   2.627   1.075  14.156  0.4498  0.2558 -0.2278
 4271TIP3    H134304   2.568   1.000  14.162 -1.7316  1.8341 -0.6095
 4271TIP3    H234305   2.615   1.123  14.238  0.8672  0.8399 -0.4970
 4272TIP3   OH234306   0.306   0.101  15.772 -0.1341 -0.1830 -0.1489
 4272TIP3    H134307   0.309   0.059  15.858  0.0363  0.9658  0.4346
 4272TIP3    H234308   0.395   0.091  15.737 -0.4366 -1.4314 -0.5965
 4273TIP3   OH234309   2.706   1.173  15.550 -0.4697 -0.1545 -0.2304
 4273TIP3    H134310   2.738   1.101  15.605  0.4074 -1.0208 -1.7979
 4273TIP3    H234311   2.646   1.222  15.606  2.2169  0.5069  2.3442
 4274TIP3   OH234312   5.178   6.071  10.305 -0.0910 -0.0727 -0.2672
 4274TIP3    H134313   5.122   6.012  10.254  1.2176 -0.7750 -0.9847
 4274TIP3    H234314   5.223   6.013  10.367  1.4717  0.0651 -1.2105
 4275TIP3   OH234315   2.135   6.013   0.068  0.1693  0.0371 -0.5353
 4275TIP3    H134316   2.222   5.997   0.104  0.0282  1.4643  0.5548
 4275TIP3    H234317   2.083   5.938   0.096  0.6583 -0.0460  0.1734
 4276TIP3   OH234318   6.540   4.797  12.345 -0.8140  0.3123  0.1742
 4276TIP3    H134319   6.515   4.803  12.438 -1.7444  1.5976 -0.1361
 4276TIP3    H234320   6.635   4.800  12.346 -0.7173 -1.4550  1.1839
 4277TIP3   OH234321   3.320   2.017   0.396 -1.0126 -0.1636 -0.2185
 4277TIP3    H134322   3.342   1.932   0.360  1.5969 -0.3315  1.4628
 4277TIP3    H234323   3.402   2.066   0.395 -1.1958  0.5414  3.3065
 4278TIP3   OH234324   5.886   6.337   2.110 -0.2647  0.3738  0.2411
 4278TIP3    H134325   5.796   6.306   2.124 -0.1420 -0.5798 -0.8996
 4278TIP3    H234326   5.893   6.347   2.016  0.3948  1.8789  0.4249
 4279TIP3   OH234327   1.672   6.508   5.604  0.0628 -0.2339 -0.2318
 4279TIP3    H134328   1.755   6.519   5.558 -0.2314 -1.2432 -1.0546
 4279TIP3    H234329   1.645   6.418   5.584  0.1544 -0.9235  2.3269
 4280TIP3   OH234330   2.343   5.849  12.058 -0.3663 -0.2396 -0.3605
 4280TIP3    H134331   2.351   5.940  12.029  1.1481 -0.4685 -0.7005
 4280TIP3    H234332   2.250   5.828  12.046 -0.5227  0.9202 -1.2862
 4281TIP3   OH234333   1.798   4.861  15.518  0.3154 -0.2342  0.0535
 4281TIP3    H134334   1.845   4.892  15.596 -0.8528 -0.7091  0.9743
 4281TIP3    H234335   1.745   4.788  15.549  1.2888 -1.7128 -1.6150
 4282TIP3   OH234336   1.123   5.236   0.495  0.3734 -0.4100 -0.1000
 4282TIP3    H134337   1.213   5.204   0.496 -0.0214 -1.5780  0.4373
 4282TIP3    H234338   1.127   5.317   0.446  1.5909 -0.8349 -0.7518
 4283TIP3   OH234339   4.524   4.838  15.484 -0.0373  0.3241  0.5454
 4283TIP3    H134340   4.523   4.742  15.488 -1.5850  0.2021 -1.4995
 4283TIP3    H234341   4.569   4.864  15.565  0.3032 -2.0998  1.2277
 4284TIP3   OH234342   0.160   5.860  13.316  0.3594 -0.3744  0.6703
 4284TIP3    H134343   0.154   5.825  13.227 -1.1506 -1.6597  1.2135
 4284TIP3    H234344   0.220   5.801  13.361  2.3900  1.2129  0.1391
 4285TIP3   OH234345   2.599   3.461  13.458 -0.3224  0.1580 -0.0828
 4285TIP3    H134346   2.654   3.465  13.379 -0.6972  1.6161 -0.2899
 4285TIP3    H234347   2.542   3.537  13.451  0.7003  1.2238  2.3717
 4286TIP3   OH234348   4.503   2.653  14.780 -0.1536  0.8808  0.0023
 4286TIP3    H134349   4.413   2.671  14.756  0.0726 -0.2101 -1.9017
 4286TIP3    H234350   4.551   2.732  14.758 -0.7495  1.8986  2.0875
 4287TIP3   OH234351   3.601   4.304  12.675  0.2471 -0.1787  0.8009
 4287TIP3    H134352   3.531   4.328  12.735  0.4068 -2.3998  1.9832
 4287TIP3    H234353   3.672   4.365  12.695 -0.9598  1.4514  0.2801
 4288TIP3   OH234354   3.078   5.913  16.289  0.6283 -0.7480  0.5560
 4288TIP3    H134355   2.997   5.940  16.246  1.5602  0.0952 -0.7286
 4288TIP3    H234356   3.145   5.971  16.252  2.5005 -3.7946 -1.2094
 4289TIP3   OH234357   0.865   4.720   0.605 -0.3996 -0.8387  0.2793
 4289TIP3    H134358   0.806   4.793   0.587  1.1828  0.2058 -0.9247
 4289TIP3    H234359   0.811   4.642   0.593 -1.9761  0.0954  1.0234
 4290TIP3   OH234360   1.976   5.041  11.039 -1.0508 -0.3408  0.0828
 4290TIP3    H134361   1.995   5.097  10.964 -0.3782 -0.2651  0.3086
 4290TIP3    H234362   2.007   4.955  11.013  0.1194 -0.1036  0.6597
 4291TIP3   OH234363   2.190   1.246   5.440 -0.1593 -0.0651 -0.1085
 4291TIP3    H134364   2.146   1.205   5.366  0.2878 -3.9684  1.5095
 4291TIP3    H234365   2.119   1.269   5.501 -0.3285 -0.1793 -0.2618
 4292TIP3   OH234366   1.926   1.085   4.617 -0.2917 -0.2489  0.2195
 4292TIP3    H134367   1.975   1.027   4.675 -0.2892 -1.3778 -0.8594
 4292TIP3    H234368   1.976   1.085   4.535 -0.4068  1.1332  0.1299
 4293TIP3   OH234369   4.305   3.212  15.008 -0.3626 -0.3946 -1.1834
 4293TIP3    H134370   4.234   3.202  14.944 -0.7520 -1.4021 -0.6178
 4293TIP3    H234371   4.363   3.137  14.991  0.7884  0.6044 -1.8774
 4294TIP3   OH234372   2.105   3.177  14.855  0.3332  0.4421  0.3409
 4294TIP3    H134373   2.196   3.196  14.832 -0.4849  2.2342 -1.8226
 4294TIP3    H234374   2.062   3.163  14.770 -2.0814  3.2150  0.9299
 4295TIP3   OH234375   0.358   0.549  16.417  0.2441 -0.2652 -0.2686
 4295TIP3    H134376   0.346   0.505  16.501 -0.0419 -1.3672 -0.8601
 4295TIP3    H234377   0.451   0.539  16.398  0.5902  1.1967  0.5442
 4296TIP3   OH234378   2.245   0.241  13.858 -0.5625 -0.0291  0.0341
 4296TIP3    H134379   2.305   0.315  13.853 -3.2790  2.6758  3.1581
 4296TIP3    H234380   2.175   0.261  13.796 -1.1835 -0.0835  0.7035
 4297TIP3   OH234381   2.668   4.507  11.926 -0.6157 -0.0460 -0.6638
 4297TIP3    H134382   2.753   4.549  11.912  0.7219 -0.4473  4.3084
 4297TIP3    H234383   2.681   4.417  11.897  0.3138  0.1650 -0.9412
 4298TIP3   OH234384   6.795   3.947  13.615 -0.4360 -1.0437 -0.1516
 4298TIP3    H134385   6.726   3.917  13.557  0.6992 -1.6991 -1.2029
 4298TIP3    H234386   6.869   3.888  13.599  0.7250  0.2412  0.1909
 4299TIP3   OH234387   5.618   1.298   1.005  0.5946 -0.5641  0.0314
 4299TIP3    H134388   5.651   1.230   1.063 -0.9398 -2.6426 -1.3827
 4299TIP3    H234389   5.546   1.338   1.053  0.9929 -0.4772  0.5605
 4300TIP3   OH234390   2.049   0.653   3.270  0.2978 -0.0328 -0.1697
 4300TIP3    H134391   2.073   0.656   3.363  2.1759 -2.2293 -0.5074
 4300TIP3    H234392   1.966   0.605   3.268  0.0916  0.2865  0.3741
 4301TIP3   OH234393   3.878   6.439  11.106  0.0146  0.3965  0.2284
 4301TIP3    H134394   3.809   6.448  11.172 -0.0797  0.4787  0.1186
 4301TIP3    H234395   3.831   6.423  11.024  0.1549 -0.8210  0.3556
 4302TIP3   OH234396   1.790   1.951  16.001 -0.3267 -0.3084 -0.4895
 4302TIP3    H134397   1.869   1.911  16.038 -0.0610  0.1191 -0.5871
 4302TIP3    H234398   1.724   1.881  16.005  0.0937 -0.7177 -0.5397
 4303TIP3   OH234399   0.468   2.929  14.436 -0.1908 -0.0040 -0.0098
 4303TIP3    H134400   0.544   2.970  14.394 -0.5656  0.4613 -0.2403
 4303TIP3    H234401   0.490   2.929  14.530  1.0957 -1.9769 -0.2565
 4304TIP3   OH234402   2.165   0.186   1.797 -0.2641  0.3191 -0.0283
 4304TIP3    H134403   2.091   0.204   1.855 -1.6355 -1.1929 -1.2045
 4304TIP3    H234404   2.176   0.091   1.801  1.0753  0.4220 -0.5452
 4305TIP3   OH234405   1.225   5.123   1.865  0.1182 -0.4329 -0.6736
 4305TIP3    H134406   1.274   5.047   1.896 -0.8422 -0.8458 -0.0962
 4305TIP3    H234407   1.291   5.187   1.840  0.9378 -1.2618 -0.6508
 4306TIP3   OH234408   1.497   0.920  14.052  0.2193  0.3782 -0.0139
 4306TIP3    H134409   1.460   0.832  14.047 -0.9715  0.8883 -0.5373
 4306TIP3    H234410   1.572   0.911  14.110  0.0525 -0.9590  0.0283
 4307TIP3   OH234411   1.242   0.093  12.635 -0.2072  0.5480 -0.2370
 4307TIP3    H134412   1.232   0.187  12.652 -2.1059  0.3900 -0.2859
 4307TIP3    H234413   1.331   0.084  12.602 -0.4744  2.5730 -1.6997
 4308TIP3   OH234414   0.912   0.090  16.073  0.3026 -0.1151 -0.3778
 4308TIP3    H134415   0.894   0.000  16.045  0.9995 -0.4391  0.1959
 4308TIP3    H234416   1.005   0.091  16.094 -0.0796  0.2487  1.4306
 4309TIP3   OH234417   3.325   0.267  13.705  0.0862  0.2400 -0.2579
 4309TIP3    H134418   3.333   0.231  13.616  0.0064  0.2939 -0.2880
 4309TIP3    H234419   3.232   0.258  13.725 -0.0117  0.8098 -0.4317
 4310TIP3   OH234420   1.160   2.217   4.075  0.3986  0.4720 -0.2322
 4310TIP3    H134421   1.106   2.252   4.005  0.9656  0.5961 -0.6119
 4310TIP3    H234422   1.110   2.235   4.155 -1.9101 -2.6740 -0.7736
 4311TIP3   OH234423   0.193   3.552  15.512  0.8896 -0.0817 -0.1349
 4311TIP3    H134424   0.143   3.610  15.568 -0.4339 -0.2586 -1.0953
 4311TIP3    H234425   0.139   3.474  15.503  0.8091  0.1515 -2.0643
 4312TIP3   OH234426   4.017   4.274   5.482  0.4374 -0.0875 -0.2707
 4312TIP3    H134427   4.015   4.362   5.520  1.8449  0.2480 -0.9230
 4312TIP3    H234428   3.993   4.287   5.390 -0.5020 -0.5663 -0.1134
 4313TIP3   OH234429   5.957   2.130  13.358 -0.0798  0.3619 -0.3270
 4313TIP3    H134430   6.020   2.146  13.429 -0.3995  0.5462 -0.0823
 4313TIP3    H234431   5.883   2.188  13.378 -0.3451  0.1181 -0.5923
 4314TIP3   OH234432   4.461   5.746  16.101  0.2673  0.0358 -0.4700
 4314TIP3    H134433   4.483   5.780  16.014  0.7681  0.4027 -0.2031
 4314TIP3    H234434   4.442   5.823  16.154 -0.0626 -0.1874 -0.2555
 4315TIP3   OH234435   5.423   3.690   4.228  0.4206 -0.2399 -0.5587
 4315TIP3    H134436   5.365   3.755   4.189  0.8937  0.1684 -0.5854
 4315TIP3    H234437   5.502   3.739   4.252  0.7839 -0.8036 -0.5857
 4316TIP3   OH234438   3.834   0.907   4.311  0.1998  0.0532 -0.2597
 4316TIP3    H134439   3.923   0.940   4.302  0.2112 -0.3729 -1.8754
 4316TIP3    H234440   3.779   0.986   4.310  0.2775  0.1791 -3.4316
 4317TIP3   OH234441   6.462   0.519  12.247 -0.0945  0.3378  0.1187
 4317TIP3    H134442   6.371   0.535  12.273  0.2300  0.8888  0.9458
 4317TIP3    H234443   6.479   0.585  12.179 -0.4425 -0.0513 -0.3523
 4318TIP3   OH234444   4.609   0.480   3.578 -0.1340  0.6579  0.2139
 4318TIP3    H134445   4.601   0.507   3.669  0.1847  0.0585  0.4289
 4318TIP3    H234446   4.625   0.386   3.583 -2.9347  0.0708 -0.5795
 4319TIP3   OH234447   2.599   0.694  14.918 -0.6308 -0.3056 -0.1429
 4319TIP3    H134448   2.590   0.762  14.985 -0.7593 -1.0212  0.5874
 4319TIP3    H234449   2.592   0.612  14.966  0.6375 -0.8601 -0.8499
 4320TIP3   OH234450   6.456   3.648   1.394  0.7574  0.3187  0.6099
 4320TIP3    H134451   6.494   3.607   1.316  0.4192  0.0460  0.5858
 4320TIP3    H234452   6.446   3.740   1.371  2.1768  0.5634  0.9102
 4321TIP3   OH234453   1.514   3.573   3.570  0.0575  0.2242 -0.0440
 4321TIP3    H134454   1.557   3.502   3.523  2.5288  1.3535  0.3756
 4321TIP3    H234455   1.437   3.532   3.610  0.1825 -1.6772 -1.5895
 4322TIP3   OH234456   1.112   2.785  14.463 -0.2059 -0.0516 -0.0237
 4322TIP3    H134457   1.075   2.704  14.429 -1.6857  1.2790 -1.8162
 4322TIP3    H234458   1.154   2.760  14.546 -2.9889 -2.1645  0.9041
 4323TIP3   OH234459   1.272   5.842   1.039 -0.2023 -0.0461 -0.4272
 4323TIP3    H134460   1.298   5.931   1.016 -0.2279 -0.4250 -1.9999
 4323TIP3    H234461   1.339   5.812   1.100 -0.2665  1.0805  0.2249
 4324TIP3   OH234462   1.726   4.839  16.661  0.2780 -0.0416 -0.1525
 4324TIP3    H134463   1.662   4.793  16.608  0.9924 -0.8124 -0.3728
 4324TIP3    H234464   1.754   4.775  16.726 -0.8045  0.9804  1.3839
 4325TIP3   OH234465   2.144   1.673   0.675  0.5653  0.1945 -0.0127
 4325TIP3    H134466   2.067   1.651   0.728  1.4180 -0.6189  0.9313
 4325TIP3    H234467   2.218   1.646   0.729  1.5856  2.3789 -0.2250
 4326TIP3   OH234468   2.663   5.028   1.524  0.2759 -0.5884  0.0470
 4326TIP3    H134469   2.632   5.019   1.614  1.1100  0.5114  0.4656
 4326TIP3    H234470   2.656   5.122   1.506  1.9184 -0.5111 -0.3461
 4327TIP3   OH234471   2.553   2.930   5.826  0.4421  0.5800 -0.0522
 4327TIP3    H134472   2.523   2.857   5.880 -0.3360  0.2409 -0.9160
 4327TIP3    H234473   2.482   2.994   5.831 -0.8889 -0.5346 -2.7041
 4328TIP3   OH234474   4.905   0.491  14.437  0.4331  0.4212  0.0894
 4328TIP3    H134475   4.963   0.552  14.391 -1.2539  1.4904 -0.6993
 4328TIP3    H234476   4.870   0.542  14.510 -1.0241  0.4476 -0.6022
 4329TIP3   OH234477   0.828   3.255  16.680  0.3311  0.1028 -0.9341
 4329TIP3    H134478   0.813   3.160  16.675  1.2527 -0.0788 -0.5823
 4329TIP3    H234479   0.909   3.269  16.630  0.6293  0.5850 -0.3352
 4330TIP3   OH234480   1.242   3.624   6.087 -0.0045  0.4922 -0.0486
 4330TIP3    H134481   1.159   3.649   6.128 -0.4930  1.2430 -1.4158
 4330TIP3    H234482   1.267   3.701   6.036  1.0573 -0.0658 -0.4015
 4331TIP3   OH234483   0.688   0.316  14.598  0.3763  0.1322 -0.0852
 4331TIP3    H134484   0.670   0.402  14.558 -0.4823 -0.0809 -0.1626
 4331TIP3    H234485   0.780   0.300  14.577  0.7947  1.4153  0.6399
 4332TIP3   OH234486   3.827   6.427   2.646 -0.2252 -0.0779  0.0774
 4332TIP3    H134487   3.762   6.470   2.591 -0.3709  0.1096  0.3979
 4332TIP3    H234488   3.795   6.337   2.654 -0.2842 -0.0655 -0.0183
 4333TIP3   OH234489   3.225   6.063  15.394 -1.0240 -0.6097  0.0126
 4333TIP3    H134490   3.261   6.022  15.473 -1.3761 -1.0369 -0.0413
 4333TIP3    H234491   3.281   6.032  15.323 -0.2503  0.3682  0.1772
 4334TIP3   OH234492   2.769   1.945   0.429  0.0117  0.7531  0.1072
 4334TIP3    H134493   2.753   2.015   0.492 -0.6022  1.4026 -0.7445
 4334TIP3    H234494   2.685   1.901   0.419 -0.0646  1.0702 -0.7358
 4335TIP3   OH234495   1.979   2.270   1.272 -1.1267 -0.8265  0.0674
 4335TIP3    H134496   1.989   2.175   1.272 -1.6986 -0.9001 -0.4338
 4335TIP3    H234497   1.931   2.288   1.191  0.5279  0.0701 -0.7591
 4336TIP3   OH234498   2.018   0.184  14.078  0.9924 -0.2346  0.2436
 4336TIP3    H134499   2.067   0.179  13.995  0.8416 -1.0353  0.2027
 4336TIP3    H234500   1.953   0.253  14.063  1.5272  0.2284 -0.0014
 4337TIP3   OH234501   4.349   3.535  15.079 -0.2512  0.2358  0.7332
 4337TIP3    H134502   4.301   3.453  15.069  1.8566 -0.8624 -1.3359
 4337TIP3    H234503   4.292   3.601  15.038 -0.4156 -0.8533 -0.8556
 4338TIP3   OH234504   3.612   4.767  14.949  0.1073 -0.1274 -0.1090
 4338TIP3    H134505   3.652   4.726  14.872 -0.1997 -0.6324 -0.0090
 4338TIP3    H234506   3.518   4.763  14.933  0.0710  0.5535 -0.0934
 4339TIP3   OH234507   4.677   3.481   6.459 -0.2289 -0.0013 -0.5311
 4339TIP3    H134508   4.770   3.505   6.461 -0.2907  0.2714 -0.8142
 4339TIP3    H234509   4.677   3.388   6.438  0.0208 -0.3050  0.7571
 4340TIP3   OH234510   6.798   1.320  12.953 -0.4642  0.0988 -0.3590
 4340TIP3    H134511   6.762   1.405  12.930 -1.4892  0.5680  2.6187
 4340TIP3    H234512   6.892   1.328  12.932 -0.7605  1.4694 -1.3256
 4341TIP3   OH234513   1.461   4.794   6.597 -0.3485  0.5460  1.0189
 4341TIP3    H134514   1.517   4.869   6.617 -0.1859  0.2391  1.7475
 4341TIP3    H234515   1.503   4.721   6.642 -1.4174  0.3456  1.7148
 4342TIP3   OH234516   6.448   2.577   3.047 -0.0100  0.2469 -0.2142
 4342TIP3    H134517   6.506   2.635   3.095  1.0335 -1.2274  0.3611
 4342TIP3    H234518   6.428   2.506   3.108  0.0334 -0.8271 -1.4017
 4343TIP3   OH234519   0.557   3.805  15.235  0.1789  0.1768 -0.4771
 4343TIP3    H134520   0.575   3.775  15.146  1.2815 -0.4941 -0.0368
 4343TIP3    H234521   0.640   3.839  15.267  0.2540 -1.1799  0.9053
 4344TIP3   OH234522   2.386   2.078   2.937 -0.1042  0.1380  0.2946
 4344TIP3    H134523   2.375   2.019   2.863 -0.7746 -0.4045  0.8053
 4344TIP3    H234524   2.308   2.063   2.991  0.1063  0.9132  0.8342
 4345TIP3   OH234525   2.054   0.923   5.432 -0.2829 -0.0334 -0.2731
 4345TIP3    H134526   1.982   0.953   5.489  1.8388  0.6958  2.2237
 4345TIP3    H234527   2.073   0.999   5.377 -1.6321 -0.3791 -1.2872
 4346TIP3   OH234528   1.091   5.447   4.080 -0.3998 -0.0332  0.3330
 4346TIP3    H134529   1.013   5.482   4.122 -0.9112 -1.3491  0.4998
 4346TIP3    H234530   1.076   5.460   3.986 -1.9132 -2.3606  0.1726
 4347TIP3   OH234531   3.995   2.464  12.329  0.2787  0.3924  0.6204
 4347TIP3    H134532   4.015   2.552  12.359  0.7781  0.0519  1.3209
 4347TIP3    H234533   4.080   2.428  12.301  0.2842 -0.2711  1.4581
 4348TIP3   OH234534   6.743   6.826   4.463  0.1876  0.3857  0.1297
 4348TIP3    H134535   6.787   6.793   4.385 -0.6861  0.1268 -0.2644
 4348TIP3    H234536   6.789   6.907   4.484  0.8556  0.1134 -0.2654
 4349TIP3   OH234537   4.050   4.469  11.618 -0.2468 -0.6032 -0.3239
 4349TIP3    H134538   4.117   4.401  11.626 -0.3102 -0.8191 -1.4056
 4349TIP3    H234539   3.979   4.440  11.675 -0.2181 -1.3976 -0.6742
 4350TIP3   OH234540   1.376   1.598   2.433  0.2488  0.0805  0.4334
 4350TIP3    H134541   1.435   1.628   2.502 -0.5189 -1.4156  1.8158
 4350TIP3    H234542   1.292   1.639   2.454 -0.5032 -1.9172  1.6474
 4351TIP3   OH234543   5.719   4.514   3.295 -0.5291  0.6211 -0.4479
 4351TIP3    H134544   5.665   4.516   3.374 -1.5730  0.2689 -1.1291
 4351TIP3    H234545   5.664   4.552   3.227  0.0842  0.2537 -1.1645
 4352TIP3   OH234546   0.143   4.663  15.506  0.1396 -0.2594  0.3101
 4352TIP3    H134547   0.199   4.721  15.454  0.5786  1.0808  2.1758
 4352TIP3    H234548   0.157   4.576  15.468  1.9159  0.3608 -0.5675
 4353TIP3   OH234549   3.694   4.148  11.409  0.2741  0.5141 -0.4608
 4353TIP3    H134550   3.714   4.229  11.456  1.6220  0.2980 -0.6356
 4353TIP3    H234551   3.690   4.174  11.317  1.8006  0.2181 -0.6355
 4354TIP3   OH234552   6.276   3.313   2.030  0.2101 -0.3071 -0.7194
 4354TIP3    H134553   6.336   3.266   1.972  2.0205 -0.1025  0.8891
 4354TIP3    H234554   6.332   3.350   2.098 -1.8874 -1.3444  1.7330
 4355TIP3   OH234555   1.647   3.082   6.659  0.3632  0.4259  0.3218
 4355TIP3    H134556   1.553   3.071   6.675  0.5348  0.4196  1.3619
 4355TIP3    H234557   1.666   3.172   6.684  0.6614  0.3950  0.2171
 4356TIP3   OH234558   1.531   2.781   0.693  0.2356 -0.2704  0.0827
 4356TIP3    H134559   1.487   2.713   0.643  0.4986 -2.2516  2.3243
 4356TIP3    H234560   1.554   2.848   0.629 -1.2820 -1.6395 -2.0120
 4357TIP3   OH234561   1.677   0.799   0.146  0.1357 -0.2184 -0.1588
 4357TIP3    H134562   1.585   0.818   0.167  0.3170  1.0310 -0.4212
 4357TIP3    H234563   1.684   0.704   0.154 -0.6294 -0.1445  2.0567
 4358TIP3   OH234564   5.040   3.583   0.749  0.3461 -0.0346  0.0262
 4358TIP3    H134565   5.033   3.491   0.724 -0.0562 -0.3793  1.2900
 4358TIP3    H234566   4.952   3.606   0.781  0.4775  0.7430 -0.1479
 4359TIP3   OH234567   0.155   4.309   3.672  0.2724 -0.9255  0.0459
 4359TIP3    H134568   0.200   4.266   3.746  2.0794 -0.1911 -0.5591
 4359TIP3    H234569   0.203   4.391   3.660 -1.2699 -0.0920 -0.6945
 4360TIP3   OH234570   5.165   0.343   0.471  0.1214  0.7330  0.2302
 4360TIP3    H134571   5.107   0.378   0.539 -2.3089  1.5761 -2.1279
 4360TIP3    H234572   5.163   0.249   0.485 -0.6618  0.8555  1.0699
 4361TIP3   OH234573   3.861   6.367  13.462  0.2469 -0.0665 -0.0848
 4361TIP3    H134574   3.948   6.368  13.502 -0.1273 -1.3413  0.8556
 4361TIP3    H234575   3.850   6.454  13.426  1.1950  0.7042  1.3711
 4362TIP3   OH234576   1.941   6.614   1.514  0.4004 -0.1172 -0.0261
 4362TIP3    H134577   1.941   6.620   1.610  1.2694  1.8765 -0.1054
 4362TIP3    H234578   2.024   6.571   1.493 -0.0522 -1.0871  0.1107
 4363TIP3   OH234579   4.895   5.581  11.961  0.0167 -0.4388 -0.1489
 4363TIP3    H134580   4.881   5.671  11.933  1.1381 -0.0590  0.4524
 4363TIP3    H234581   4.815   5.535  11.934 -1.6273  1.2147  1.6043
 4364TIP3   OH234582   1.712   4.476  15.336  0.2990 -0.1924  0.8654
 4364TIP3    H134583   1.643   4.463  15.272 -0.1427 -0.0243  1.2981
 4364TIP3    H234584   1.759   4.392  15.339  1.9546  0.5442 -1.5118
 4365TIP3   OH234585   6.519   1.460   5.035 -0.0773  0.1449  0.8319
 4365TIP3    H134586   6.478   1.388   5.083 -0.4759 -1.5313 -1.7763
 4365TIP3    H234587   6.612   1.454   5.058  0.0225 -1.7396  0.1511
 4366TIP3   OH234588   3.415   0.044   6.006  0.2844  0.3446 -0.3596
 4366TIP3    H134589   3.332   0.046   6.054 -0.4728 -0.9706 -1.5520
 4366TIP3    H234590   3.399   0.095   5.927  0.3707 -0.4543 -0.9134
 4367TIP3   OH234591   0.733   4.582  11.891  0.1615 -0.1077  0.7068
 4367TIP3    H134592   0.763   4.673  11.894  0.5181 -0.0188 -2.1012
 4367TIP3    H234593   0.652   4.585  11.840  1.0364 -1.4664 -0.8758
 4368TIP3   OH234594   3.464   4.904   1.497  0.1637 -0.7027 -0.2133
 4368TIP3    H134595   3.411   4.962   1.443  0.1183  0.1168  0.6919
 4368TIP3    H234596   3.499   4.840   1.435 -2.8637 -2.0795 -0.7210
 4369TIP3   OH234597   2.112   2.713   3.565 -0.1600 -0.0344  0.4603
 4369TIP3    H134598   2.184   2.750   3.615 -1.2452 -0.3015  2.2955
 4369TIP3    H234599   2.148   2.702   3.476  1.3752  1.7449  0.7968
 4370TIP3   OH234600   4.154   4.626   4.192  0.1854  0.2246  0.1942
 4370TIP3    H134601   4.068   4.658   4.220  0.5055  0.6550  0.7185
 4370TIP3    H234602   4.157   4.535   4.223 -0.1928  0.1131 -0.0867
 4371TIP3   OH234603   2.356   2.354   0.613  0.0753  0.3308  0.0904
 4371TIP3    H134604   2.327   2.354   0.704  0.0332 -0.6251  0.0846
 4371TIP3    H234605   2.296   2.414   0.569  0.7726  1.6673  0.8893
 4372TIP3   OH234606   6.622   6.206  16.635  0.0619  0.3304 -0.1326
 4372TIP3    H134607   6.662   6.226  16.720  1.3505 -1.5817 -0.2331
 4372TIP3    H234608   6.679   6.250  16.572 -0.5171  1.1965 -0.0726
 4373TIP3   OH234609   3.329   0.616   5.267 -0.7560  0.0225  0.2524
 4373TIP3    H134610   3.369   0.619   5.354 -1.1061  0.8465  0.4002
 4373TIP3    H234611   3.245   0.573   5.280 -0.8604  0.2531  0.3494
 4374TIP3   OH234612   3.288   2.885   5.295 -0.2679 -0.2597 -0.0491
 4374TIP3    H134613   3.377   2.850   5.291  0.3683  1.3277 -1.0079
 4374TIP3    H234614   3.267   2.906   5.204 -1.2599  0.2629  0.2858
 4375TIP3   OH234615   0.834   6.488   2.138 -0.1845  0.3284 -0.5583
 4375TIP3    H134616   0.815   6.420   2.073 -1.7125  0.3321 -0.1526
 4375TIP3    H234617   0.812   6.570   2.093 -0.2615  0.4012 -0.3905
 4376TIP3   OH234618   6.481   1.136   5.435  0.2308 -0.1346  0.0288
 4376TIP3    H134619   6.499   1.216   5.486 -1.6952 -0.1313  0.7787
 4376TIP3    H234620   6.566   1.112   5.399  1.2599  1.1161  1.4573
 4377TIP3   OH234621   6.705   5.582  12.633  0.4299  0.0579 -0.1921
 4377TIP3    H134622   6.700   5.674  12.661 -1.4332 -0.3305  0.9492
 4377TIP3    H234623   6.665   5.582  12.546 -0.9763  0.1293  0.4325
 4378TIP3   OH234624   0.643   0.929  12.363  0.3564  0.0595 -0.0802
 4378TIP3    H134625   0.623   1.002  12.421 -0.8865 -0.2330 -0.1104
 4378TIP3    H234626   0.627   0.962  12.275 -0.5284 -0.3189 -0.0774
 4379TIP3   OH234627   4.209   2.279   5.566  0.5730  0.2965 -0.1173
 4379TIP3    H134628   4.255   2.265   5.484 -0.8340  1.6968 -1.1969
 4379TIP3    H234629   4.241   2.365   5.597  2.9261 -1.2262  2.1432
 4380TIP3   OH234630   2.391   0.085   3.670 -0.2189  1.3333 -0.3726
 4380TIP3    H134631   2.407   0.179   3.678 -1.4088  1.4446  1.1584
 4380TIP3    H234632   2.400   0.052   3.760  0.7666 -0.1318 -0.9692
 4381TIP3   OH234633   2.843   0.388  16.925 -0.5631  0.8364 -0.1674
 4381TIP3    H134634   2.750   0.388  16.948  0.0225 -1.5035  2.7951
 4381TIP3    H234635   2.854   0.311  16.869 -0.3732  1.0393 -0.4139
 4382TIP3   OH234636   1.078   5.957   2.119  0.0836  0.2569  0.0236
 4382TIP3    H134637   1.100   5.942   2.027  1.7909 -0.6718  0.5381
 4382TIP3    H234638   1.099   6.050   2.133  0.1909  0.3060 -0.4345
 4383TIP3   OH234639   4.709   1.070  14.241 -0.2426  0.3536  0.4611
 4383TIP3    H134640   4.731   1.055  14.149 -0.5748 -0.8772  0.5691
 4383TIP3    H234641   4.630   1.123  14.238  0.5667  1.5882  0.0609
 4384TIP3   OH234642   6.334   6.361  10.558 -0.5281 -0.1872 -0.1709
 4384TIP3    H134643   6.429   6.352  10.560 -0.3994  0.9565 -0.4211
 4384TIP3    H234644   6.318   6.455  10.566 -1.6637 -0.4046  0.5291
 4385TIP3   OH234645   4.165   4.059   5.395  0.2877  0.0968  0.1913
 4385TIP3    H134646   4.113   4.124   5.442 -2.0969 -1.5341 -0.0047
 4385TIP3    H234647   4.196   4.105   5.317 -0.5046  1.2751  0.5430
 4386TIP3   OH234648   0.159   2.078  16.508 -0.0332 -0.6254 -0.0478
 4386TIP3    H134649   0.230   2.019  16.533 -0.1845 -0.6403  0.3583
 4386TIP3    H234650   0.136   2.124  16.589  0.6907  0.6613 -0.5346
 4387TIP3   OH234651   6.611   3.643  16.943 -0.0615  0.2183  0.0980
 4387TIP3    H134652   6.654   3.612  17.022  0.9874  0.8121 -0.2272
 4387TIP3    H234653   6.641   3.584  16.874 -0.6517 -0.0458  0.0548
 4388TIP3   OH234654   6.237   0.651   0.442 -0.0379  0.2672 -0.0501
 4388TIP3    H134655   6.210   0.635   0.532 -0.6767 -0.6704 -0.3923
 4388TIP3    H234656   6.156   0.673   0.396 -0.2204 -2.0780 -0.9796
 4389TIP3   OH234657   0.247   5.704   0.525  0.1292  0.3281 -0.7583
 4389TIP3    H134658   0.195   5.632   0.562 -0.4672  0.3462 -1.5542
 4389TIP3    H234659   0.337   5.682   0.550 -0.2112  0.1645  0.4108
 4390TIP3   OH234660   3.424   3.934   6.012  0.2795 -0.5665 -0.1394
 4390TIP3    H134661   3.487   3.922   6.083  0.1053 -1.4135 -0.1183
 4390TIP3    H234662   3.365   3.859   6.019 -1.0507  0.4666  0.1499
 4391TIP3   OH234663   3.095   2.311   0.409  0.6517 -0.1915 -0.3171
 4391TIP3    H134664   3.087   2.270   0.323 -1.8178  1.1660 -0.8492
 4391TIP3    H234665   3.116   2.239   0.468  1.0896 -1.3837 -1.8636
 4392TIP3   OH234666   2.493   4.548  11.139 -0.3483 -0.0645  0.3071
 4392TIP3    H134667   2.571   4.502  11.108  0.6691 -0.1748  2.7815
 4392TIP3    H234668   2.526   4.633  11.168 -1.2954  0.2098  0.6113
 4393TIP3   OH234669   5.690   4.932   6.002 -0.6515 -0.1691  0.6189
 4393TIP3    H134670   5.641   5.013   5.992 -0.4868  0.3208  3.1162
 4393TIP3    H234671   5.633   4.876   6.055  0.5985 -0.3874  1.7820
 4394TIP3   OH234672   6.474   0.519   0.714  0.4708  0.2101  0.2518
 4394TIP3    H134673   6.435   0.515   0.801  2.3832  0.2420  1.1603
 4394TIP3    H234674   6.493   0.612   0.701  2.0097 -0.0162  0.6873
 4395TIP3   OH234675   5.281   0.218   1.672  0.1118 -0.3673 -0.0070
 4395TIP3    H134676   5.207   0.260   1.716  0.6582 -0.8647  1.4204
 4395TIP3    H234677   5.244   0.136   1.637 -0.2583 -0.0996 -0.2572
 4396TIP3   OH234678   2.132   3.728   6.154 -0.0929 -0.3753 -0.4202
 4396TIP3    H134679   2.131   3.761   6.244 -2.3544  0.2576 -0.6093
 4396TIP3    H234680   2.085   3.645   6.158  0.0572 -0.4916 -0.9716
 4397TIP3   OH234681   4.383   2.884   3.328  0.1418  0.6093  0.4256
 4397TIP3    H134682   4.447   2.947   3.297  0.6293  1.4435  2.9205
 4397TIP3    H234683   4.329   2.932   3.390 -1.5119 -0.6501  0.0497
 4398TIP3   OH234684   5.215   3.707  14.456 -0.3073 -0.2073 -0.2956
 4398TIP3    H134685   5.162   3.630  14.474  0.3903 -1.1519 -2.0119
 4398TIP3    H234686   5.306   3.675  14.461 -0.0268  0.1910 -2.1226
 4399TIP3   OH234687   2.470   2.662   1.594 -0.5417  0.3289  0.4371
 4399TIP3    H134688   2.512   2.625   1.671 -2.7229 -1.5545  0.7878
 4399TIP3    H234689   2.380   2.632   1.597 -1.3065  2.0712 -1.6751
 4400TIP3   OH234690   6.017   6.146  15.881 -0.1154 -0.5811  0.3058
 4400TIP3    H134691   6.049   6.140  15.971  0.1340 -1.0749  0.1903
 4400TIP3    H234692   5.968   6.228  15.877  0.2560 -0.3388  0.7705
 4401TIP3   OH234693   3.195   0.571  10.420  0.5729  0.1393 -0.2104
 4401TIP3    H134694   3.229   0.641  10.477 -1.1418  0.8977 -0.0579
 4401TIP3    H234695   3.107   0.600  10.397  1.0318 -0.3467 -2.9371
 4402TIP3   OH234696   1.818   2.248  15.356 -0.1230  0.5860  0.1957
 4402TIP3    H134697   1.869   2.327  15.373  1.8205  0.3005 -3.2218
 4402TIP3    H234698   1.755   2.274  15.289 -1.6874 -0.0670  1.3689
 4403TIP3   OH234699   5.926   6.263  14.567 -1.1441  0.4041 -0.7845
 4403TIP3    H134700   5.925   6.295  14.477 -0.5197 -0.7054 -1.2075
 4403TIP3    H234701   6.001   6.307  14.607 -0.2462 -0.5352 -1.3808
 4404TIP3   OH234702   4.984   3.822  13.853 -0.1450  0.1276 -0.5361
 4404TIP3    H134703   5.026   3.739  13.877 -0.5570 -0.1398 -0.7424
 4404TIP3    H234704   5.042   3.860  13.787 -1.2056 -1.1614 -2.2854
 4405TIP3   OH234705   6.447   3.488  14.605 -0.3281  0.2869 -0.3348
 4405TIP3    H134706   6.419   3.572  14.641 -1.0353 -0.6753  1.5577
 4405TIP3    H234707   6.492   3.509  14.524 -0.5620  2.4668  0.0546
 4406TIP3   OH234708   1.394   5.668   0.416  0.6156 -0.0950  0.0868
 4406TIP3    H134709   1.335   5.741   0.393  0.6809 -1.3878 -5.7120
 4406TIP3    H234710   1.482   5.702   0.400  0.8570 -0.6157  0.2842
 4407TIP3   OH234711   6.143   0.486   5.173  0.8059  0.4540 -0.1113
 4407TIP3    H134712   6.222   0.523   5.134  1.5390 -1.8072 -0.9400
 4407TIP3    H234713   6.175   0.417   5.231 -0.5227  0.2581  0.4240
 4408TIP3   OH234714   5.682   5.370  16.840  0.2182  0.1132  0.2028
 4408TIP3    H134715   5.756   5.400  16.788 -1.3813  0.1749 -2.2054
 4408TIP3    H234716   5.702   5.397  16.930  3.4319 -0.5858 -0.2076
 4409TIP3   OH234717   3.407   5.925   1.262 -0.2210 -0.0905 -0.1552
 4409TIP3    H134718   3.439   6.014   1.251  0.1218 -0.0714  0.9490
 4409TIP3    H234719   3.376   5.900   1.174  2.5386 -0.0234 -1.2407
 4410TIP3   OH234720   1.679   1.971  14.640 -0.0276 -0.7239  0.1574
 4410TIP3    H134721   1.727   2.046  14.605  0.4524 -1.3349 -0.5310
 4410TIP3    H234722   1.739   1.897  14.629 -0.0186 -1.0177  1.9486
 4411TIP3   OH234723   0.085   0.830  15.876 -0.1241  0.5830 -0.2582
 4411TIP3    H134724   0.147   0.894  15.910  0.5158 -0.0192 -0.2734
 4411TIP3    H234725   0.041   0.796  15.953 -0.3360  0.9050 -0.2341
 4412TIP3   OH234726   3.356   1.730  10.393  0.1138  0.4502 -0.3278
 4412TIP3    H134727   3.427   1.678  10.355 -0.6335  0.6137 -2.0388
 4412TIP3    H234728   3.364   1.815  10.351 -0.6843  0.6776 -0.0295
 4413TIP3   OH234729   3.409   3.736   5.477  0.3951 -0.9898 -0.2122
 4413TIP3    H134730   3.415   3.831   5.481  0.0131 -0.8755 -1.7307
 4413TIP3    H234731   3.436   3.706   5.564  0.7724  0.4835  0.1973
 4414TIP3   OH234732   0.305   0.444   3.403  0.0163 -0.3032  0.3056
 4414TIP3    H134733   0.306   0.437   3.307  0.4671 -0.8722  0.3496
 4414TIP3    H234734   0.397   0.440   3.428  0.1039  2.2024  0.6163
 4415TIP3   OH234735   6.234   1.379   2.951  0.9712 -0.0115  0.2787
 4415TIP3    H134736   6.271   1.400   3.036  1.0500  1.1364 -0.0136
 4415TIP3    H234737   6.292   1.313   2.914  0.9208 -0.5331  1.1101
 4416TIP3   OH234738   0.529   5.988  14.340 -0.3561 -0.1319  0.6737
 4416TIP3    H134739   0.458   5.957  14.284  0.9439 -0.3559 -0.9418
 4416TIP3    H234740   0.573   5.908  14.370 -0.8574 -0.0016  1.7770
 4417TIP3   OH234741   4.852   5.793  15.568  0.5166  0.0113 -0.3521
 4417TIP3    H134742   4.809   5.727  15.513 -0.2199  0.6776 -0.6019
 4417TIP3    H234743   4.828   5.876  15.527  1.5488  0.4288 -0.1239
 4418TIP3   OH234744   3.931   1.964   4.841 -0.0952  0.2415 -0.0027
 4418TIP3    H134745   4.005   1.904   4.851 -0.6809 -0.2806  1.4782
 4418TIP3    H234746   3.857   1.917   4.879 -0.7946  1.4994  0.2338
 4419TIP3   OH234747   0.884   5.386   0.421 -0.2874 -0.4148 -0.2720
 4419TIP3    H134748   0.880   5.476   0.390 -0.6884  0.2034  1.4559
 4419TIP3    H234749   0.808   5.343   0.380 -1.9642  0.8865  1.2919
 4420TIP3   OH234750   5.753   0.593   0.918 -0.5227 -0.2742  0.3516
 4420TIP3    H134751   5.763   0.651   0.993 -0.7333  0.5144 -0.2083
 4420TIP3    H234752   5.761   0.505   0.953 -1.7799  0.0363  1.4721
 4421TIP3   OH234753   0.939   6.269  13.379  0.2174  0.5676 -0.0237
 4421TIP3    H134754   0.929   6.299  13.289  1.4497  2.4696  0.4284
 4421TIP3    H234755   0.926   6.347  13.432  1.7188 -0.0388  1.3199
 4422TIP3   OH234756   0.134   3.215  16.378 -0.3692 -0.3264  0.4498
 4422TIP3    H134757   0.076   3.189  16.306  0.4966  2.6788 -1.5214
 4422TIP3    H234758   0.077   3.216  16.455 -2.3856  0.2294 -0.9683
 4423TIP3   OH234759   5.212   0.439   6.102  0.5228 -0.0922 -0.3821
 4423TIP3    H134760   5.178   0.374   6.164  0.3635 -0.7291 -1.1261
 4423TIP3    H234761   5.260   0.388   6.038  1.4290  0.6438 -0.3096
 4424TIP3   OH234762   0.502   0.114  11.972  0.9767 -0.2481 -0.0604
 4424TIP3    H134763   0.550   0.177  12.026 -0.3091 -0.0934  0.9704
 4424TIP3    H234764   0.568   0.076  11.914  2.1704  0.5271  0.7451
 4425TIP3   OH234765   5.019   5.365   4.892  0.3263  0.2474 -0.5534
 4425TIP3    H134766   5.052   5.397   4.977  0.2031  1.2238 -0.8588
 4425TIP3    H234767   5.091   5.314   4.856 -0.3113 -1.9193  1.0137
 4426TIP3   OH234768   0.567   6.689   2.986  0.4890 -0.6284  0.1711
 4426TIP3    H134769   0.539   6.772   2.948  0.3330 -0.5242  0.5070
 4426TIP3    H234770   0.488   6.635   2.983 -0.0902  0.0338  2.1405
 4427TIP3   OH234771   5.849   2.822  16.465 -0.0306 -0.1135 -0.1221
 4427TIP3    H134772   5.925   2.849  16.414  1.4695 -1.8017  1.0997
 4427TIP3    H234773   5.856   2.870  16.547  0.9832 -1.7909  0.8461
 4428TIP3   OH234774   2.983   4.442  14.718 -0.2627 -0.1883 -0.1265
 4428TIP3    H134775   2.966   4.531  14.748 -0.3074 -0.8187  1.8297
 4428TIP3    H234776   3.003   4.393  14.797 -1.6789 -2.2677 -0.9684
 4429TIP3   OH234777   2.986   2.897  16.399  0.1409 -0.4173  0.4090
 4429TIP3    H134778   2.980   2.956  16.474  0.8124 -0.7241  0.7142
 4429TIP3    H234779   2.900   2.902  16.357  1.1179  3.4091 -1.5674
 4430TIP3   OH234780   4.746   3.912   3.790 -0.2422 -0.1315  0.0535
 4430TIP3    H134781   4.826   3.900   3.740 -0.0443 -3.5109  0.9051
 4430TIP3    H234782   4.761   3.861   3.870 -3.2067 -0.9236  0.2203
 4431TIP3   OH234783   4.510   6.149   0.063 -0.1534 -0.0954  0.1983
 4431TIP3    H134784   4.581   6.162   0.126  1.5269  1.5084 -1.8707
 4431TIP3    H234785   4.474   6.236   0.048 -0.5772 -0.4442 -0.9515
 4432TIP3   OH234786   5.270   1.953   1.067 -0.4013  0.3616 -0.5425
 4432TIP3    H134787   5.210   2.012   1.021  0.5827  3.7060  2.0747
 4432TIP3    H234788   5.267   1.982   1.158  0.5311 -3.4784  0.8780
 4433TIP3   OH234789   5.280   1.298  14.873 -0.2785 -0.2839  0.7107
 4433TIP3    H134790   5.374   1.303  14.855 -0.4889  1.8099 -0.0732
 4433TIP3    H234791   5.251   1.224  14.820  1.1159 -1.9695  2.1467
 4434TIP3   OH234792   4.084   2.404  16.880  0.0999 -0.2906  0.6378
 4434TIP3    H134793   4.048   2.391  16.792  0.2046  0.7414  0.4293
 4434TIP3    H234794   4.175   2.430  16.866  0.1879 -0.3527  1.0619
 4435TIP3   OH234795   3.189   4.880   4.431 -0.1477 -0.0942 -0.1852
 4435TIP3    H134796   3.163   4.829   4.354  0.4378  0.4120 -0.7314
 4435TIP3    H234797   3.205   4.968   4.397  0.2136  0.1138  0.5058
 4436TIP3   OH234798   1.544   2.015   5.118 -0.1787  0.1897 -0.1478
 4436TIP3    H134799   1.471   2.071   5.091 -1.1856  0.1611  2.2803
 4436TIP3    H234800   1.519   1.983   5.205  1.9216 -1.2965 -0.0205
 4437TIP3   OH234801   3.526   0.591   0.517 -0.0028 -0.0247 -0.1860
 4437TIP3    H134802   3.549   0.648   0.591 -0.9375  0.6688 -0.3985
 4437TIP3    H234803   3.505   0.507   0.557  0.0735  0.1745  0.2832
 4438TIP3   OH234804   3.588   4.216   2.932  0.6380 -0.0935  1.0064
 4438TIP3    H134805   3.626   4.185   2.850  2.2659  1.8516  0.9467
 4438TIP3    H234806   3.508   4.164   2.943  0.6327 -0.7381 -1.5485
 4439TIP3   OH234807   6.498   4.158  15.500 -0.0448  0.4480 -0.3538
 4439TIP3    H134808   6.554   4.217  15.550  0.7652 -0.5909 -0.0113
 4439TIP3    H234809   6.541   4.153  15.414 -1.9872  3.0577 -1.6191
 4440TIP3   OH234810   6.714   3.526  12.990  0.0143  0.1891 -0.6037
 4440TIP3    H134811   6.746   3.588  12.924  0.5900  0.7667  0.1986
 4440TIP3    H234812   6.785   3.521  13.054  0.7504 -2.6462 -1.5094
 4441TIP3   OH234813   2.599   1.231   1.003 -0.6112  0.8818 -0.1797
 4441TIP3    H134814   2.640   1.229   0.916  1.8173  0.1053  0.9115
 4441TIP3    H234815   2.581   1.324   1.018  1.4455  1.3688 -0.4455
 4442TIP3   OH234816   0.877   6.023  12.140 -0.7054  0.3254  0.1784
 4442TIP3    H134817   0.823   5.950  12.110  1.7880 -2.0204  0.8443
 4442TIP3    H234818   0.961   6.009  12.096 -0.3362  3.3584 -0.2783
 4443TIP3   OH234819   4.668   1.633  15.172  0.2525  0.1199  0.6825
 4443TIP3    H134820   4.726   1.710  15.172  0.5459 -0.0984  1.2113
 4443TIP3    H234821   4.679   1.595  15.259  0.6874 -0.9604  0.1645
 4444TIP3   OH234822   6.114   5.069  10.967 -0.1230 -0.5225 -0.4869
 4444TIP3    H134823   6.164   5.106  10.895 -1.4859 -0.4490 -1.4421
 4444TIP3    H234824   6.023   5.094  10.949 -0.5201 -0.6234  1.1890
 4445TIP3   OH234825   3.406   3.805   3.161  0.0762  0.1695 -0.2233
 4445TIP3    H134826   3.390   3.803   3.066  0.0364  0.8025 -0.2302
 4445TIP3    H234827   3.497   3.835   3.169 -0.3400  1.3926 -0.0213
 4446TIP3   OH234828   4.053   1.687  12.252 -0.5804  0.0079  0.5775
 4446TIP3    H134829   3.985   1.754  12.251 -2.6381 -1.9051 -1.6841
 4446TIP3    H234830   4.124   1.723  12.199 -1.4416  0.5911 -0.1924
 4447TIP3   OH234831   6.694   5.248  15.384 -0.4424  0.2590  0.1271
 4447TIP3    H134832   6.615   5.195  15.370 -1.1128  1.0418  0.8480
 4447TIP3    H234833   6.762   5.185  15.408 -0.6458 -0.5103 -1.2169
 4448TIP3   OH234834   5.328   5.167  13.670  0.5309  0.1143 -0.3449
 4448TIP3    H134835   5.290   5.249  13.702 -1.0197 -0.4346 -0.6952
 4448TIP3    H234836   5.391   5.193  13.603 -0.1405  0.9995 -0.6374
 4449TIP3   OH234837   1.585   3.880   1.161  0.1000 -0.5878 -0.4904
 4449TIP3    H134838   1.650   3.905   1.094  0.6566  0.6646  0.4671
 4449TIP3    H234839   1.501   3.893   1.118  0.4326  0.7945 -0.7972
 4450TIP3   OH234840   4.562   3.707  14.501  0.6289 -0.6409  0.2320
 4450TIP3    H134841   4.588   3.679  14.589 -0.3943 -0.8341  0.4894
 4450TIP3    H234842   4.572   3.802  14.502  1.4392 -0.7169  0.2685
 4451TIP3   OH234843   6.644   1.773   2.181  0.0298 -0.3843  0.2565
 4451TIP3    H134844   6.677   1.724   2.105 -0.8582  0.8412 -0.9762
 4451TIP3    H234845   6.685   1.859   2.173 -0.5623 -0.0465  0.8294
 4452TIP3   OH234846   0.804   4.551  15.556  0.6445  0.5889  0.0608
 4452TIP3    H134847   0.837   4.641  15.549 -2.8370  1.9962 -0.4481
 4452TIP3    H234848   0.836   4.508  15.477  2.5907  1.2521  0.4387
 4453TIP3   OH234849   6.545   3.372  13.908 -0.2469  0.0484 -0.5266
 4453TIP3    H134850   6.626   3.323  13.921 -0.7781 -0.5940  0.4520
 4453TIP3    H234851   6.523   3.406  13.995 -2.8449 -2.7133  0.0477
 4454TIP3   OH234852   2.383   6.239  14.293  0.3556  0.0685 -0.6102
 4454TIP3    H134853   2.428   6.195  14.366  0.2667  0.4303 -0.3297
 4454TIP3    H234854   2.307   6.185  14.275 -0.6005  0.8859  0.7525
 4455TIP3   OH234855   4.782   2.714  16.692  0.0175 -0.2135 -0.1346
 4455TIP3    H134856   4.754   2.631  16.654  0.9334  0.1334 -1.6529
 4455TIP3    H234857   4.701   2.756  16.722 -0.4992 -1.4078  0.1915
 4456TIP3   OH234858   4.618   1.977   4.135 -0.0681  0.3041  0.1187
 4456TIP3    H134859   4.530   2.013   4.146 -0.1344  0.4286 -0.7672
 4456TIP3    H234860   4.669   2.016   4.206 -0.8736 -0.2680  1.0441
 4457TIP3   OH234861   5.916   1.503   3.488  0.2199  0.2083  0.2432
 4457TIP3    H134862   5.929   1.577   3.429  0.6249 -1.3940 -1.7535
 4457TIP3    H234863   5.999   1.493   3.534  0.4471  0.4341 -0.1224
 4458TIP3   OH234864   0.698   0.510  13.983 -0.5288  0.3980  0.0931
 4458TIP3    H134865   0.666   0.493  14.072 -0.4910 -2.3629 -0.3557
 4458TIP3    H234866   0.661   0.440  13.930  3.8545 -1.3922 -1.0148
 4459TIP3   OH234867   3.018   3.609   3.053  0.1725  0.1698 -0.4002
 4459TIP3    H134868   2.936   3.573   3.021  1.2408 -3.8598  0.7668
 4459TIP3    H234869   3.044   3.550   3.124  4.9440 -0.0760 -1.9625
 4460TIP3   OH234870   5.284   6.728   2.036  0.1849 -0.2048  0.1497
 4460TIP3    H134871   5.205   6.734   1.983  0.2809  1.0242  0.1062
 4460TIP3    H234872   5.355   6.754   1.976  0.3103  1.0704  0.8154
 4461TIP3   OH234873   5.013   1.560   1.295 -0.5091 -0.4283  0.3818
 4461TIP3    H134874   5.088   1.541   1.351 -0.5520 -2.4526 -0.1550
 4461TIP3    H234875   5.049   1.613   1.223  0.1351 -0.2933  0.8005
 4462TIP3   OH234876   3.925   0.062   3.043 -0.1835  0.4221  0.3588
 4462TIP3    H134877   4.007   0.020   3.071  1.0938 -0.3479 -3.8084
 4462TIP3    H234878   3.857   0.001   3.070  0.9129 -0.5012  1.1527
 4463TIP3   OH234879   4.401   5.300   5.771 -1.0210  0.0398  0.0994
 4463TIP3    H134880   4.477   5.281   5.715 -1.9737 -0.3643 -1.0911
 4463TIP3    H234881   4.399   5.228   5.834  0.6304  0.9945  1.3440
 4464TIP3   OH234882   3.499   5.516  15.266  0.5122 -0.3021  0.0023
 4464TIP3    H134883   3.449   5.596  15.278  0.8332 -0.4531  3.1085
 4464TIP3    H234884   3.591   5.544  15.262  0.5493 -0.4384 -0.1473
 4465TIP3   OH234885   5.933   6.138  12.539  0.2929 -0.2090 -0.2350
 4465TIP3    H134886   5.855   6.125  12.592  0.9556 -1.7269  0.4226
 4465TIP3    H234887   6.001   6.164  12.601  0.5369  0.2073 -0.6681
 4466TIP3   OH234888   2.038   6.052   0.728 -0.0783  0.2818 -0.1115
 4466TIP3    H134889   2.128   6.058   0.695  0.2689 -1.2766  0.4552
 4466TIP3    H234890   1.984   6.047   0.650  0.4453 -0.0765 -0.4587
 4467TIP3   OH234891   0.218   3.469   4.513 -0.0176  0.2029  0.0695
 4467TIP3    H134892   0.148   3.463   4.578 -0.6456 -1.7667 -0.7213
 4467TIP3    H234893   0.172   3.479   4.429  0.7113  0.5182 -0.2989
 4468TIP3   OH234894   3.591   3.994  16.472 -0.3730  0.6869  0.0759
 4468TIP3    H134895   3.646   4.072  16.476  0.5869  0.0218  0.1927
 4468TIP3    H234896   3.555   3.986  16.560  1.6252 -0.4541  0.8410
 4469TIP3   OH234897   1.603   1.438  15.202 -0.2035  0.2316  0.8046
 4469TIP3    H134898   1.508   1.430  15.212 -0.3131  0.5422  0.0764
 4469TIP3    H234899   1.620   1.415  15.111  0.5208 -0.5832  1.1301
 4470TIP3   OH234900   3.220   4.566  11.970 -1.1016  0.5710 -0.2315
 4470TIP3    H134901   3.252   4.655  11.959  1.5028 -0.1099  0.9483
 4470TIP3    H234902   3.219   4.552  12.065  0.9244 -1.3533 -0.4157
 4471TIP3   OH234903   0.553   5.644   6.219 -0.2919  0.2169  0.0368
 4471TIP3    H134904   0.637   5.635   6.264 -0.5738 -0.2279  0.4826
 4471TIP3    H234905   0.497   5.577   6.259  0.1491 -1.9479 -2.6330
 4472TIP3   OH234906   4.807   2.001  14.261 -0.0197 -0.6772  0.0098
 4472TIP3    H134907   4.870   2.027  14.193  1.0044 -0.5493  0.9790
 4472TIP3    H234908   4.849   2.025  14.343 -1.4205 -0.4494  0.6884
 4473TIP3   OH234909   4.024   1.356   5.762 -0.5919  0.2901  0.1983
 4473TIP3    H134910   4.007   1.446   5.789 -0.6986  0.2206  0.3601
 4473TIP3    H234911   3.944   1.308   5.783 -1.0547  0.4304 -1.1420
 4474TIP3   OH234912   4.113   0.770   3.011 -0.2675 -0.0846 -0.1145
 4474TIP3    H134913   4.097   0.720   3.091  0.6064 -0.4275 -0.1339
 4474TIP3    H234914   4.117   0.704   2.942 -0.8332  0.1919 -0.4127
 4475TIP3   OH234915   5.512   0.674  11.588  0.9629  0.1480 -0.5357
 4475TIP3    H134916   5.542   0.740  11.650 -0.0145  0.0241  0.0932
 4475TIP3    H234917   5.566   0.687  11.510  0.8198  1.6636 -0.4045
 4476TIP3   OH234918   2.294   2.506   6.475  0.5027 -0.7643 -0.0884
 4476TIP3    H134919   2.205   2.482   6.501  1.2863 -3.0266  0.7988
 4476TIP3    H234920   2.322   2.570   6.540  0.1656 -1.5034  0.8120
 4477TIP3   OH234921   3.379   0.909  11.982  0.0517  0.4258 -0.0132
 4477TIP3    H134922   3.382   0.814  11.972 -0.8710  0.2842  0.8528
 4477TIP3    H234923   3.446   0.942  11.922  0.5221 -0.7784 -0.1776
 4478TIP3   OH234924   5.919   1.082  11.087 -0.1463  0.4171 -0.4451
 4478TIP3    H134925   6.006   1.045  11.071  0.1888  1.0835 -0.1957
 4478TIP3    H234926   5.862   1.038  11.024  0.2656 -0.4266 -0.2376
 4479TIP3   OH234927   5.679   6.121  16.976 -0.2491  0.2502 -0.0613
 4479TIP3    H134928   5.602   6.159  17.017 -1.0177 -0.2954 -0.9835
 4479TIP3    H234929   5.646   6.067  16.905  0.9946  0.2734 -0.6979
 4480TIP3   OH234930   1.713   6.204  17.085  0.3018  0.2569 -0.2342
 4480TIP3    H134931   1.663   6.267  17.034  0.8713 -0.3402 -1.5767
 4480TIP3    H234932   1.686   6.119  17.051 -0.5858 -0.2821  1.6546
 4481TIP3   OH234933   3.680   1.848   3.207 -0.3347  0.6007 -0.3335
 4481TIP3    H134934   3.751   1.909   3.188  0.1916  0.6424  1.5445
 4481TIP3    H234935   3.724   1.763   3.221 -0.6231  0.6285  0.8441
 4482TIP3   OH234936   5.140   6.409  13.653  0.2906  0.6447 -0.5040
 4482TIP3    H134937   5.158   6.322  13.616  0.5417 -0.1834  1.4451
 4482TIP3    H234938   5.060   6.396  13.704  2.0148  0.6641  2.4219
 4483TIP3   OH234939   2.903   4.599   2.525  0.4937  0.2900 -0.1470
 4483TIP3    H134940   2.938   4.545   2.454 -1.1657  1.2841 -1.7851
 4483TIP3    H234941   2.816   4.564   2.542  1.4787 -1.0803  2.7312
 4484TIP3   OH234942   5.023   1.757   2.677  0.4247 -0.5941  0.6447
 4484TIP3    H134943   4.944   1.800   2.644 -0.2789 -1.0606  1.7009
 4484TIP3    H234944   5.042   1.689   2.612 -0.3539 -0.8381  0.6660
 4485TIP3   OH234945   2.923   3.831   5.528  0.1805 -0.6916  0.4615
 4485TIP3    H134946   2.950   3.889   5.598 -0.9695  0.0091  0.3500
 4485TIP3    H234947   2.960   3.869   5.448  0.0229 -0.5079  0.4764
 4486TIP3   OH234948   6.816   0.080   3.030 -0.1524  0.4177  0.2368
 4486TIP3    H134949   6.873   0.005   3.043 -0.4256  0.1852  0.0937
 4486TIP3    H234950   6.828   0.133   3.108 -2.4177 -1.3760  1.9369
 4487TIP3   OH234951   2.821   6.828  15.120 -0.4702  0.0871 -0.0234
 4487TIP3    H134952   2.900   6.877  15.097  0.7992 -2.2463 -0.8599
 4487TIP3    H234953   2.832   6.743  15.079 -2.5283 -1.0113  1.5160
 4488TIP3   OH234954   2.202   1.941   3.461  0.3716 -0.3007 -0.5247
 4488TIP3    H134955   2.112   1.932   3.430  0.7051 -1.1953 -1.2777
 4488TIP3    H234956   2.231   1.851   3.476  0.3790  0.0476  2.0187
 4489TIP3   OH234957   6.080   3.177   1.877  0.7155 -0.2294 -0.7338
 4489TIP3    H134958   6.031   3.242   1.828  0.6770  0.5310  0.2727
 4489TIP3    H234959   6.136   3.228   1.936 -0.5970 -1.0510  1.3467
 4490TIP3   OH234960   5.579   4.845  10.877 -0.1760 -0.0767 -0.1090
 4490TIP3    H134961   5.566   4.871  10.785  0.5061 -1.5453 -0.6562
 4490TIP3    H234962   5.659   4.890  10.903  0.2620 -0.5482 -0.6117
 4491TIP3   OH234963   5.485   3.347   1.937 -0.0553 -0.4285  0.6193
 4491TIP3    H134964   5.564   3.373   1.983 -1.4780  2.0896  1.8665
 4491TIP3    H234965   5.472   3.415   1.870 -0.3329 -1.6871 -0.6713
 4492TIP3   OH234966   0.677   4.472   1.249  0.2267 -0.7485  0.0270
 4492TIP3    H134967   0.756   4.458   1.197 -0.0457 -0.2895 -0.5267
 4492TIP3    H234968   0.694   4.428   1.332  1.2511 -0.2424  0.0971
 4493TIP3   OH234969   6.804   5.369  11.366 -0.0410  0.4415  0.0095
 4493TIP3    H134970   6.856   5.440  11.329  2.1946 -1.2654 -0.3426
 4493TIP3    H234971   6.825   5.368  11.459  1.9132 -1.2007 -0.3732
 4494TIP3   OH234972   0.279   1.209   4.783 -0.0754  0.3432  0.1411
 4494TIP3    H134973   0.270   1.130   4.730 -0.2871  1.7559 -2.0463
 4494TIP3    H234974   0.280   1.177   4.873 -2.0077 -1.9901 -0.5648
 4495TIP3   OH234975   4.731   5.997  10.821 -0.3053 -0.1780 -0.2150
 4495TIP3    H134976   4.757   5.978  10.911  1.2044 -0.0139 -0.5828
 4495TIP3    H234977   4.782   6.074  10.797 -1.0052  0.0313 -1.0804
 4496TIP3   OH234978   4.163   0.325   5.043 -0.6262  0.1357  0.1647
 4496TIP3    H134979   4.179   0.252   4.983  0.1977  1.2550 -1.0350
 4496TIP3    H234980   4.089   0.297   5.096 -0.4874 -1.4660 -0.4281
 4497TIP3   OH234981   1.302   4.483   6.719  0.4524 -0.0944  0.0856
 4497TIP3    H134982   1.336   4.402   6.682  1.9113  1.0566 -1.2664
 4497TIP3    H234983   1.374   4.516   6.773 -0.1497  0.2689  0.6745
 4498TIP3   OH234984   4.193   4.216   0.063  0.1246  0.2926  0.4595
 4498TIP3    H134985   4.105   4.244   0.086 -0.1993 -1.0989  1.0316
 4498TIP3    H234986   4.192   4.212  -0.033 -0.9447 -1.1307  0.4848
 4499TIP3   OH234987   3.153   6.328   0.256 -0.2349 -0.0427 -0.0360
 4499TIP3    H134988   3.200   6.248   0.233  1.0687  0.5412  0.4960
 4499TIP3    H234989   3.215   6.377   0.310 -1.6230  0.5633  1.0767
 4500TIP3   OH234990   4.957   0.428  14.985 -0.1498 -0.7178 -0.3109
 4500TIP3    H134991   4.911   0.393  14.909  0.0878  1.1834 -1.4040
 4500TIP3    H234992   4.960   0.523  14.969  0.0916 -0.2791  1.9708
 4501TIP3   OH234993   2.833   5.621   1.297  0.0645  0.6920 -0.2106
 4501TIP3    H134994   2.769   5.577   1.241 -1.0336  0.5588  1.1134
 4501TIP3    H234995   2.867   5.693   1.243 -0.4765  0.1747 -1.2639
 4502TIP3   OH234996   5.743   4.820   1.485 -0.2408 -0.5246 -0.4627
 4502TIP3    H134997   5.823   4.822   1.432  0.0761  0.4548  0.0379
 4502TIP3    H234998   5.695   4.899   1.459  0.6716  0.8856  1.8244
 4503TIP3   OH234999   1.594   1.559  16.726  0.5638  0.2354 -0.3384
 4503TIP3    H135000   1.546   1.570  16.808  0.1940  0.0743 -0.5296
 4503TIP3    H235001   1.651   1.484  16.741  0.3717  0.0995 -0.2860
 4504TIP3   OH235002   3.944   1.319  15.114 -0.2142 -0.0598  0.0666
 4504TIP3    H135003   3.872   1.382  15.122 -0.4950 -0.5552  2.0512
 4504TIP3    H235004   3.904   1.242  15.074 -1.1453 -0.7550  2.1981
 4505TIP3   OH235005   5.334   6.657   4.809 -0.5166  0.6764 -0.3604
 4505TIP3    H135006   5.335   6.728   4.746 -1.6169  0.2601 -0.8674
 4505TIP3    H235007   5.340   6.577   4.756 -0.2136  0.3573  0.1400
 4506TIP3   OH235008   5.756   5.660  16.766 -0.2238 -0.1868 -0.0767
 4506TIP3    H135009   5.751   5.643  16.672 -2.0007  0.0590 -0.0519
 4506TIP3    H235010   5.814   5.591  16.799  1.6763  0.6192 -1.5156
 4507TIP3   OH235011   5.019   2.974   3.148 -0.6772  1.1034  0.4459
 4507TIP3    H135012   5.113   2.984   3.135 -0.7563 -0.3525 -1.9344
 4507TIP3    H235013   5.011   2.921   3.228  0.5463  0.9757  0.4962
 4508TIP3   OH235014   3.841   3.754  14.790  0.6102  0.4561  0.2225
 4508TIP3    H135015   3.894   3.816  14.841  0.0221 -0.3883  1.9326
 4508TIP3    H235016   3.900   3.725  14.720  1.5410  1.4703  0.5526
 4509TIP3   OH235017   6.722   0.349  17.118 -0.1491 -0.3397 -0.0329
 4509TIP3    H135018   6.730   0.376  17.026 -1.4009  0.7171  0.1372
 4509TIP3    H235019   6.633   0.374  17.142  0.5866  0.6432  1.8497
 4510TIP3   OH235020   2.472   2.442  14.415  0.1024  0.7115  0.4485
 4510TIP3    H135021   2.469   2.536  14.431 -2.8958  1.3642 -2.7442
 4510TIP3    H235022   2.530   2.432  14.339 -1.1945  0.3232 -0.5286
 4511TIP3   OH235023   6.294   4.718  11.964 -0.3256 -0.2357  0.0622
 4511TIP3    H135024   6.211   4.701  12.009 -0.7442 -0.3125 -0.7225
 4511TIP3    H235025   6.268   4.765  11.884  0.5386  1.3545  0.6750
 4512TIP3   OH235026   1.391   0.507   0.070  0.0656  0.0780 -0.0728
 4512TIP3    H135027   1.414   0.592   0.033  0.2745 -0.1992 -0.5822
 4512TIP3    H235028   1.469   0.453   0.057 -0.2881 -0.3803 -0.3156
 4513TIP3   OH235029   4.975   4.836  14.387  0.0307  0.9637  0.2751
 4513TIP3    H135030   4.957   4.812  14.296 -0.5450 -0.2242  0.6851
 4513TIP3    H235031   5.037   4.769  14.418 -0.5580  0.7633  1.0492
 4514TIP3   OH235032   4.042   6.682   0.599 -0.1596  0.2597  0.3211
 4514TIP3    H135033   3.967   6.696   0.657 -0.1584  1.5936  0.0286
 4514TIP3    H235034   4.004   6.681   0.511 -0.0415 -0.7845  0.2751
 4515TIP3   OH235035   6.727   2.008   1.906  0.2611  0.0540  0.2254
 4515TIP3    H135036   6.801   1.954   1.935 -0.0639 -0.7174 -0.3306
 4515TIP3    H235037   6.753   2.039   1.819 -0.5866 -1.2984 -0.5426
 4516TIP3   OH235038   1.555   5.582   3.986  0.1669  0.4371 -0.5280
 4516TIP3    H135039   1.462   5.598   4.002  0.8129  1.4173  3.1828
 4516TIP3    H235040   1.558   5.496   3.944 -2.3656  0.3844 -0.7511
 4517TIP3   OH235041   1.269   6.119  11.721  0.1205 -0.0468  0.2970
 4517TIP3    H135042   1.292   6.058  11.650 -1.6493  1.2658 -1.5230
 4517TIP3    H235043   1.173   6.126  11.716 -0.1047 -0.0972  3.0418
 4518TIP3   OH235044   6.767   5.403   3.711 -0.6017  0.6598  0.0559
 4518TIP3    H135045   6.758   5.340   3.782  0.9841 -1.7235 -1.6752
 4518TIP3    H235046   6.753   5.489   3.752 -0.8135 -0.6571  2.9639
 4519TIP3   OH235047   0.169   3.178   1.691  0.1721 -0.5388 -0.5709
 4519TIP3    H135048   0.259   3.178   1.726 -0.1119 -1.3150  0.1985
 4519TIP3    H235049   0.180   3.174   1.596  0.9645  0.9888 -0.5709
 4520TIP3   OH235050   2.206   1.947  15.961 -0.5877 -0.0366 -0.2968
 4520TIP3    H135051   2.191   1.988  16.046 -0.6010 -2.0130  0.7145
 4520TIP3    H235052   2.121   1.948  15.919 -0.2661  2.3979 -1.0235
 4521TIP3   OH235053   6.729   2.384  16.358  0.0280 -0.7447 -0.4514
 4521TIP3    H135054   6.695   2.313  16.303 -0.6529 -1.1721  0.4955
 4521TIP3    H235055   6.797   2.425  16.305 -0.5550 -1.1915 -1.5905
 4522TIP3   OH235056   1.180   3.585   4.690 -0.3760 -0.4944 -0.0591
 4522TIP3    H135057   1.195   3.675   4.659 -0.7144 -0.3319  0.2476
 4522TIP3    H235058   1.235   3.577   4.767 -0.6753 -0.4101  0.1625
 4523TIP3   OH235059   2.687   1.721  10.597 -0.6015 -0.1424  0.2193
 4523TIP3    H135060   2.748   1.779  10.552  0.8224 -0.6548  1.4110
 4523TIP3    H235061   2.647   1.670  10.527 -0.4433  0.9203 -0.6767
 4524TIP3   OH235062   1.967   4.684   0.358 -0.2253  0.3511  0.0675
 4524TIP3    H135063   1.878   4.701   0.388 -0.6282  0.3510 -1.0982
 4524TIP3    H235064   1.995   4.608   0.410 -0.3866  1.1877  1.4182
 4525TIP3   OH235065   0.523   4.576   5.038 -0.1517 -0.6225  0.4841
 4525TIP3    H135066   0.502   4.500   5.093 -1.1910  1.0778  2.6293
 4525TIP3    H235067   0.599   4.616   5.081 -1.5883  1.3063  1.4632
 4526TIP3   OH235068   5.609   1.067  15.171 -0.1412  0.4968  0.1558
 4526TIP3    H135069   5.681   1.105  15.120  0.5816 -1.4861 -0.4162
 4526TIP3    H235070   5.534   1.068  15.112 -0.2404  1.3737  0.2896
 4527TIP3   OH235071   4.214   3.735   1.628  0.3757 -0.1183 -0.4719
 4527TIP3    H135072   4.254   3.744   1.541  0.8637  1.2125 -0.1515
 4527TIP3    H235073   4.121   3.753   1.614  0.7801  2.4707 -0.4383
 4528TIP3   OH235074   3.130   6.708  15.523  0.1707 -0.8291  0.8181
 4528TIP3    H135075   3.095   6.795  15.541  1.1952 -0.2633  0.1620
 4528TIP3    H235076   3.053   6.655  15.504 -0.5703 -0.3724  2.3898
 4529TIP3   OH235077   6.181   2.930  13.980  0.6456 -0.0965  0.1977
 4529TIP3    H135078   6.101   2.982  13.973 -0.5333 -1.8324  0.1628
 4529TIP3    H235079   6.206   2.938  14.072  0.1402  0.0415  0.3291
 4530TIP3   OH235080   4.411   5.651  10.864  0.2370  0.2110 -0.5432
 4530TIP3    H135081   4.490   5.618  10.820  0.6412  2.0568 -1.2843
 4530TIP3    H235082   4.386   5.728  10.813 -0.2040  1.5223  1.5495
 4531TIP3   OH235083   3.767   2.994   2.450  0.3946 -0.3428 -0.0902
 4531TIP3    H135084   3.754   2.901   2.431 -0.8680 -0.3753  0.8370
 4531TIP3    H235085   3.692   3.018   2.504  1.3739  0.9097  0.7594
 4532TIP3   OH235086   3.787   2.407  11.881  0.1842 -0.2477 -0.7176
 4532TIP3    H135087   3.788   2.418  11.976 -0.4182 -1.2089 -0.5827
 4532TIP3    H235088   3.877   2.424  11.853  0.2689  0.4637 -0.0297
 4533TIP3   OH235089   0.177   3.311  14.253 -0.2000 -0.0223 -0.1890
 4533TIP3    H135090   0.085   3.330  14.233 -0.0579 -0.3208 -1.1806
 4533TIP3    H235091   0.176   3.222  14.289 -0.3154  0.0239 -0.0790
 4534TIP3   OH235092   4.594   6.237   4.352  0.3971  0.4076  0.2227
 4534TIP3    H135093   4.595   6.299   4.425  0.6870  2.3673 -1.3468
 4534TIP3    H235094   4.667   6.177   4.371  1.3814  1.7423  0.8554
 4535TIP3   OH235095   4.372   2.802   6.005 -0.1268  0.2226  0.2179
 4535TIP3    H135096   4.452   2.767   6.043  0.0437  0.5803  0.1969
 4535TIP3    H235097   4.326   2.844   6.078 -0.9997 -1.2061  0.5364
 4536TIP3   OH235098   5.511   5.587   0.982 -0.0600  0.2368 -0.5111
 4536TIP3    H135099   5.594   5.541   0.967 -0.1614  0.2998 -1.2817
 4536TIP3    H235100   5.450   5.518   1.007  0.7442  0.4414  2.3544
 4537TIP3   OH235101   3.957   2.162   0.282 -0.4537  0.2850  0.3941
 4537TIP3    H135102   3.885   2.119   0.235 -0.3675  1.6667 -1.1046
 4537TIP3    H235103   3.957   2.251   0.248  1.9827  0.3253  0.3407
 4538TIP3   OH235104   6.316   1.352   6.030 -0.4577 -0.3471  0.6357
 4538TIP3    H135105   6.300   1.285   6.097  0.5240  0.1737  1.4251
 4538TIP3    H235106   6.280   1.432   6.067 -1.8425 -0.4485 -0.4066
 4539TIP3   OH235107   3.558   6.451   1.573 -0.5501 -0.5722  0.3260
 4539TIP3    H135108   3.594   6.424   1.658  0.1704 -0.0254  0.2110
 4539TIP3    H235109   3.464   6.438   1.581 -0.5056 -0.4112  1.2602
 4540TIP3   OH235110   0.274   3.694   1.323  0.3099  0.5491 -0.7357
 4540TIP3    H135111   0.309   3.725   1.407  0.7888  1.1408 -1.1368
 4540TIP3    H235112   0.184   3.727   1.322  0.2653  0.4478 -0.4111
 4541TIP3   OH235113   3.847   0.491   6.704  0.4060 -0.0813  0.0948
 4541TIP3    H135114   3.826   0.405   6.670 -0.3432 -0.1708  0.7655
 4541TIP3    H235115   3.846   0.481   6.800 -1.3422  1.0255  0.2285
 4542TIP3   OH235116   4.501   2.307  14.898  0.3751 -0.2327  0.1578
 4542TIP3    H135117   4.521   2.215  14.915 -1.0329 -0.6554 -0.3233
 4542TIP3    H235118   4.523   2.319  14.805 -2.0431 -0.8813 -0.5620
 4543TIP3   OH235119   6.595   3.313   1.774 -0.1623 -0.7279  0.2982
 4543TIP3    H135120   6.602   3.381   1.706  0.3141 -0.6295  0.4376
 4543TIP3    H235121   6.616   3.359   1.855  0.2807 -1.0631  0.3808
 4544TIP3   OH235122   0.234   3.545   3.731 -0.8119 -0.3847 -0.0726
 4544TIP3    H135123   0.216   3.455   3.757 -2.9137  0.2594  0.9006
 4544TIP3    H235124   0.319   3.565   3.771 -1.8852 -0.8849  2.6343
 4545TIP3   OH235125   1.595   0.645   5.601 -0.1440 -0.6559  0.0715
 4545TIP3    H135126   1.581   0.669   5.693  0.7290 -2.2524  0.6605
 4545TIP3    H235127   1.689   0.630   5.595 -0.0759  0.1641 -1.3035
 4546TIP3   OH235128   2.700   2.936  11.100  0.1586  0.1681 -0.1723
 4546TIP3    H135129   2.684   2.978  11.184  0.2697 -2.0036  0.9833
 4546TIP3    H235130   2.617   2.895  11.077  0.7236 -1.0750 -0.0391
 4547TIP3   OH235131   4.271   4.387   4.803  0.0951 -0.0933  0.5463
 4547TIP3    H135132   4.193   4.401   4.748  0.3353  3.3881  0.8249
 4547TIP3    H235133   4.345   4.406   4.746  0.5439 -0.0821  1.1155
 4548TIP3   OH235134   2.471   2.428   4.916  0.3553 -0.1255 -0.7767
 4548TIP3    H135135   2.561   2.400   4.927  0.7643  1.7592  1.4958
 4548TIP3    H235136   2.419   2.360   4.959  0.6881 -1.0130 -1.7464
 4549TIP3   OH235137   1.267   6.765   0.977  0.3206  0.0722 -0.4800
 4549TIP3    H135138   1.247   6.859   0.982 -0.0900  0.0130 -0.9176
 4549TIP3    H235139   1.348   6.761   0.925  1.6411  0.3268  1.4700
 4550TIP3   OH235140   5.288   6.537  11.532  0.0342 -0.0965  0.2743
 4550TIP3    H135141   5.319   6.517  11.443 -0.1846  3.3162 -0.7349
 4550TIP3    H235142   5.194   6.517  11.529 -0.1280  0.6769 -0.5816
 4551TIP3   OH235143   5.049   2.651  13.199  0.2928  0.3274 -0.6426
 4551TIP3    H135144   4.958   2.626  13.185 -0.3106  2.3732 -0.6668
 4551TIP3    H235145   5.050   2.692  13.286  1.0157  1.0701 -0.9875
 4552TIP3   OH235146   4.596   2.980  13.617 -0.1685 -0.0892 -0.2255
 4552TIP3    H135147   4.624   3.007  13.529  0.5236  2.2209  0.6176
 4552TIP3    H235148   4.658   2.912  13.642 -0.4811 -0.9048 -1.5664
 4553TIP3   OH235149   2.514   4.455   6.446  0.3561 -0.0515 -0.3135
 4553TIP3    H135150   2.570   4.463   6.368  2.0411  1.2605  0.9536
 4553TIP3    H235151   2.573   4.471   6.520 -2.0627  3.9463  1.0593
 4554TIP3   OH235152   4.145   6.379   0.562  0.0549  0.0958 -0.6299
 4554TIP3    H135153   4.099   6.320   0.621  2.1568  0.3246  1.4028
 4554TIP3    H235154   4.089   6.386   0.485 -1.5508 -2.3468  0.2184
 4555TIP3   OH235155   1.938   0.058   1.486 -0.4687  0.0876  0.0454
 4555TIP3    H135156   1.917   0.091   1.573  0.3237 -2.2975  1.2566
 4555TIP3    H235157   1.901  -0.031   1.486  0.4961 -0.3421 -1.6323
 4556TIP3   OH235158   4.083   1.969   6.445 -0.2631  0.5864 -0.8111
 4556TIP3    H135159   4.114   1.959   6.535 -0.7031  0.7105 -0.6391
 4556TIP3    H235160   4.122   2.051   6.415 -1.9419  1.7827  0.0801
 4557TIP3   OH235161   0.575   2.266  13.122 -0.0495  0.0622 -0.1116
 4557TIP3    H135162   0.581   2.243  13.215 -1.1193 -0.1623 -0.0913
 4557TIP3    H235163   0.654   2.228  13.083  0.3989  0.1386  0.6914
 4558TIP3   OH235164   5.934   5.863  16.841 -0.3892 -0.3499  0.6207
 4558TIP3    H135165   5.937   5.937  16.780  0.0047  0.0362  1.0932
 4558TIP3    H235166   5.863   5.807  16.809  0.3870 -0.6014 -0.6944
 4559TIP3   OH235167   6.635   5.504  15.478 -0.2352 -0.2995 -0.4242
 4559TIP3    H135168   6.550   5.467  15.503 -0.0375  0.7771  2.2012
 4559TIP3    H235169   6.698   5.433  15.494 -0.4587 -0.6014 -0.8657
 4560TIP3   OH235170   1.390   2.431  16.794 -0.2906 -0.0023  0.5445
 4560TIP3    H135171   1.428   2.505  16.842 -0.3881  0.5930 -0.2687
 4560TIP3    H235172   1.453   2.413  16.724 -0.7814  0.0233  0.0880
 4561TIP3   OH235173   6.557   3.886  13.474 -0.4153 -0.3248  0.0457
 4561TIP3    H135174   6.471   3.928  13.479 -0.8264 -0.9623 -1.2093
 4561TIP3    H235175   6.543   3.807  13.422  0.8406 -0.6960  0.2179
 4562TIP3   OH235176   4.353   1.455   5.009 -0.7899 -0.0185 -0.8157
 4562TIP3    H135177   4.366   1.360   5.016 -2.7542 -0.3124 -0.5241
 4562TIP3    H235178   4.346   1.485   5.100 -2.3961  0.0137 -0.9203
 4563TIP3   OH235179   0.094   5.405  15.526 -0.0574 -0.8531  0.5356
 4563TIP3    H135180   0.086   5.315  15.494  2.3254 -0.5184 -1.3039
 4563TIP3    H235181   0.134   5.453  15.453  0.1028  1.3743  1.9831
 4564TIP3   OH235182   4.290   2.060  11.146  0.0183  0.4558  0.4797
 4564TIP3    H135183   4.219   1.995  11.152  0.7032 -0.2264  1.7070
 4564TIP3    H235184   4.298   2.079  11.053 -2.1702  1.0040  0.3403
 4565TIP3   OH235185   3.429   2.116  11.925 -0.2726  0.2357  0.6326
 4565TIP3    H135186   3.486   2.166  11.866  1.3798 -1.9291  0.2489
 4565TIP3    H235187   3.473   2.119  12.010 -1.0218  0.7579  1.0140
 4566TIP3   OH235188   3.701   3.735  12.369 -0.0511  0.7300 -0.5438
 4566TIP3    H135189   3.677   3.644  12.357  0.5622  0.3537  0.8672
 4566TIP3    H235190   3.696   3.774  12.281  0.9972 -0.9759 -1.4061
 4567TIP3   OH235191   4.314   4.606  14.492 -0.0468  0.4256 -0.1072
 4567TIP3    H135192   4.228   4.581  14.527  0.4837 -0.8539  0.3663
 4567TIP3    H235193   4.325   4.697  14.519 -0.7387  0.2294  0.9202
 4568TIP3   OH235194   6.268   1.600   3.443 -0.3732 -0.2257 -0.4066
 4568TIP3    H135195   6.243   1.692   3.448  1.7403  0.3689  0.6305
 4568TIP3    H235196   6.230   1.561   3.522 -2.7076 -0.7047 -1.6854
 4569TIP3   OH235197   2.299   1.619   2.681  0.1452 -0.7588 -0.1924
 4569TIP3    H135198   2.247   1.600   2.603 -0.5366 -0.2257  0.1249
 4569TIP3    H235199   2.349   1.538   2.696  2.2090 -0.0949 -2.5934
 4570TIP3   OH235200   3.501   0.803  12.726 -0.3706 -0.1268  0.2331
 4570TIP3    H135201   3.543   0.778  12.808 -0.4785  0.3238  0.4290
 4570TIP3    H235202   3.529   0.893  12.711  1.2244 -0.7968 -1.2229
 4571TIP3   OH235203   1.658   2.306  13.014 -0.1926 -1.1106  0.9495
 4571TIP3    H135204   1.619   2.302  12.927  0.6556  2.2290  0.2974
 4571TIP3    H235205   1.600   2.362  13.065  1.6877  0.8531  1.0578
 4572TIP3   OH235206   1.209   1.240   1.562 -0.7189  0.0140  0.3403
 4572TIP3    H135207   1.304   1.248   1.547 -0.2078  0.4428  3.2593
 4572TIP3    H235208   1.192   1.147   1.549  0.4062 -0.3281  1.1165
 4573TIP3   OH235209   0.244   2.532  13.458  0.8400  0.5264  0.3181
 4573TIP3    H135210   0.235   2.627  13.466  1.5609  0.4895  1.8590
 4573TIP3    H235211   0.220   2.498  13.544  2.0080 -0.5642  0.2463
 4574TIP3   OH235212   6.722   0.630  14.582  0.2849  0.0777 -0.5265
 4574TIP3    H135213   6.745   0.561  14.645  0.0611 -0.8138 -1.3880
 4574TIP3    H235214   6.792   0.694  14.590  0.8284 -0.5497 -0.1283
 4575TIP3   OH235215   0.007   4.652   3.439 -0.5101  0.0192 -0.6550
 4575TIP3    H135216   0.049   4.654   3.525 -0.4583  0.6875 -0.6884
 4575TIP3    H235217   0.015   4.562   3.411  2.9766  0.5029 -1.6640
 4576TIP3   OH235218   3.540   1.804   4.070  0.5589 -0.5098 -0.1299
 4576TIP3    H135219   3.551   1.857   4.149 -1.6534 -1.3367  0.8008
 4576TIP3    H235220   3.584   1.721   4.090 -1.2136 -1.2639  0.8769
 4577TIP3   OH235221   1.847   6.546   6.637  0.4712  0.5620 -0.1050
 4577TIP3    H135222   1.768   6.577   6.683  0.4460 -0.4392  0.5457
 4577TIP3    H235223   1.865   6.461   6.676  1.9099  0.8028 -0.2136
 4578TIP3   OH235224   0.410   2.522  14.824  0.4749 -0.5130  0.1601
 4578TIP3    H135225   0.343   2.544  14.759  0.4549  0.7839  0.5870
 4578TIP3    H235226   0.459   2.451  14.785  0.1834 -0.0518 -1.0915
 4579TIP3   OH235227   1.435   1.801  14.893 -0.1254  0.3324  0.3695
 4579TIP3    H135228   1.496   1.874  14.887  0.1165  0.0296 -2.0816
 4579TIP3    H235229   1.429   1.781  14.986  1.8354  1.7668  0.8530
 4580TIP3   OH235230   3.208   6.636   3.458 -0.5472 -0.1565 -0.5046
 4580TIP3    H135231   3.143   6.594   3.515 -0.3500  0.2016 -0.0134
 4580TIP3    H235232   3.282   6.575   3.458 -0.6403 -0.2699 -0.5673
 4581TIP3   OH235233   3.647   6.391  12.390 -0.5998  0.0428  0.0606
 4581TIP3    H135234   3.624   6.374  12.298  0.0585 -0.5886  0.0043
 4581TIP3    H235235   3.743   6.396  12.390 -0.5976  0.0685  0.7119
 4582TIP3   OH235236   4.336   4.439  13.163 -0.7336 -0.6120 -0.5888
 4582TIP3    H135237   4.326   4.502  13.235 -0.7508 -2.2895  0.9444
 4582TIP3    H235238   4.419   4.463  13.122 -1.0909  0.8507 -0.4962
 4583TIP3   OH235239   2.001   3.977  13.990 -0.0100  0.4793 -0.2025
 4583TIP3    H135240   1.933   3.910  14.000  1.7648 -1.0802  2.6509
 4583TIP3    H235241   1.972   4.048  14.047  0.1781  0.3013  0.1173
 4584TIP3   OH235242   1.001   0.027   6.127 -0.1293 -0.1878 -0.5679
 4584TIP3    H135243   1.008   0.025   6.222 -2.7848  0.5022 -0.2683
 4584TIP3    H235244   1.049  -0.051   6.098 -1.2659 -1.7935  1.5327
 4585TIP3   OH235245   3.958   2.747   5.838  0.7369 -0.2856  0.1359
 4585TIP3    H135246   3.931   2.737   5.929 -0.2152  1.8676  0.1520
 4585TIP3    H235247   3.893   2.699   5.787  0.7588 -0.7440  0.5354
 4586TIP3   OH235248   5.083   4.410  11.728 -0.1267  0.1159 -0.6049
 4586TIP3    H135249   5.012   4.392  11.789 -0.6852  2.1123 -0.5948
 4586TIP3    H235250   5.078   4.504  11.713  2.8570  0.4448 -0.1559
 4587TIP3   OH235251   2.609   4.959  15.264 -0.5943 -1.1495 -0.4322
 4587TIP3    H135252   2.645   4.959  15.352 -0.3287  2.0097 -0.4288
 4587TIP3    H235253   2.531   5.014  15.269 -0.3847 -0.5984 -2.1914
 4588TIP3   OH235254   3.777   5.280  13.553  0.5969 -0.2381  0.1769
 4588TIP3    H135255   3.753   5.372  13.547  0.4863 -0.3575 -1.8257
 4588TIP3    H235256   3.823   5.273  13.637  2.1126  1.9978 -0.3841
 4589TIP3   OH235257   5.946   4.065   0.952  0.2786 -0.0708  0.0100
 4589TIP3    H135258   5.953   4.023   1.038  1.0647  3.4483  1.8504
 4589TIP3    H235259   5.858   4.102   0.950  0.5248  0.5026 -0.3968
 4590TIP3   OH235260   5.306   0.015  13.387 -0.0400  0.4586  0.5525
 4590TIP3    H135261   5.377   0.065  13.346 -0.1963  0.2771  0.0541
 4590TIP3    H235262   5.235   0.078  13.395  0.2927  0.7384  1.3846
 4591TIP3   OH235263   2.702   2.373   0.534  0.0191  0.2358 -0.4102
 4591TIP3    H135264   2.733   2.284   0.550  1.7965  0.7302 -0.9195
 4591TIP3    H235265   2.622   2.362   0.482 -0.2525 -1.0728  0.2590
 4592TIP3   OH235266   4.922   6.440   3.648  0.0170 -1.1076 -0.1477
 4592TIP3    H135267   4.869   6.476   3.577  0.7015 -0.1782 -0.2018
 4592TIP3    H235268   4.857   6.405   3.710 -0.7331  0.7866  0.2158
 4593TIP3   OH235269   2.014   1.130   5.252 -0.6381 -0.3238 -0.4132
 4593TIP3    H135270   1.931   1.160   5.287 -0.3922 -1.8611  1.6190
 4593TIP3    H235271   2.000   1.126   5.157 -2.5044  0.4482 -0.2027
 4594TIP3   OH235272   4.688   3.340   1.629 -0.1773  0.0128 -0.0393
 4594TIP3    H135273   4.769   3.327   1.580 -0.1593  0.7845 -0.2146
 4594TIP3    H235274   4.642   3.256   1.621 -0.2354  0.1592 -1.4939
 4595TIP3   OH235275   0.881   0.190  15.830 -0.2224 -0.1786 -0.1233
 4595TIP3    H135276   0.956   0.246  15.849 -0.9366  0.6547  0.2755
 4595TIP3    H235277   0.866   0.141  15.911 -0.7140  0.3678  0.1169
 4596TIP3   OH235278   6.629   5.519   5.436  0.0492 -0.8636 -0.3202
 4596TIP3    H135279   6.716   5.479   5.444 -0.0647 -1.0325  0.1573
 4596TIP3    H235280   6.586   5.468   5.368  0.3618 -0.7065 -0.6394
 4597TIP3   OH235281   6.487   4.601  12.131 -0.0589 -0.3327 -0.1871
 4597TIP3    H135282   6.487   4.630  12.223 -0.1894 -0.6676 -0.0824
 4597TIP3    H235283   6.411   4.644  12.093  0.1236 -0.0124 -0.1962
 4598TIP3   OH235284   6.767   5.268  16.676  0.4811 -0.3397  0.6035
 4598TIP3    H135285   6.771   5.352  16.631  0.8318 -0.5744  0.1912
 4598TIP3    H235286   6.743   5.205  16.609  0.5443 -0.6203  0.8395
 4599TIP3   OH235287   1.607   4.459   5.836 -0.1803 -0.0877 -0.6202
 4599TIP3    H135288   1.652   4.543   5.829 -1.1570  0.3452 -2.1756
 4599TIP3    H235289   1.613   4.435   5.928  2.2752  0.4695 -0.5777
 4600TIP3   OH235290   2.709   6.127  14.890  0.4254 -0.2460  0.2741
 4600TIP3    H135291   2.657   6.205  14.872 -2.7966 -2.1400  0.5318
 4600TIP3    H235292   2.785   6.159  14.939  0.1664  2.8500 -1.1393
 4601TIP3   OH235293   2.047   2.006   5.645  0.2927  0.2658  0.6011
 4601TIP3    H135294   1.971   1.955   5.618  1.2415 -0.7762 -0.2572
 4601TIP3    H235295   2.048   2.081   5.585 -0.0526  0.2703  0.6028
 4602TIP3   OH235296   3.623   3.827  15.570  0.0962 -0.0125 -0.1177
 4602TIP3    H135297   3.655   3.784  15.649 -0.0516 -1.5953 -0.8800
 4602TIP3    H235298   3.539   3.865  15.596  0.3214 -0.0127  0.6286
 4603TIP3   OH235299   5.877   1.532   2.856  0.1003  0.0658  0.3094
 4603TIP3    H135300   5.912   1.545   2.768 -0.1065 -0.8608  0.0828
 4603TIP3    H235301   5.878   1.438   2.870 -0.3886  0.1560  1.0895
 4604TIP3   OH235302   5.116   5.986   4.792  0.1670 -0.1649  0.6132
 4604TIP3    H135303   5.063   6.044   4.736 -0.6518 -2.2936 -0.9584
 4604TIP3    H235304   5.205   5.999   4.761 -0.1622 -0.6167 -0.5943
 4605TIP3   OH235305   5.544   5.280   3.120  0.7873 -0.1569 -0.3688
 4605TIP3    H135306   5.450   5.263   3.124  1.1467 -2.4103  0.3627
 4605TIP3    H235307   5.567   5.268   3.028  0.7839 -2.9910 -0.1154
 4606TIP3   OH235308   5.575   1.473  10.622  0.2601  1.0181 -0.1000
 4606TIP3    H135309   5.575   1.396  10.679  1.8561  0.1335 -1.2150
 4606TIP3    H235310   5.617   1.542  10.674  1.9067  0.1613 -0.2255
 4607TIP3   OH235311   2.050   1.900   0.022  0.0535 -0.0430 -0.1182
 4607TIP3    H135312   1.969   1.853   0.001 -0.9709  0.7200  1.8765
 4607TIP3    H235313   2.042   1.983  -0.025 -0.5251  0.1915  0.3830
 4608TIP3   OH235314   0.998   5.846   6.313  0.2713  0.3131 -0.2524
 4608TIP3    H135315   0.907   5.861   6.340 -0.0814  0.5278 -1.5333
 4608TIP3    H235316   1.008   5.751   6.315  0.1862  0.3087  0.3763
 4609TIP3   OH235317   4.626   1.780  15.994 -0.1065  0.1213 -0.0352
 4609TIP3    H135318   4.695   1.774  16.060 -0.5473  2.6521  0.7668
 4609TIP3    H235319   4.627   1.871  15.966 -1.1933 -0.4562 -2.1943
 4610TIP3   OH235320   6.657   6.431   2.262  0.2323  0.0076 -0.0233
 4610TIP3    H135321   6.612   6.415   2.179  0.4836  1.9158 -0.5710
 4610TIP3    H235322   6.705   6.350   2.279 -0.9802 -0.9703 -0.9609
 4611TIP3   OH235323   0.827   6.604   5.124 -0.1024  0.2173 -0.5082
 4611TIP3    H135324   0.888   6.667   5.162  0.6079  0.4564 -1.9710
 4611TIP3    H235325   0.872   6.520   5.131  0.0237  0.2597 -0.7889
 4612TIP3   OH235326   3.215   2.477  14.815  0.7102 -0.3650 -0.5814
 4612TIP3    H135327   3.232   2.397  14.765  0.8014  0.2682 -1.5916
 4612TIP3    H235328   3.262   2.464  14.897  0.2802 -1.5732 -0.5072
 4613TIP3   OH235329   1.567   2.142  13.824  0.2535  0.5148 -0.2799
 4613TIP3    H135330   1.648   2.193  13.816  1.3500 -0.7901  1.7271
 4613TIP3    H235331   1.558   2.100  13.738  1.2857  1.2840 -0.7904
 4614TIP3   OH235332   3.431   6.068   3.818 -0.6361 -0.4662 -0.2356
 4614TIP3    H135333   3.361   6.013   3.853  1.3984 -2.2428  1.3359
 4614TIP3    H235334   3.427   6.056   3.724 -1.5728 -1.5997 -0.0737
 4615TIP3   OH235335   5.135   4.670  14.544 -0.1853  0.1855  0.7064
 4615TIP3    H135336   5.127   4.613  14.621 -0.4752 -0.7132  0.0404
 4615TIP3    H235337   5.153   4.609  14.472  0.6965  1.0663  0.1655
 4616TIP3   OH235338   3.347   4.815   0.529 -0.5501  0.0040  0.9925
 4616TIP3    H135339   3.296   4.754   0.582 -1.9530 -0.1501 -0.4388
 4616TIP3    H235340   3.407   4.856   0.590 -0.9643 -1.3395  2.3699
 4617TIP3   OH235341   6.544   6.031   5.913  1.0027  0.1148 -0.0846
 4617TIP3    H135342   6.480   6.055   5.980  1.0215  1.3737 -0.4857
 4617TIP3    H235343   6.495   5.978   5.850  0.8518 -0.5959  0.6200
 4618TIP3   OH235344   3.814   5.077   6.450  0.0053  0.6163  0.8508
 4618TIP3    H135345   3.844   5.017   6.518 -0.6328 -0.2995  0.3464
 4618TIP3    H235346   3.753   5.025   6.397 -1.1339  1.9205  0.8312
 4619TIP3   OH235347   5.618   6.238   5.406 -0.1936  0.3454  0.0352
 4619TIP3    H135348   5.602   6.157   5.356 -2.7396  0.3753  0.6589
 4619TIP3    H235349   5.607   6.308   5.341 -0.9755  0.2911  0.1030
 4620TIP3   OH235350   2.336   0.714   5.842  0.0528  0.0036  0.1605
 4620TIP3    H135351   2.368   0.731   5.931  0.0621  0.9094 -0.0048
 4620TIP3    H235352   2.250   0.756   5.838 -0.0085 -0.1488 -0.2175
 4621TIP3   OH235353   3.144   1.409  10.863 -0.0676 -0.5765  0.1442
 4621TIP3    H135354   3.118   1.500  10.851  0.6734 -0.4204 -0.3425
 4621TIP3    H235355   3.095   1.380  10.941 -0.9227 -0.0164 -0.1697
 4622TIP3   OH235356   5.243   4.204   4.106  0.0921  0.7109  0.3050
 4622TIP3    H135357   5.171   4.173   4.050  0.1029  0.3658  0.4755
 4622TIP3    H235358   5.203   4.215   4.193  0.6791 -1.5395  0.9274
 4623TIP3   OH235359   4.260   0.034  11.929  0.2332 -0.5955  0.3023
 4623TIP3    H135360   4.201   0.041  11.855 -1.4176  1.3734  1.6877
 4623TIP3    H235361   4.299   0.121  11.938 -0.4999 -0.4256  2.3908
 4624TIP3   OH235362   0.746   3.568   0.473  0.6036  0.1419  0.2435
 4624TIP3    H135363   0.701   3.539   0.552 -0.8680  1.1581 -0.1687
 4624TIP3    H235364   0.797   3.644   0.502  0.8670 -0.0978  0.4129
 4625TIP3   OH235365   1.562   6.619   1.043  0.2342  0.0968 -0.6295
 4625TIP3    H135366   1.561   6.669   0.962  1.0854  2.0835  0.5202
 4625TIP3    H235367   1.652   6.627   1.076  0.1339 -1.3752  0.1187
 4626TIP3   OH235368   1.194   5.820  10.384  0.1166  0.6108 -0.3099
 4626TIP3    H135369   1.228   5.737  10.417 -0.2373 -0.6168 -2.7895
 4626TIP3    H235370   1.110   5.797  10.343 -1.0723  2.6135  0.8685
 4627TIP3   OH235371   1.913   4.736   1.984 -0.6654 -0.2637  0.5144
 4627TIP3    H135372   1.866   4.674   1.928 -0.4881 -1.4856  1.6643
 4627TIP3    H235373   1.844   4.783   2.030 -0.8075 -1.4090  1.5137
 4628TIP3   OH235374   4.113   6.516   5.731  0.2326 -0.2851  0.3452
 4628TIP3    H135375   4.112   6.427   5.696 -1.1206  0.0110 -0.4560
 4628TIP3    H235376   4.094   6.505   5.825  0.9459 -0.8796  0.4332
 4629TIP3   OH235377   4.623   3.129  12.990  0.0818 -0.1352  0.2192
 4629TIP3    H135378   4.612   3.211  12.941  3.0695 -0.1941 -0.7691
 4629TIP3    H235379   4.698   3.145  13.046 -0.3268 -1.6827  1.2686
 4630TIP3   OH235380   5.266   0.539  16.478  0.0631 -0.3533 -0.3082
 4630TIP3    H135381   5.181   0.532  16.434  0.3989  1.3048 -1.2991
 4630TIP3    H235382   5.296   0.627  16.458  2.4166 -1.1853 -0.6852
 4631TIP3   OH235383   4.535   4.313  15.296 -0.3083  0.1958 -0.7296
 4631TIP3    H135384   4.481   4.380  15.338  0.2182  1.0985 -1.4585
 4631TIP3    H235385   4.474   4.242  15.274 -0.8240  0.3044  0.2992
 4632TIP3   OH235386   2.222   6.651   4.550 -0.4358 -0.3041 -0.3892
 4632TIP3    H135387   2.204   6.738   4.515  1.0834  0.1078 -0.2121
 4632TIP3    H235388   2.263   6.604   4.478 -0.7168 -0.6871 -0.3028
 4633TIP3   OH235389   3.271   5.361  15.211 -0.4867 -0.0506  0.7964
 4633TIP3    H135390   3.358   5.397  15.229  0.5561 -1.3571 -1.2259
 4633TIP3    H235391   3.211   5.434  15.222  0.5795  0.4895  4.0004
 4634TIP3   OH235392   3.684   4.452  14.489  0.9335  0.4504  0.3442
 4634TIP3    H135393   3.635   4.433  14.409  2.4213 -2.7684  0.0467
 4634TIP3    H235394   3.772   4.475  14.458  1.2534  0.1664  1.0322
 4635TIP3   OH235395   3.129   6.359  13.636  0.2475  0.2327  0.2577
 4635TIP3    H135396   3.139   6.266  13.655  1.5757 -0.4542 -3.0851
 4635TIP3    H235397   3.035   6.375  13.646 -0.4653 -2.1636 -1.4701
 4636TIP3   OH235398   5.227   5.960   1.602 -0.4092  0.5649  0.5098
 4636TIP3    H135399   5.152   6.014   1.625 -1.2259 -1.2110  2.3604
 4636TIP3    H235400   5.297   6.023   1.583 -1.4048  2.2661  2.1593
 4637TIP3   OH235401   1.157   0.278  11.424 -0.0218  0.2316 -1.0628
 4637TIP3    H135402   1.158   0.228  11.506  0.2549  0.1664 -1.1035
 4637TIP3    H235403   1.248   0.306  11.412  0.0285 -0.1483 -1.5874
 4638TIP3   OH235404   2.156   1.873   0.265 -0.3805 -0.1700  0.2043
 4638TIP3    H135405   2.132   1.888   0.174  0.1301 -0.4104  0.0225
 4638TIP3    H235406   2.198   1.786   0.264  0.6627  0.3169  0.4654
 4639TIP3   OH235407   6.809   6.196   2.311 -0.4320 -0.4036 -0.4867
 4639TIP3    H135408   6.735   6.136   2.301 -0.5402 -0.4741  0.5513
 4639TIP3    H235409   6.867   6.151   2.373  0.3484 -0.2255 -1.0837
 4640TIP3   OH235410   6.085   0.925  13.389 -0.1062 -0.6687 -0.0516
 4640TIP3    H135411   6.133   0.843  13.379 -0.0180 -0.5879 -0.3148
 4640TIP3    H235412   6.044   0.939  13.304  1.2980  0.4407 -0.5939
 4641TIP3   OH235413   5.888   1.965  16.031 -1.0473 -0.0920  0.2001
 4641TIP3    H135414   5.955   1.929  15.972 -2.4213  0.0678 -1.5292
 4641TIP3    H235415   5.936   2.025  16.087  0.5763 -1.3874  0.2789
 4642TIP3   OH235416   2.966   5.379   0.690  0.1625 -0.1675  0.3587
 4642TIP3    H135417   2.913   5.450   0.726 -1.2843 -1.8081  1.6105
 4642TIP3    H235418   3.044   5.423   0.654 -0.9419  2.0775  0.5451
 4643TIP3   OH235419   5.600   5.515   0.087 -0.2991  0.3735 -0.3428
 4643TIP3    H135420   5.619   5.605   0.062  0.2106 -0.1102 -1.8099
 4643TIP3    H235421   5.644   5.462   0.021 -0.3500 -0.9693  0.6496
 4644TIP3   OH235422   5.486   3.289   1.551  0.0396  0.2380  0.1084
 4644TIP3    H135423   5.576   3.263   1.530 -0.7629 -0.6348 -2.6359
 4644TIP3    H235424   5.464   3.237   1.629  2.3741  1.7072  1.9183
 4645TIP3   OH235425   5.846   5.901  16.528  0.5389 -0.3732  0.2943
 4645TIP3    H135426   5.902   5.858  16.592 -0.3853 -1.0027  0.7062
 4645TIP3    H235427   5.906   5.947  16.470  1.4612 -0.8448  0.8562
 4646TIP3   OH235428   2.812   5.077  11.736  0.4603  0.0506  0.0690
 4646TIP3    H135429   2.809   5.038  11.649  0.8325  1.0630 -0.4091
 4646TIP3    H235430   2.733   5.132  11.741  1.5932  1.8023 -0.5265
 4647TIP3   OH235431   0.768   1.731  13.887  0.5359 -0.1841 -0.0196
 4647TIP3    H135432   0.863   1.723  13.889  0.5925  0.1613 -0.9055
 4647TIP3    H235433   0.742   1.689  13.805  0.0351  0.7432 -0.3576
 4648TIP3   OH235434   4.625   4.371  16.638  0.0811 -0.3000  0.2976
 4648TIP3    H135435   4.609   4.466  16.639  0.8421 -0.1639  1.5736
 4648TIP3    H235436   4.719   4.363  16.625  0.2160 -0.8303  1.4607
 4649TIP3   OH235437   1.921   4.096  16.053  0.1426 -0.2590  0.4643
 4649TIP3    H135438   1.956   4.112  16.140  0.7504 -0.9926  0.3669
 4649TIP3    H235439   1.896   4.182  16.020  2.2823  0.3669  0.3599
 4650TIP3   OH235440   1.589   2.242  13.334 -0.0720  0.2132  0.1547
 4650TIP3    H135441   1.652   2.275  13.398 -0.6025  1.0989  0.2398
 4650TIP3    H235442   1.565   2.320  13.283  0.4422 -0.4864 -1.2128
 4651TIP3   OH235443   5.231   4.011  17.163  0.1386  0.2203  0.7404
 4651TIP3    H135444   5.231   3.969  17.249  0.6583  1.7691  1.5322
 4651TIP3    H235445   5.207   4.102  17.181 -1.8750  0.1020 -1.0250
 4652TIP3   OH235446   0.873   4.241   4.615 -0.1089 -0.0074  0.2181
 4652TIP3    H135447   0.890   4.193   4.534  1.9819  0.6136  0.2217
 4652TIP3    H235448   0.815   4.184   4.666  2.8297 -3.0118  0.5627
 4653TIP3   OH235449   6.691   6.103  12.021 -0.8881 -0.0064  0.8461
 4653TIP3    H135450   6.718   6.175  12.077  0.4660  0.9071 -0.8790
 4653TIP3    H235451   6.610   6.133  11.980 -1.6431 -0.5003  1.9253
 4654TIP3   OH235452   3.303   2.822   0.363 -0.4841 -0.2864  0.1408
 4654TIP3    H135453   3.249   2.745   0.346  0.1946 -0.2719 -2.4892
 4654TIP3    H235454   3.353   2.835   0.283  5.0659 -1.4998  2.8906
 4655TIP3   OH235455   4.543   4.137   4.854  0.6127  0.4973  0.1165
 4655TIP3    H135456   4.488   4.152   4.777  1.1368 -1.0632 -0.5976
 4655TIP3    H235457   4.488   4.089   4.915  0.5529  0.7462  0.2618
 4656TIP3   OH235458   2.208   4.373  16.096 -0.1813 -0.1799 -0.3092
 4656TIP3    H135459   2.220   4.428  16.173  2.1498 -0.2722 -0.5406
 4656TIP3    H235460   2.179   4.433  16.027  0.1023  0.3348  0.0195
 4657TIP3   OH235461   1.007   5.236  14.996  0.3026 -0.2527 -0.1837
 4657TIP3    H135462   1.052   5.282  15.066  0.5891  1.0521 -1.1767
 4657TIP3    H235463   1.008   5.298  14.922  0.4488 -1.7510 -1.4893
 4658TIP3   OH235464   6.021   6.246   0.429  0.0573 -0.1197  0.1308
 4658TIP3    H135465   5.993   6.244   0.337  1.4802  0.8911 -0.3527
 4658TIP3    H235466   5.966   6.313   0.469 -0.0450 -0.0232 -0.1704
 4659TIP3   OH235467   2.259   5.293  12.094  0.0610 -0.6883 -0.9209
 4659TIP3    H135468   2.168   5.289  12.061 -0.0576 -1.9787 -0.4973
 4659TIP3    H235469   2.262   5.227  12.163  0.5513  1.3845  1.1214
 4660TIP3   OH235470   2.382   3.347   4.870 -0.8063 -0.0875  0.1295
 4660TIP3    H135471   2.339   3.353   4.785 -0.4581  2.2927  0.0595
 4660TIP3    H235472   2.467   3.307   4.851  0.3113  2.6342 -1.1658
 4661TIP3   OH235473   5.654   5.809  17.121 -0.2803  0.8756  0.4783
 4661TIP3    H135474   5.586   5.799  17.054  1.2563  2.8182 -1.4950
 4661TIP3    H235475   5.623   5.882  17.175  0.1489  1.7558 -0.4155
 4662TIP3   OH235476   4.471   1.386  14.664  0.4947 -0.3265  0.1305
 4662TIP3    H135477   4.379   1.407  14.679  0.6735  1.7760 -1.2297
 4662TIP3    H235478   4.520   1.450  14.716  1.1764 -0.7285  0.0047
 4663TIP3   OH235479   4.808   2.498   4.722  0.0240  0.2637 -0.2022
 4663TIP3    H135480   4.745   2.447   4.671  0.4719  0.0824 -0.5745
 4663TIP3    H235481   4.892   2.483   4.679  0.6172 -0.8151  1.2411
 4664TIP3   OH235482   6.395   3.340  13.387  0.5866 -0.0205 -0.6621
 4664TIP3    H135483   6.482   3.321  13.352  0.6274 -0.9250 -0.1016
 4664TIP3    H235484   6.392   3.436  13.392  2.1198  0.0029  0.6591
 4665TIP3   OH235485   4.103   2.427  14.807 -0.5097  0.3892 -0.2054
 4665TIP3    H135486   4.110   2.373  14.728 -0.6357  0.9347 -0.5937
 4665TIP3    H235487   4.026   2.481  14.793 -0.0447  1.0901 -0.0783
 4666TIP3   OH235488   5.984   2.447  16.949  0.2923  0.6836  0.3531
 4666TIP3    H135489   5.917   2.397  16.901  2.4576 -1.2588 -0.8895
 4666TIP3    H235490   5.979   2.414  17.038 -0.1861  0.3131  0.1958
 4667TIP3   OH235491   1.965   4.038   0.458 -0.7594 -0.0622 -0.9486
 4667TIP3    H135492   2.023   3.969   0.425  0.3923  0.4402 -0.0551
 4667TIP3    H235493   1.931   4.081   0.379  1.5724  0.8423 -1.5405
 4668TIP3   OH235494   5.594   4.557   4.756 -0.3192  0.8579  0.6059
 4668TIP3    H135495   5.602   4.599   4.841 -2.3654 -1.7399  2.2561
 4668TIP3    H235496   5.633   4.470   4.769 -2.7688 -0.4891 -0.2681
 4669TIP3   OH235497   5.051   2.339  14.170  0.1555  0.4628 -0.1843
 4669TIP3    H135498   5.102   2.419  14.160  0.9818  0.5866  3.5791
 4669TIP3    H235499   5.002   2.352  14.251 -1.9593 -1.7383 -0.9862
 4670TIP3   OH235500   5.430   0.250  12.884 -0.0840  0.4486 -0.5609
 4670TIP3    H135501   5.497   0.255  12.817 -1.1702  0.2241 -1.7007
 4670TIP3    H235502   5.451   0.321  12.945  0.5824  1.0361 -1.4548
 4671TIP3   OH235503   3.738   4.127   1.266  0.5833  1.0219 -0.0131
 4671TIP3    H135504   3.745   4.091   1.354  0.9523  0.3670 -0.3031
 4671TIP3    H235505   3.681   4.203   1.275 -0.9894 -0.1708  0.4731
 4672TIP3   OH235506   6.779   5.839   2.496  0.1349  0.2305  0.3321
 4672TIP3    H135507   6.723   5.784   2.550 -0.3150 -1.5011 -1.7756
 4672TIP3    H235508   6.719   5.880   2.433  0.8053  1.1616  0.2737
 4673TIP3   OH235509   1.784   6.310  14.473 -0.3603  0.2426 -0.1285
 4673TIP3    H135510   1.872   6.338  14.449 -0.1028 -1.6573 -1.6117
 4673TIP3    H235511   1.754   6.258  14.399 -3.0423  1.4246  0.0301
 4674TIP3   OH235512   5.065   0.601   0.888 -0.0771 -0.2081  0.0559
 4674TIP3    H135513   5.044   0.580   0.797 -0.5237  0.2696  0.0474
 4674TIP3    H235514   4.989   0.650   0.919 -0.7725 -1.9092  1.2337
 4675TIP3   OH235515   2.628   1.159  12.159 -0.0390 -0.0747  0.8381
 4675TIP3    H135516   2.594   1.178  12.246  1.5350  0.4001  1.3809
 4675TIP3    H235517   2.551   1.133  12.109 -0.8290 -1.5448  2.6841
 4676TIP3   OH235518   5.868   2.551   3.103 -0.2248  0.3301 -0.1232
 4676TIP3    H135519   5.937   2.519   3.045  0.6972  1.1976  0.4488
 4676TIP3    H235520   5.786   2.531   3.057  0.4513  0.3598 -1.3883
 4677TIP3   OH235521   1.461   0.882  11.170 -0.6211  0.5393 -0.0205
 4677TIP3    H135522   1.384   0.932  11.195  0.0464  2.1143 -0.9894
 4677TIP3    H235523   1.512   0.941  11.114  1.5974 -0.2170  1.0760
 4678TIP3   OH235524   0.448   6.035   4.116  0.6489  0.2188  0.1025
 4678TIP3    H135525   0.527   5.989   4.143 -0.0951 -0.2594  1.5557
 4678TIP3    H235526   0.387   6.023   4.189 -0.8902  0.2884 -1.1220
 4679TIP3   OH235527   2.268   2.157  11.501  0.1931 -0.0882  0.7376
 4679TIP3    H135528   2.322   2.164  11.422 -1.9210 -0.3102 -0.8370
 4679TIP3    H235529   2.309   2.087  11.552  0.2978 -1.6926 -1.3732
 4680TIP3   OH235530   5.542   2.717   1.948  0.6224 -0.6257 -0.0835
 4680TIP3    H135531   5.454   2.742   1.921  0.0022 -1.4052  1.1242
 4680TIP3    H235532   5.537   2.622   1.962  1.0746 -0.3831  2.0200
 4681TIP3   OH235533   3.350   3.138  15.071  0.1316  0.1126 -0.5709
 4681TIP3    H135534   3.432   3.157  15.026  0.5479  1.4303  0.6766
 4681TIP3    H235535   3.337   3.211  15.131 -0.8798 -1.1080  0.7818
 4682TIP3   OH235536   0.289   0.909  11.419  0.1984  0.1913  0.0383
 4682TIP3    H135537   0.347   0.976  11.382  0.0916  1.2173  1.5941
 4682TIP3    H235538   0.320   0.827  11.382  1.3154  0.9442 -0.7639
 4683TIP3   OH235539   0.550   3.349   0.038 -0.4171 -0.1993 -0.2314
 4683TIP3    H135540   0.552   3.427  -0.016  0.3413 -1.1207 -1.5864
 4683TIP3    H235541   0.641   3.335   0.064 -0.2420 -1.6306 -1.5204
 4684TIP3   OH235542   1.449   4.457   0.661 -0.1508 -0.1570 -0.4341
 4684TIP3    H135543   1.374   4.493   0.708  0.4845  0.2039  0.3240
 4684TIP3    H235544   1.442   4.494   0.573 -1.2991 -0.7623 -0.6288
 4685TIP3   OH235545   2.498   1.712  16.937  0.2938 -0.0243  0.4455
 4685TIP3    H135546   2.579   1.737  16.982  0.6865 -2.4724  1.2273
 4685TIP3    H235547   2.430   1.717  17.004 -0.2701  2.0297 -0.2091
 4686TIP3   OH235548   3.507   0.421  14.673  0.1700 -0.4549 -0.3535
 4686TIP3    H135549   3.433   0.452  14.726  0.0656 -1.6936  0.2567
 4686TIP3    H235550   3.580   0.479  14.697 -0.6324  0.9279 -1.1346
 4687TIP3   OH235551   0.059   4.616  14.211  0.0805 -0.6314 -0.0394
 4687TIP3    H135552  -0.015   4.670  14.183 -0.2650 -1.1019 -0.0522
 4687TIP3    H235553   0.134   4.653  14.166  0.0519  0.5424  0.8116
 4688TIP3   OH235554   1.172   1.733   3.685 -0.2408  0.7195  0.5565
 4688TIP3    H135555   1.150   1.793   3.613 -0.6804  0.1428  0.2044
 4688TIP3    H235556   1.119   1.765   3.759  0.6335  1.6557  0.8001
 4689TIP3   OH235557   1.000   5.741   4.476  0.3489  0.3209  0.5425
 4689TIP3    H135558   0.995   5.836   4.490 -0.7551  0.5260 -1.0421
 4689TIP3    H235559   0.924   5.706   4.523 -0.8813  0.5600 -1.1772
 4690TIP3   OH235560   1.997   5.777   0.126 -0.4025  0.0418 -0.8391
 4690TIP3    H135561   2.014   5.778   0.220 -1.7440 -1.6102 -0.5163
 4690TIP3    H235562   2.027   5.690   0.098  1.8815  1.2394 -2.3828
 4691TIP3   OH235563   1.191   4.965  17.187  0.8440  0.0015  0.0229
 4691TIP3    H135564   1.194   5.056  17.155 -0.5484  0.9929  2.3949
 4691TIP3    H235565   1.213   4.972  17.280  1.3299 -2.2069  0.1157
 4692TIP3   OH235566   0.373   0.680   4.467  0.2725 -0.0284  0.0529
 4692TIP3    H135567   0.297   0.694   4.411  0.3438  1.1897  0.2379
 4692TIP3    H235568   0.442   0.651   4.407  0.5655  2.0056 -0.6477
 4693TIP3   OH235569   4.504   2.571   6.532 -0.9517  0.3647 -0.2572
 4693TIP3    H135570   4.552   2.565   6.615  0.9575 -0.8317 -1.3760
 4693TIP3    H235571   4.452   2.491   6.528 -1.0977  0.4558 -0.1857
 4694TIP3   OH235572   3.619   5.858  12.898 -0.5281  0.1997 -0.3171
 4694TIP3    H135573   3.649   5.874  12.988  0.5252 -1.7450 -0.2492
 4694TIP3    H235574   3.528   5.828  12.908 -0.3519 -0.2013  0.1442
 4695TIP3   OH235575   5.522   0.520  13.000  0.2891 -0.7344  0.0022
 4695TIP3    H135576   5.611   0.509  12.964  0.4662  0.3599  0.0565
 4695TIP3    H235577   5.536   0.564  13.084 -0.3455  0.5296 -0.5238
 4696TIP3   OH235578   5.660   5.641  11.276 -0.0140  0.1551 -0.7552
 4696TIP3    H135579   5.654   5.734  11.254 -1.1534 -0.2291 -2.1584
 4696TIP3    H235580   5.695   5.600  11.198  3.1102 -0.3187  0.7302
 4697TIP3   OH235581   2.341   0.822   4.129  0.2638  0.1586 -0.2209
 4697TIP3    H135582   2.274   0.887   4.107 -0.1100 -0.5769 -1.3970
 4697TIP3    H235583   2.424   0.868   4.118 -0.0215  1.1684  1.5512
 4698TIP3   OH235584   0.282   4.727   5.121  0.3880 -0.0286 -0.3793
 4698TIP3    H135585   0.278   4.686   5.207 -0.1806  1.4908  0.3558
 4698TIP3    H235586   0.358   4.687   5.078 -0.4791 -2.2216  0.0438
 4699TIP3   OH235587   4.111   0.764   5.150  0.2989  0.1137  0.3010
 4699TIP3    H135588   4.078   0.739   5.236  0.4950 -1.3036 -0.0053
 4699TIP3    H235589   4.177   0.698   5.129 -1.0980 -0.7891 -1.7318
 4700TIP3   OH235590   3.618   0.179   4.758 -0.0372 -0.7546  0.3033
 4700TIP3    H135591   3.596   0.087   4.746  0.2777 -0.8716  0.6392
 4700TIP3    H235592   3.589   0.221   4.676  1.6906 -1.4882 -0.7264
 4701TIP3   OH235593   2.692   3.598  12.063 -0.2022  0.0820 -0.1681
 4701TIP3    H135594   2.717   3.674  12.010  1.6490  0.5732  1.2989
 4701TIP3    H235595   2.630   3.633  12.128 -0.1858  0.1144 -0.1703
 4702TIP3   OH235596   2.373   4.493   1.473  0.3488 -0.3871 -0.7553
 4702TIP3    H135597   2.411   4.580   1.485  1.5469 -0.3288 -4.0194
 4702TIP3    H235598   2.428   4.435   1.526  0.7443  0.5802 -0.0842
 4703TIP3   OH235599   4.235   4.857   5.668 -0.5051 -0.0761 -0.5968
 4703TIP3    H135600   4.282   4.813   5.739 -0.9470 -0.0130 -0.2587
 4703TIP3    H235601   4.302   4.876   5.603 -0.5202 -2.6612 -1.4834
 4704TIP3   OH235602   2.667   4.816   4.986  0.0906  0.2190 -0.0730
 4704TIP3    H135603   2.580   4.850   5.008  0.0237  0.5622 -0.8039
 4704TIP3    H235604   2.649   4.735   4.939  0.1066  0.7101 -0.9687
 4705TIP3   OH235605   1.852   0.341  17.200 -0.1223  0.2451  0.0291
 4705TIP3    H135606   1.916   0.385  17.256  2.9324 -0.5701 -2.5280
 4705TIP3    H235607   1.841   0.401  17.126  0.2905 -1.1082 -1.1532
 4706TIP3   OH235608   1.531   1.211   1.515 -0.1886  0.4376 -0.5263
 4706TIP3    H135609   1.549   1.274   1.446  0.4006 -0.1978 -0.9654
 4706TIP3    H235610   1.608   1.153   1.516  0.4649  1.2383  1.5654
 4707TIP3   OH235611   2.067   0.466  11.393 -0.5200 -0.1737 -0.3727
 4707TIP3    H135612   2.035   0.376  11.403  0.5056 -0.5640 -0.4237
 4707TIP3    H235613   2.004   0.519  11.442 -0.3032 -1.0961  0.9775
 4708TIP3   OH235614   1.991   1.961   3.280 -0.1497  0.4220  0.4123
 4708TIP3    H135615   1.960   2.026   3.216  1.5190  2.4576  1.5428
 4708TIP3    H235616   1.914   1.910   3.302 -1.3490  1.4456 -1.1954
 4709TIP3   OH235617   5.461   5.210  12.984  0.6180 -0.3153  1.0067
 4709TIP3    H135618   5.469   5.264  12.906 -0.8735 -0.9501  0.3713
 4709TIP3    H235619   5.543   5.162  12.989  0.4673 -0.8043 -0.6195
 4710TIP3   OH235620   5.816   1.674  14.830  0.2841  0.3436  0.0759
 4710TIP3    H135621   5.867   1.721  14.764 -0.1499 -0.2257 -0.6837
 4710TIP3    H235622   5.742   1.637  14.781 -0.9268  1.2405  1.1462
 4711TIP3   OH235623   5.263   2.992  15.269  0.2752  0.0652 -0.2202
 4711TIP3    H135624   5.263   3.062  15.334 -0.5627 -0.6714  0.5913
 4711TIP3    H235625   5.337   2.936  15.295  1.0020  0.6712 -0.9221
 4712TIP3   OH235626   3.147   6.832   1.722  0.2913 -0.5737 -0.0634
 4712TIP3    H135627   3.228   6.882   1.711  0.8253 -1.2962  0.5524
 4712TIP3    H235628   3.173   6.752   1.766 -0.8043 -0.7002  0.3916
 4713TIP3   OH235629   0.334   3.110   0.759  0.1597 -0.2073 -0.2484
 4713TIP3    H135630   0.283   3.122   0.679  2.4887  1.0045 -1.6637
 4713TIP3    H235631   0.373   3.195   0.776 -0.7651 -0.2492  2.6445
 4714TIP3   OH235632   6.261   5.802   2.395 -0.3332  0.6904 -0.0656
 4714TIP3    H135633   6.175   5.842   2.407  0.3964  1.7953  1.9238
 4714TIP3    H235634   6.246   5.709   2.407 -1.9359  0.2158 -4.0736
 4715TIP3   OH235635   3.206   2.045   4.653  0.8716  0.4731  0.1245
 4715TIP3    H135636   3.186   2.133   4.684 -3.2110  0.1583 -1.0696
 4715TIP3    H235637   3.211   1.992   4.732 -1.4142  1.0234  0.6870
 4716TIP3   OH235638   2.420   2.062   4.857  0.1365 -0.4579 -0.0797
 4716TIP3    H135639   2.463   1.998   4.913 -0.3228  1.0498  2.1419
 4716TIP3    H235640   2.371   2.118   4.917  0.2704  1.7946 -1.9116
 4717TIP3   OH235641   4.851   0.452   2.362  0.3959  0.5859 -0.7419
 4717TIP3    H135642   4.898   0.374   2.393  0.2089 -1.3501 -4.7385
 4717TIP3    H235643   4.920   0.508   2.327  0.2106  0.3714 -1.4564
 4718TIP3   OH235644   3.802   6.433  13.075 -0.3937  0.4090  0.2942
 4718TIP3    H135645   3.785   6.406  12.984 -0.0946 -0.3532  0.4574
 4718TIP3    H235646   3.881   6.487  13.069 -0.4278  0.4383  0.0896
 4719TIP3   OH235647   2.870   2.023  14.900  0.2630 -0.1644 -0.3203
 4719TIP3    H135648   2.937   1.956  14.914  0.2070 -0.3843 -1.0666
 4719TIP3    H235649   2.887   2.056  14.812 -1.6264 -1.4101 -1.2304
 4720TIP3   OH235650   5.315   0.103   2.218 -0.0370 -0.0472 -0.5379
 4720TIP3    H135651   5.339   0.159   2.145  2.4425 -3.5915 -2.7687
 4720TIP3    H235652   5.299   0.017   2.179  0.9648 -2.0651  2.9725
 4721TIP3   OH235653   6.591   0.495   3.810  0.2755 -0.2652  0.0964
 4721TIP3    H135654   6.590   0.590   3.801  0.1116 -0.2742  0.0197
 4721TIP3    H235655   6.637   0.479   3.893  2.0017 -0.1885 -0.8104
 4722TIP3   OH235656   5.266   2.098   0.677 -0.8728 -0.1606 -0.2413
 4722TIP3    H135657   5.238   2.177   0.630 -0.1605  1.1960  1.4596
 4722TIP3    H235658   5.218   2.102   0.760  1.1500  0.0145  1.0156
 4723TIP3   OH235659   3.977   1.664   5.578  0.5653 -0.2906  0.1851
 4723TIP3    H135660   4.029   1.623   5.647  3.4112  3.1427  0.3509
 4723TIP3    H235661   4.038   1.720   5.532 -2.1661  0.7418 -2.5160
 4724TIP3   OH235662   0.975   0.730   4.775 -0.6740 -0.1513  0.1534
 4724TIP3    H135663   0.912   0.784   4.823  0.0455  1.2682 -0.4180
 4724TIP3    H235664   1.007   0.787   4.705  0.2655 -1.2769 -0.3727
 4725TIP3   OH235665   4.917   4.755   0.557  0.6298 -0.1095 -0.3339
 4725TIP3    H135666   4.850   4.772   0.490 -1.9926 -0.2074  2.0954
 4725TIP3    H235667   4.901   4.664   0.584  0.8807  0.2801  1.1923
 4726TIP3   OH235668   5.631   1.869  15.932  0.2274 -0.1681  0.4001
 4726TIP3    H135669   5.711   1.905  15.969 -0.3480  0.3215  1.2004
 4726TIP3    H235670   5.623   1.911  15.846 -0.4702  1.7312  1.3428
 4727TIP3   OH235671   2.912   0.216   5.822 -0.1314  0.1026 -0.1679
 4727TIP3    H135672   3.005   0.190   5.818  0.0658  0.7605  0.0149
 4727TIP3    H235673   2.908   0.279   5.894 -0.4466  1.1591 -1.0819
 4728TIP3   OH235674   5.165   1.537   1.567  0.1780  0.5764 -0.0707
 4728TIP3    H135675   5.087   1.507   1.613 -1.7303  2.1002 -2.0594
 4728TIP3    H235676   5.149   1.630   1.551  2.0023  0.7429 -1.3052
 4729TIP3   OH235677   0.824   5.597   3.083 -0.4044 -0.0590 -0.3588
 4729TIP3    H135678   0.861   5.620   3.168 -1.5527 -0.6825  0.3421
 4729TIP3    H235679   0.891   5.622   3.020  0.4107  0.5592  0.7141
 4730TIP3   OH235680   1.563   4.383   2.747 -0.6230 -0.6130 -0.0590
 4730TIP3    H135681   1.538   4.298   2.710 -0.5144  0.8549 -4.0304
 4730TIP3    H235682   1.658   4.378   2.754 -0.5930 -0.7888 -0.5038
 4731TIP3   OH235683   4.259   4.213  14.992  0.1507  0.5974  0.0659
 4731TIP3    H135684   4.285   4.298  15.025  0.0028  1.1255 -1.1151
 4731TIP3    H235685   4.338   4.178  14.949 -0.5532  1.5151 -2.1346
 4732TIP3   OH235686   2.035   2.699   5.914 -0.5616  0.6279 -0.2194
 4732TIP3    H135687   2.077   2.687   5.999 -1.4324 -0.4309  0.0879
 4732TIP3    H235688   2.090   2.763   5.869 -0.5038  1.8138  1.4202
 4733TIP3   OH235689   0.809   6.739  15.524 -0.0681 -0.1550 -0.4503
 4733TIP3    H135690   0.761   6.729  15.442 -1.2655  1.0306  0.0666
 4733TIP3    H235691   0.872   6.810  15.508  0.4637 -0.6671 -0.6617
 4734TIP3   OH235692   5.235   5.523  15.587 -0.2874 -0.3892 -0.0602
 4734TIP3    H135693   5.181   5.444  15.589 -2.3817  0.9699  1.0441
 4734TIP3    H235694   5.238   5.548  15.495 -2.2844 -0.0748 -0.0793
 4735TIP3   OH235695   5.714   2.293  11.895 -0.1765  0.2220 -0.1478
 4735TIP3    H135696   5.753   2.333  11.817  0.4278 -0.7833 -0.3721
 4735TIP3    H235697   5.752   2.344  11.968  4.5958 -2.8129 -0.0515
 4736TIP3   OH235698   1.369   4.967  12.832 -0.1203  0.0468 -0.3431
 4736TIP3    H135699   1.303   4.934  12.771 -0.6493  0.1275  0.1719
 4736TIP3    H235700   1.355   4.916  12.912  0.6277 -0.1236 -0.3178
 4737TIP3   OH235701   3.642   5.792  14.029  0.1072 -0.5667 -0.3885
 4737TIP3    H135702   3.644   5.887  14.019 -0.8999 -0.4456  0.3579
 4737TIP3    H235703   3.730   5.763  14.007  0.0450  0.3802 -2.0513
 4738TIP3   OH235704   6.184   5.957  13.493 -0.3881  0.5821  0.2167
 4738TIP3    H135705   6.193   5.864  13.471 -0.7665  0.6545 -0.2466
 4738TIP3    H235706   6.134   5.958  13.575 -1.1220  0.4053 -0.2199
 4739TIP3   OH235707   2.242   3.289  16.376 -0.5012 -0.1521  0.5775
 4739TIP3    H135708   2.200   3.343  16.309 -0.4872 -1.2817 -0.3932
 4739TIP3    H235709   2.188   3.301  16.454 -1.1612  0.3557  0.0558
 4740TIP3   OH235710   4.847   3.728   4.968 -0.2400  0.5767 -0.1246
 4740TIP3    H135711   4.833   3.799   5.030 -1.9211  2.6788 -2.7288
 4740TIP3    H235712   4.763   3.717   4.923  1.1892  0.0340 -2.8771
 4741TIP3   OH235713   1.151   0.823   1.412 -0.0872 -0.0750 -0.1433
 4741TIP3    H135714   1.076   0.867   1.451  0.2253  0.9806 -0.7043
 4741TIP3    H235715   1.212   0.810   1.485  0.3284  1.5286 -0.1636
 4742TIP3   OH235716   4.826   2.746  12.582 -0.0642 -0.0466 -0.4590
 4742TIP3    H135717   4.852   2.828  12.624 -0.8020  0.3971 -0.8567
 4742TIP3    H235718   4.795   2.691  12.654  1.0351 -0.2314 -0.1033
 4743TIP3   OH235719   0.664   3.753  16.110 -0.3596 -0.0491 -0.3710
 4743TIP3    H135720   0.630   3.698  16.039  0.3860 -1.4256  0.3105
 4743TIP3    H235721   0.595   3.752  16.176  0.4812 -1.9280  0.5339
 4744TIP3   OH235722   4.219   5.538  11.034 -0.0190  0.3246  0.6264
 4744TIP3    H135723   4.255   5.608  10.980 -0.4671 -0.0266 -0.1611
 4744TIP3    H235724   4.293   5.479  11.048 -0.7057 -1.9102 -3.4114
 4745TIP3   OH235725   0.266   4.509  11.208  0.4612 -0.1102  0.3982
 4745TIP3    H135726   0.277   4.584  11.150  1.8957 -0.1100  0.6285
 4745TIP3    H235727   0.221   4.545  11.285 -0.5299  0.0979 -0.2568
 4746TIP3   OH235728   1.882   2.627   4.149 -0.7343  0.4317  0.3194
 4746TIP3    H135729   1.845   2.540   4.133  0.3664  0.4509 -3.5197
 4746TIP3    H235730   1.807   2.687   4.144 -1.3897 -0.1480  2.2636
 4747TIP3   OH235731   2.475   3.993  16.641 -0.4468  0.4707 -0.2310
 4747TIP3    H135732   2.570   3.987  16.649 -0.4737 -1.6927 -0.9401
 4747TIP3    H235733   2.459   4.084  16.615  1.2498  1.3530  1.5293
 4748TIP3   OH235734   0.781   4.774  13.196  0.3662 -0.0842 -1.0032
 4748TIP3    H135735   0.798   4.844  13.259 -1.0489 -1.1018  0.5815
 4748TIP3    H235736   0.856   4.715  13.205  1.0990  0.7066 -1.6769
 4749TIP3   OH235737   4.694   3.867   0.416 -0.0081 -0.2863  0.5787
 4749TIP3    H135738   4.778   3.909   0.431  0.4993 -0.6753 -0.9328
 4749TIP3    H235739   4.652   3.922   0.349 -1.3621  0.4000  1.9304
 4750TIP3   OH235740   6.194   6.828  10.523 -0.4571  0.2919  0.7639
 4750TIP3    H135741   6.286   6.856  10.517  0.2064 -1.7580  0.8422
 4750TIP3    H235742   6.144   6.905  10.494  1.1940  1.9128  1.9694
 4751TIP3   OH235743   6.039   6.816  14.723 -0.4944  0.2251  0.6763
 4751TIP3    H135744   6.043   6.864  14.640 -1.6155 -0.7225  0.0545
 4751TIP3    H235745   5.972   6.862  14.774 -0.7325  0.0289  0.5413
 4752TIP3   OH235746   5.762   1.201  17.165 -0.6324  0.4641 -0.7898
 4752TIP3    H135747   5.680   1.159  17.192 -1.4480  2.7991  0.7542
 4752TIP3    H235748   5.743   1.236  17.078 -0.1997 -1.5587 -1.7476
 4753TIP3   OH235749   6.172   4.154  15.148  0.3066  0.6435 -0.0916
 4753TIP3    H135750   6.122   4.140  15.229  1.4393  2.3656  0.9747
 4753TIP3    H235751   6.225   4.075  15.140  0.0089  0.3404  0.7314
 4754TIP3   OH235752   4.811   2.684   2.860  0.4320 -0.2953  0.4399
 4754TIP3    H135753   4.823   2.605   2.911 -2.3563 -0.6567  0.7082
 4754TIP3    H235754   4.804   2.654   2.769  0.2838 -0.2687  0.4412
 4755TIP3   OH235755   2.160   1.567   1.398  0.0061  0.8492  0.9874
 4755TIP3    H135756   2.189   1.507   1.467  0.8854  1.4583  1.1634
 4755TIP3    H235757   2.140   1.649   1.444  0.8991  1.3577  0.4995
 4756TIP3   OH235758   3.897   6.738   4.980 -0.2090  0.4836  0.9152
 4756TIP3    H135759   3.885   6.803   4.911 -2.4459 -1.3792 -0.6057
 4756TIP3    H235760   3.936   6.787   5.053 -2.4437  3.6995  0.1583
 4757TIP3   OH235761   1.399   2.097   2.702 -0.0174  0.3373 -0.3284
 4757TIP3    H135762   1.317   2.051   2.716 -0.0960  0.5314 -0.1400
 4757TIP3    H235763   1.398   2.121   2.609 -0.3502  0.6772 -0.2395
 4758TIP3   OH235764   3.257   0.237   3.905  0.5117 -0.2392  0.2839
 4758TIP3    H135765   3.274   0.145   3.885 -0.3472 -0.5169  0.8268
 4758TIP3    H235766   3.183   0.261   3.850  1.4337  0.4693 -0.7128
 4759TIP3   OH235767   2.992   6.543  12.011  0.2736 -0.6024  0.3671
 4759TIP3    H135768   3.084   6.522  11.991  0.4224  0.7873 -0.5860
 4759TIP3    H235769   2.950   6.458  12.022  1.1214 -1.4119 -1.9091
 4760TIP3   OH235770   3.585   0.418   1.705  0.0663 -0.0189 -0.3477
 4760TIP3    H135771   3.592   0.337   1.756 -0.7240 -1.4663 -2.3883
 4760TIP3    H235772   3.673   0.434   1.673  0.7817  1.4374  2.1039
 4761TIP3   OH235773   3.784   3.091  13.502 -0.3420 -0.4799  0.7498
 4761TIP3    H135774   3.835   3.056  13.429 -0.5930  1.5664 -0.4685
 4761TIP3    H235775   3.720   3.022  13.522  0.0130 -1.2496 -0.6668
 4762TIP3   OH235776   1.193   3.744   1.627  0.8211 -0.2976  0.1052
 4762TIP3    H135777   1.241   3.781   1.553 -1.2136  1.4084 -0.4389
 4762TIP3    H235778   1.169   3.656   1.598  0.8341  0.0216 -0.9105
 4763TIP3   OH235779   6.508   1.399  16.445 -0.6589 -0.1384 -0.5630
 4763TIP3    H135780   6.486   1.425  16.356  2.8912  0.6821 -1.3687
 4763TIP3    H235781   6.424   1.382  16.487 -2.4910 -0.0980 -3.8940
 4764TIP3   OH235782   6.157   3.350  12.586  0.0340 -0.0259 -0.4010
 4764TIP3    H135783   6.100   3.284  12.625 -2.6530  2.4657  0.1993
 4764TIP3    H235784   6.157   3.422  12.649  1.4634  1.2369 -1.7750
 4765TIP3   OH235785   1.871   2.897   1.967 -0.4676 -0.7199 -0.1057
 4765TIP3    H135786   1.949   2.862   2.010 -0.9691 -1.2734  0.3577
 4765TIP3    H235787   1.813   2.822   1.957 -1.4109 -0.1067  0.5674
 4766TIP3   OH235788   0.947   1.441   4.845 -0.7811 -0.2573  0.1120
 4766TIP3    H135789   0.928   1.533   4.825 -1.2963 -0.6504 -1.3064
 4766TIP3    H235790   0.877   1.392   4.801  0.2437 -1.4014 -0.2901
 4767TIP3   OH235791   2.158   5.454   0.459 -0.6952 -0.2141 -0.4599
 4767TIP3    H135792   2.211   5.379   0.485 -1.2477 -0.6056 -0.4506
 4767TIP3    H235793   2.222   5.518   0.427 -0.2675 -0.9755 -1.1777
 4768TIP3   OH235794   5.755   3.938   1.623  0.3097 -0.0112 -0.2686
 4768TIP3    H135795   5.688   3.981   1.677  2.4606  1.7523  1.1971
 4768TIP3    H235796   5.787   4.007   1.566  0.7278 -0.8843 -1.1059
 4769TIP3   OH235797   3.386   4.065  16.657  0.3875  0.0422  0.5699
 4769TIP3    H135798   3.291   4.057  16.648  0.0627  2.6843  0.7156
 4769TIP3    H235799   3.406   4.023  16.740 -0.4187 -1.7051 -0.0617
 4770TIP3   OH235800   1.410   2.454  10.943 -0.5170 -0.1600  0.1934
 4770TIP3    H135801   1.466   2.385  10.977 -0.1715 -1.1500 -2.1663
 4770TIP3    H235802   1.467   2.531  10.937 -0.8824  0.3827  2.7491
 4771TIP3   OH235803   5.703   3.592  10.598 -0.3511 -0.1701  0.5053
 4771TIP3    H135804   5.678   3.500  10.588 -0.8313  0.1373 -1.7632
 4771TIP3    H235805   5.621   3.641  10.589 -0.0786  0.5143  1.5117
 4772TIP3   OH235806   3.181   0.175   5.834  0.0887  0.7398 -0.1182
 4772TIP3    H135807   3.253   0.147   5.777  0.7676 -0.8111  1.4083
 4772TIP3    H235808   3.217   0.248   5.884  0.2934  0.5640 -0.0087
 4773TIP3   OH235809   4.441   6.727   4.274 -0.0477 -0.0392 -0.0712
 4773TIP3    H135810   4.439   6.821   4.258 -1.4741 -0.2015 -1.0490
 4773TIP3    H235811   4.485   6.690   4.197  2.9761 -0.0411  1.4849
 4774TIP3   OH235812   3.565   1.566   0.014 -0.1762 -0.3393  0.3958
 4774TIP3    H135813   3.541   1.478  -0.014  1.3957 -0.5377 -0.4151
 4774TIP3    H235814   3.487   1.619  -0.006 -1.0712 -1.4878  0.7227
 4775TIP3   OH235815   1.788   1.215  16.940 -0.1465 -0.5989 -0.3821
 4775TIP3    H135816   1.800   1.205  17.034 -1.8872 -0.2554 -0.0972
 4775TIP3    H235817   1.829   1.299  16.919  1.3808 -1.2614 -0.1887
 4776TIP3   OH235818   3.344   4.378  16.451 -0.3418  0.1535 -0.7620
 4776TIP3    H135819   3.299   4.360  16.369 -1.5936 -1.5309  0.2532
 4776TIP3    H235820   3.276   4.411  16.510  0.3361  0.3757 -0.0810
 4777TIP3   OH235821   0.810   2.584   4.688 -0.6169  0.2310 -0.1462
 4777TIP3    H135822   0.732   2.599   4.634 -1.9646  1.0226  1.8837
 4777TIP3    H235823   0.784   2.513   4.747  1.2834 -1.5356 -1.3269
 4778TIP3   OH235824   1.492   4.007  12.320  0.3889  0.0619 -0.3374
 4778TIP3    H135825   1.472   3.933  12.377  0.9586 -0.9032 -1.3496
 4778TIP3    H235826   1.410   4.057  12.316 -1.0521 -2.2748 -2.1661
 4779TIP3   OH235827   3.158   2.507  11.846 -0.0891 -0.6094  0.4944
 4779TIP3    H135828   3.162   2.591  11.800  1.3326 -0.0976  1.5131
 4779TIP3    H235829   3.083   2.516  11.905  0.9817  0.5470  1.7224
 4780TIP3   OH235830   1.752   6.123  16.163 -0.1165 -0.2051 -0.1244
 4780TIP3    H135831   1.671   6.119  16.212  0.0479  2.2025  0.4545
 4780TIP3    H235832   1.753   6.042  16.111 -1.4185 -1.6909  2.0271
 4781TIP3   OH235833   1.170   4.339  11.653 -0.3134 -0.3341 -0.8706
 4781TIP3    H135834   1.076   4.354  11.645 -0.2126  1.2462  0.4621
 4781TIP3    H235835   1.209   4.426  11.653  1.0939 -0.9257 -0.6501
 4782TIP3   OH235836   1.899   0.822  15.235  0.7048  0.3751  0.0390
 4782TIP3    H135837   1.889   0.746  15.177  0.0731 -0.0875  0.7254
 4782TIP3    H235838   1.983   0.808  15.279 -0.7125 -1.6064  2.4356
 4783TIP3   OH235839   3.398   0.720  15.863  0.4159  0.7606  0.1455
 4783TIP3    H135840   3.438   0.638  15.837 -1.6102 -0.4994  0.7741
 4783TIP3    H235841   3.309   0.716  15.827 -0.0270  2.2538  0.9771
 4784TIP3   OH235842   5.814   2.866  15.200 -0.2893  0.5220  0.5206
 4784TIP3    H135843   5.751   2.846  15.131 -1.3321 -0.2769  1.6360
 4784TIP3    H235844   5.887   2.806  15.185  0.4384  1.7202 -1.0127
 4785TIP3   OH235845   5.135   3.387   4.693 -0.9577 -0.3589 -0.1141
 4785TIP3    H135846   5.055   3.440   4.691 -1.5315 -1.2039 -0.8092
 4785TIP3    H235847   5.130   3.339   4.775 -0.3732  0.7430  0.5748
 4786TIP3   OH235848   0.191   0.273  16.854  0.0788 -0.5758  0.0904
 4786TIP3    H135849   0.114   0.245  16.805 -0.0703  0.2230 -0.1474
 4786TIP3    H235850   0.200   0.209  16.924 -0.2613 -1.1959 -0.4251
 4787TIP3   OH235851   0.453   1.545   1.934 -0.4528  0.0973  0.1970
 4787TIP3    H135852   0.534   1.592   1.956  0.3376 -0.8011 -0.6758
 4787TIP3    H235853   0.438   1.488   2.010 -0.9686  1.1461  0.9026
 4788TIP3   OH235854   3.732   5.742   1.374 -0.2435 -0.4603 -0.0875
 4788TIP3    H135855   3.754   5.775   1.287  0.0372 -0.2985  0.0434
 4788TIP3    H235856   3.743   5.817   1.432 -1.6830 -0.2125 -0.0875
 4789TIP3   OH235857   1.428   5.958  16.925  0.1167  0.1322 -0.2229
 4789TIP3    H135858   1.430   5.950  16.830  0.7085 -1.3538 -0.1085
 4789TIP3    H235859   1.518   5.940  16.952  0.1259  1.2799  0.5816
 4790TIP3   OH235860   1.833   5.578   2.151  0.2419  1.2215  0.2372
 4790TIP3    H135861   1.842   5.617   2.065  1.5335 -0.3352 -0.3918
 4790TIP3    H235862   1.906   5.516   2.157 -0.9969 -0.1945  1.6236
 4791TIP3   OH235863   5.504   5.394   5.773 -0.3329 -0.5372 -0.1367
 4791TIP3    H135864   5.483   5.472   5.824  1.6124 -0.5313  0.7109
 4791TIP3    H235865   5.556   5.339   5.831  0.9922 -1.0534 -1.7191
 4792TIP3   OH235866   6.650   3.864   4.627  0.7499  0.1980  0.3329
 4792TIP3    H135867   6.672   3.779   4.590  0.3131 -0.3917  1.3701
 4792TIP3    H235868   6.731   3.894   4.668  0.9699  0.4043 -0.2420
 4793TIP3   OH235869   6.687   1.719   0.330  0.7388 -0.7076  0.0236
 4793TIP3    H135870   6.596   1.747   0.324  0.6184 -1.2797 -1.2649
 4793TIP3    H235871   6.735   1.797   0.354 -0.1127 -0.4364  0.8955
 4794TIP3   OH235872   2.975   2.538  14.169  0.4821 -0.2466  0.1306
 4794TIP3    H135873   3.019   2.454  14.184 -1.2749 -0.8802  2.1349
 4794TIP3    H235874   3.005   2.594  14.240  0.9233  0.5766 -0.6725
 4795TIP3   OH235875   0.019   2.736  14.855 -0.2892 -0.4235 -0.7146
 4795TIP3    H135876   0.035   2.777  14.770  2.8066 -1.5391 -0.8003
 4795TIP3    H235877   0.090   2.767  14.911 -2.2419  0.2717  1.5597
 4796TIP3   OH235878   4.584   0.384   2.290 -0.4974  0.1064 -0.1990
 4796TIP3    H135879   4.671   0.422   2.292 -0.6347  0.4215 -0.0440
 4796TIP3    H235880   4.570   0.360   2.198 -0.1535 -0.1786 -0.1804
 4797TIP3   OH235881   4.465   3.343  12.938 -0.4118 -0.2529  0.1902
 4797TIP3    H135882   4.394   3.394  12.977  0.2116  1.3777 -0.7095
 4797TIP3    H235883   4.488   3.391  12.859  1.6338 -0.7881  0.4067
 4798TIP3   OH235884   0.643   3.953  15.865 -0.2809  0.5313  0.2930
 4798TIP3    H135885   0.653   3.955  15.960  0.0629 -0.1166  0.2759
 4798TIP3    H235886   0.671   3.865  15.840 -1.2846  0.3691 -0.3090
 4799TIP3   OH235887   3.411   1.273   0.543 -0.3659  0.4354  0.2686
 4799TIP3    H135888   3.377   1.262   0.454  2.0533  0.8510 -0.8097
 4799TIP3    H235889   3.467   1.196   0.556 -1.2404  0.0157  1.7449
 4800TIP3   OH235890   2.659   4.314  11.613 -0.5402 -0.0844 -0.7152
 4800TIP3    H135891   2.572   4.353  11.602 -1.3930 -1.0337  2.0013
 4800TIP3    H235892   2.642   4.222  11.633  1.0630 -0.2039  0.2579
 4801TIP3   OH235893   2.011   5.534   0.022  0.1116 -0.3411 -0.2791
 4801TIP3    H135894   2.011   5.459   0.082 -0.0311 -0.7415 -0.7707
 4801TIP3    H235895   1.918   5.556   0.012  0.2301  1.4201  1.7041
 4802TIP3   OH235896   0.713   1.068   2.298  0.2226  0.0186 -0.7526
 4802TIP3    H135897   0.639   1.008   2.297 -2.0374  2.5201  1.0894
 4802TIP3    H235898   0.708   1.114   2.214 -0.7643  0.6019 -0.3919
 4803TIP3   OH235899   3.304   4.228   2.658  0.3269  0.2316  0.3384
 4803TIP3    H135900   3.272   4.243   2.747  0.4089  0.0767  0.3944
 4803TIP3    H235901   3.228   4.193   2.611 -0.3138  2.2556 -0.2069
 4804TIP3   OH235902   3.536   5.396   1.106  0.0267  0.4792 -0.3187
 4804TIP3    H135903   3.621   5.435   1.124 -0.0129  1.4739 -2.0608
 4804TIP3    H235904   3.481   5.469   1.079 -1.3775 -0.1610  0.6719
 4805TIP3   OH235905   5.414   1.175   3.888  0.1536  0.4105  0.0678
 4805TIP3    H135906   5.403   1.204   3.797 -0.2786 -2.8375 -1.0321
 4805TIP3    H235907   5.326   1.159   3.919  0.3931 -0.3548  0.3688
 4806TIP3   OH235908   5.989   2.492   0.870 -0.8611 -0.2840  0.5259
 4806TIP3    H135909   6.056   2.428   0.896 -0.5860 -0.0124  0.4932
 4806TIP3    H235910   6.008   2.568   0.925 -0.8871 -0.0573  0.2187
 4807TIP3   OH235911   2.204   4.632  15.183  0.5051 -0.0261  0.5409
 4807TIP3    H135912   2.289   4.672  15.202  0.4089  0.9516 -0.9340
 4807TIP3    H235913   2.221   4.538  15.186  0.7117 -0.0163  4.2028
 4808TIP3   OH235914   5.401   1.726   0.252 -0.1524 -0.2501  0.2020
 4808TIP3    H135915   5.433   1.809   0.288  1.8796 -0.4888 -0.9192
 4808TIP3    H235916   5.410   1.665   0.325  2.0868 -0.2959 -0.0181
 4809TIP3   OH235917   0.765   3.502  15.354 -0.4293 -0.3970 -0.1012
 4809TIP3    H135918   0.770   3.584  15.404 -1.0977 -0.2205 -0.2997
 4809TIP3    H235919   0.809   3.522  15.271 -1.9929  0.2997 -0.8063
 4810TIP3   OH235920   0.504   2.004   5.023 -0.0038  0.1343  0.3292
 4810TIP3    H135921   0.446   2.076   4.999 -0.5241 -0.2640  0.3597
 4810TIP3    H235922   0.556   1.988   4.944 -0.6362 -0.1571 -0.0343
 4811TIP3   OH235923   1.836   6.188   2.294  0.1255  0.3402 -0.3040
 4811TIP3    H135924   1.900   6.259   2.298 -0.1546  0.5385  1.3475
 4811TIP3    H235925   1.755   6.230   2.266 -0.0170  0.6691  0.5798
 4812TIP3   OH235926   3.090   1.715   1.087  0.0831 -0.1248 -0.1004
 4812TIP3    H135927   3.126   1.768   1.016 -0.0592  0.9403  0.5914
 4812TIP3    H235928   3.121   1.627   1.070  0.1380  0.1267 -1.4244
 4813TIP3   OH235929   0.307   0.547  14.652 -0.5144  0.0687  0.1159
 4813TIP3    H135930   0.348   0.489  14.716 -1.8253 -1.2970 -0.2261
 4813TIP3    H235931   0.259   0.612  14.704 -0.9914 -0.6077  0.5298
 4814TIP3   OH235932   5.114   6.573  14.415 -0.0871 -0.4162 -0.3953
 4814TIP3    H135933   5.093   6.586  14.322  1.8109  0.4373 -0.7559
 4814TIP3    H235934   5.152   6.657  14.442  2.8843 -1.7939  0.0944
 4815TIP3   OH235935   4.614   1.542   3.986 -0.9072  0.2977  0.1369
 4815TIP3    H135936   4.675   1.567   3.917  0.4679  1.8131  1.7893
 4815TIP3    H235937   4.533   1.589   3.965 -0.4215  0.9438 -0.3159
 4816TIP3   OH235938   0.904   0.393   2.105  0.3125 -0.5759 -0.0980
 4816TIP3    H135939   0.953   0.413   2.026  0.7432 -2.1533 -0.2574
 4816TIP3    H235940   0.970   0.386   2.174 -0.0101  0.2488  0.3223
 4817TIP3   OH235941   4.859   1.641   0.812 -0.5582 -0.1905 -0.0368
 4817TIP3    H135942   4.798   1.686   0.870  0.6653 -2.2647  3.1548
 4817TIP3    H235943   4.921   1.710   0.785 -1.4374  0.9518  0.7359
 4818TIP3   OH235944   3.600   3.476  13.052  0.3553  0.3232  0.1853
 4818TIP3    H135945   3.529   3.494  13.113 -0.1137 -1.7989  0.3467
 4818TIP3    H235946   3.558   3.430  12.979  1.2763  0.7296 -0.6254
 4819TIP3   OH235947   0.251   2.215  12.644 -0.3303 -0.0888  0.1009
 4819TIP3    H135948   0.232   2.204  12.737 -1.1580  0.4272  0.0037
 4819TIP3    H235949   0.331   2.267  12.641 -0.9523  0.9094  0.5269
 4820TIP3   OH235950   3.246   3.028   2.202 -0.1857  1.0489 -0.2122
 4820TIP3    H135951   3.216   2.959   2.261  1.8278  0.9559  0.7717
 4820TIP3    H235952   3.234   2.991   2.114  1.0045 -0.6675  0.2997
 4821TIP3   OH235953   2.762   0.889   2.105  0.0297  0.1736 -0.0167
 4821TIP3    H135954   2.836   0.889   2.044  0.2500  2.4206  0.1728
 4821TIP3    H235955   2.773   0.808   2.156  2.5947  0.6190  0.2577
 4822TIP3   OH235956   3.967   6.517   1.673 -0.6457  0.0351  0.3619
 4822TIP3    H135957   3.910   6.576   1.723  1.6504  0.6786  2.4487
 4822TIP3    H235958   3.938   6.429   1.697 -1.0419  0.3503  1.0683
 4823TIP3   OH235959   0.656   5.261  16.056 -0.4484  0.4094  0.2001
 4823TIP3    H135960   0.722   5.192  16.053 -3.4106 -2.6373 -0.0633
 4823TIP3    H235961   0.647   5.289  15.965 -0.8229 -0.5616 -0.0756
 4824TIP3   OH235962   6.704   1.596  17.131 -0.1195 -0.1939 -0.2590
 4824TIP3    H135963   6.612   1.570  17.132 -0.2291  0.1248 -1.2758
 4824TIP3    H235964   6.724   1.619  17.222 -1.2729  0.5288 -0.1776
 4825TIP3   OH235965   5.507   5.622   1.367 -0.4766  0.2086  0.1513
 4825TIP3    H135966   5.429   5.604   1.314 -0.9798 -0.5545  1.1206
 4825TIP3    H235967   5.548   5.697   1.324 -2.0588  1.0044 -0.0754
 4826TIP3   OH235968   1.118   6.471  15.633  0.6751 -0.2873  0.1716
 4826TIP3    H135969   1.034   6.488  15.675  1.2721 -0.7916  1.6422
 4826TIP3    H235970   1.156   6.558  15.620 -0.3059 -0.0249 -1.0459
 4827TIP3   OH235971   6.720   4.930  14.913  0.2432 -0.1882 -0.2884
 4827TIP3    H135972   6.631   4.896  14.918 -0.4453  1.6460  2.3779
 4827TIP3    H235973   6.746   4.917  14.822 -3.2132  0.3532 -1.5040
 4828TIP3   OH235974   4.713   5.242   3.959 -0.2858 -0.3283  0.4351
 4828TIP3    H135975   4.785   5.283   3.911 -0.5382  2.3223  2.1013
 4828TIP3    H235976   4.666   5.191   3.893  2.3773 -1.1813 -0.9452
 4829TIP3   OH235977   0.934   0.246  16.555 -0.1250  0.3543  0.4341
 4829TIP3    H135978   0.969   0.207  16.635 -1.5887  0.8725  1.3752
 4829TIP3    H235979   0.946   0.178  16.488  0.4440 -0.3808  1.2600
 4830TIP3   OH235980   4.399   3.249  12.475  0.1224  0.1507  0.6637
 4830TIP3    H135981   4.335   3.319  12.484 -0.5426 -0.4654  0.7696
 4830TIP3    H235982   4.484   3.294  12.476 -0.3065  0.9838  0.3442
 4831TIP3   OH235983   5.456   2.646  12.843 -0.2591 -0.2517  0.1360
 4831TIP3    H135984   5.516   2.593  12.790 -0.8792  0.1442 -0.9902
 4831TIP3    H235985   5.374   2.597  12.843 -0.6862  0.4363 -0.4830
 4832TIP3   OH235986   1.029   3.219   4.783  0.5118  0.6252  0.5913
 4832TIP3    H135987   1.076   3.140   4.755  0.8990  1.3247 -0.8144
 4832TIP3    H235988   1.023   3.272   4.704 -2.3732  0.7257  0.7846
 4833TIP3   OH235989   5.666   5.047  14.685 -0.2492  0.2630  0.2020
 4833TIP3    H135990   5.666   4.960  14.724 -1.7338  0.0627 -0.1781
 4833TIP3    H235991   5.599   5.043  14.616  1.5490  0.8958 -1.6944
 4834TIP3   OH235992   6.407   0.035  13.525  0.6827 -0.5608 -0.3128
 4834TIP3    H135993   6.386   0.014  13.434  0.3404 -2.5876  0.2019
 4834TIP3    H235994   6.330   0.010  13.575 -0.1771  2.8977  0.3535
 4835TIP3   OH235995   6.543   0.181  14.903 -0.4338 -0.4877  0.7273
 4835TIP3    H135996   6.552   0.270  14.870  0.5370 -1.3643 -1.5182
 4835TIP3    H235997   6.450   0.173  14.925 -0.5704  1.0040  0.7710
 4836TIP3   OH235998   1.852   5.483  16.382  0.0705 -0.3080  0.0164
 4836TIP3    H135999   1.867   5.398  16.340 -0.6595 -0.9562  1.0310
 4836TIP3    H236000   1.788   5.526  16.326  0.8238 -0.1831 -0.7855
 4837TIP3   OH236001   1.126   6.092   5.331 -0.2160  1.0195 -0.5040
 4837TIP3    H136002   1.160   6.109   5.418 -1.6872 -2.3772  0.9452
 4837TIP3    H236003   1.190   6.033   5.291 -0.5408  0.9150 -0.8819
 4838TIP3   OH236004   3.176   5.758  14.610  0.0422 -0.4145  0.0388
 4838TIP3    H136005   3.202   5.765  14.702  0.5696  0.1514 -0.1406
 4838TIP3    H236006   3.110   5.827  14.599  0.3653 -0.1229 -0.1241
 4839TIP3   OH236007   3.454   6.714   0.016  0.0125 -0.1546  0.4833
 4839TIP3    H136008   3.372   6.668  -0.001  0.2797 -0.0991 -1.1056
 4839TIP3    H236009   3.503   6.706  -0.065  1.9910 -0.9648  1.6993
 4840TIP3   OH236010   6.329   5.901   3.985  0.1387 -0.4115  0.1369
 4840TIP3    H136011   6.389   5.871   3.916 -0.2026  0.7325 -0.6877
 4840TIP3    H236012   6.245   5.863   3.962 -0.0785  0.3484 -0.3584
 4841TIP3   OH236013   4.128   0.815  15.161 -0.2298 -0.0491 -0.1043
 4841TIP3    H136014   4.126   0.759  15.084  1.1637 -0.0123 -0.1850
 4841TIP3    H236015   4.117   0.904  15.126 -0.6845 -0.1200 -0.1475
 4842TIP3   OH236016   2.325   1.758   4.550 -0.5092 -0.8548 -0.3904
 4842TIP3    H136017   2.332   1.838   4.497 -0.3995  0.6441  1.7784
 4842TIP3    H236018   2.233   1.757   4.578  0.1854  0.3787  2.2348
 4843TIP3   OH236019   1.452   6.167   5.415 -0.4584 -0.3440 -0.0247
 4843TIP3    H136020   1.541   6.194   5.440 -0.2523 -0.5679 -0.5005
 4843TIP3    H236021   1.418   6.241   5.365 -0.9132  0.1513  0.9943
 4844TIP3   OH236022   1.799   5.260  15.696 -0.3904  0.4098 -0.5058
 4844TIP3    H136023   1.796   5.196  15.767  0.2353  1.4390  0.5001
 4844TIP3    H236024   1.891   5.264  15.671 -0.4784  0.6552 -0.7957
 4845TIP3   OH236025   4.612   3.962  15.254 -0.1377 -0.1233 -0.8196
 4845TIP3    H136026   4.665   3.883  15.242  1.4673  0.5427  1.2906
 4845TIP3    H236027   4.654   4.028  15.199 -0.1016 -0.1578 -0.8330
 4846TIP3   OH236028   6.078   5.756   3.749  0.0418 -0.1067  0.4690
 4846TIP3    H136029   6.040   5.668   3.744  3.0410 -1.5132  0.1832
 4846TIP3    H236030   6.078   5.777   3.842 -0.3277 -0.5903  0.5797
 4847TIP3   OH236031   2.975   2.953   5.760  0.0421  0.0397  0.5925
 4847TIP3    H136032   2.938   2.865   5.750 -3.3791  1.5452 -2.0382
 4847TIP3    H236033   3.061   2.947   5.719  0.2726 -2.2250  1.2651
 4848TIP3   OH236034   5.344   4.598   0.507  0.1322  0.0994  1.1219
 4848TIP3    H136035   5.317   4.511   0.535  0.0263  0.0196  0.7792
 4848TIP3    H236036   5.365   4.644   0.588  0.6279 -0.3873  1.2730
 4849TIP3   OH236037   5.541   5.407  12.797 -0.3128 -0.0627  0.2779
 4849TIP3    H136038   5.617   5.436  12.747 -2.0219  0.9925 -1.8683
 4849TIP3    H236039   5.493   5.488  12.818 -1.9611 -0.8179 -0.3774
 4850TIP3   OH236040   1.185   2.008  15.416 -0.1649  0.1845 -0.1183
 4850TIP3    H136041   1.217   1.937  15.471 -0.7840 -0.6827 -0.8527
 4850TIP3    H236042   1.242   2.082  15.437  0.1223 -0.3540  1.0772
 4851TIP3   OH236043   4.023   4.657  12.373  0.2025  0.0231 -0.5243
 4851TIP3    H136044   4.113   4.660  12.408 -0.7224  0.6968  2.0544
 4851TIP3    H236045   4.033   4.674  12.280  2.7434  0.2544 -0.2912
 4852TIP3   OH236046   4.568   4.637  16.604  0.0139 -0.0003 -0.6042
 4852TIP3    H136047   4.626   4.708  16.632 -1.1749  0.7906 -0.0436
 4852TIP3    H236048   4.528   4.670  16.524 -0.2685 -0.1914 -0.5420
 4853TIP3   OH236049   0.790   0.333   5.429  0.3062 -0.1414 -0.5342
 4853TIP3    H136050   0.865   0.277   5.451  0.3266 -0.0228 -0.2980
 4853TIP3    H236051   0.736   0.279   5.371  0.0148 -0.6388  0.1815
 4854TIP3   OH236052   3.745   0.377  11.576  0.0340 -0.6631 -0.0523
 4854TIP3    H136053   3.839   0.382  11.594  0.0213  0.7624 -0.3261
 4854TIP3    H236054   3.705   0.437  11.638 -0.4579  0.5547 -1.4714
 4855TIP3   OH236055   3.525   1.608   1.538  0.3708  0.5844  0.3382
 4855TIP3    H136056   3.442   1.587   1.495  0.2790 -1.4311  1.3763
 4855TIP3    H236057   3.532   1.703   1.531 -1.7459  0.7506 -0.2685
 4856TIP3   OH236058   6.714   5.328   0.121 -0.0478 -0.0841 -0.2535
 4856TIP3    H136059   6.796   5.352   0.077 -0.7128  2.2860 -0.3292
 4856TIP3    H236060   6.668   5.411   0.133 -2.2802 -1.3064  0.1533
 4857TIP3   OH236061   1.055   1.446   1.454 -0.8527  0.7452  0.2945
 4857TIP3    H136062   1.085   1.365   1.496 -0.6830  0.7702  0.2217
 4857TIP3    H236063   1.064   1.513   1.522 -0.3782  0.8267  0.1603
 4858TIP3   OH236064   4.852   0.792  15.274  0.4857 -0.2573 -0.4662
 4858TIP3    H136065   4.825   0.884  15.272  2.3703  0.3591  0.3564
 4858TIP3    H236066   4.914   0.786  15.346 -0.5076 -2.4820  0.3283
 4859TIP3   OH236067   6.413   0.449  16.580  0.1158  0.3617  0.1058
 4859TIP3    H136068   6.434   0.520  16.520 -0.8211  0.6081  0.0511
 4859TIP3    H236069   6.319   0.458  16.596  0.1821 -0.2452  0.9045
 4860TIP3   OH236070   1.949   6.509  15.184 -0.0539  0.1351 -0.3006
 4860TIP3    H136071   1.954   6.489  15.091  0.3101 -0.7346 -0.0985
 4860TIP3    H236072   1.886   6.447  15.219 -1.3585  1.4435 -0.2129
 4861TIP3   OH236073   4.026   4.512   0.035  0.5384 -0.2124 -0.0736
 4861TIP3    H136074   3.940   4.489   0.000  0.2564  1.5485 -0.6232
 4861TIP3    H236075   4.088   4.478  -0.030  0.3047 -1.7158  0.4519
 4862TIP3   OH236076   3.491   2.802   0.157 -0.2049  0.0434  0.4820
 4862TIP3    H136077   3.515   2.710   0.166  1.0270 -0.0168 -2.2735
 4862TIP3    H236078   3.557   2.849   0.208  1.4073 -0.4949 -1.0170
 4863TIP3   OH236079   6.238   0.469   5.803  0.0305  0.4614 -0.0994
 4863TIP3    H136080   6.153   0.513   5.810 -0.7400 -0.3150 -3.2028
 4863TIP3    H236081   6.301   0.539   5.789 -0.0032  1.0500  2.2765
 4864TIP3   OH236082   6.406   3.628   3.655 -0.0301  0.0067  0.0928
 4864TIP3    H136083   6.383   3.616   3.562 -0.2482  1.4884 -0.0603
 4864TIP3    H236084   6.433   3.719   3.662 -3.3809  1.0242  2.1315
 4865TIP3   OH236085   0.298   0.500   3.135 -0.2960 -0.1793  0.0288
 4865TIP3    H136086   0.306   0.438   3.062  0.1522  2.1642 -2.0603
 4865TIP3    H236087   0.371   0.561   3.123 -0.4100  0.4795  2.2795
 4866TIP3   OH236088   2.758   3.700  11.460 -0.7492 -0.0823 -0.3574
 4866TIP3    H136089   2.717   3.642  11.524  0.3501 -1.0379 -0.4934
 4866TIP3    H236090   2.776   3.645  11.385 -0.2086  0.5740 -0.7205
 4867TIP3   OH236091   3.083   6.354  10.840 -0.2716  0.0619  0.4935
 4867TIP3    H136092   3.125   6.403  10.770 -0.4226  0.9633  1.0204
 4867TIP3    H236093   3.010   6.309  10.798 -0.1684  0.3407  0.0151
 4868TIP3   OH236094   1.422   2.540  12.403  0.4411 -0.0484 -0.2701
 4868TIP3    H136095   1.429   2.616  12.460  1.1895 -0.4656  0.2096
 4868TIP3    H236096   1.400   2.576  12.317  0.6951  0.7026 -0.0216
 4869TIP3   OH236097   0.310   3.191   3.073  0.3060  0.7709 -0.5626
 4869TIP3    H136098   0.219   3.166   3.091 -0.8469  2.9931 -2.7142
 4869TIP3    H236099   0.321   3.275   3.119  1.6959 -0.0171  0.6184
 4870TIP3   OH236100   3.785   1.819   3.773 -0.0072  0.0402  0.1635
 4870TIP3    H136101   3.799   1.882   3.702  1.9966 -0.0744  0.3893
 4870TIP3    H236102   3.700   1.780   3.755 -0.4692  1.5037 -1.0062
 4871TIP3   OH236103   1.489   1.727  15.601 -0.2746  0.0932 -0.3198
 4871TIP3    H136104   1.506   1.803  15.546  1.0037 -0.8221 -1.2515
 4871TIP3    H236105   1.535   1.746  15.683 -0.3184  0.4946 -0.3852
 4872TIP3   OH236106   3.994   0.688   1.158  0.4060  0.1502 -0.2456
 4872TIP3    H136107   4.067   0.648   1.112  0.5609 -1.5305  1.3690
 4872TIP3    H236108   4.021   0.693   1.249 -0.4105  2.1798 -0.0379
 4873TIP3   OH236109   0.487   6.174   1.476  0.4393 -0.3593  0.9801
 4873TIP3    H136110   0.407   6.163   1.528  0.4470 -2.3797  0.6471
 4873TIP3    H236111   0.467   6.132   1.392  1.7109 -0.5649  0.7638
 4874TIP3   OH236112   5.444   6.550  12.989 -0.3185  0.0373  0.0243
 4874TIP3    H136113   5.460   6.576  12.899  0.9146  1.2937  0.5684
 4874TIP3    H236114   5.411   6.629  13.032  0.2042 -0.2060  0.9179
 4875TIP3   OH236115   3.915   5.319   1.511  0.4620 -0.0054  0.4482
 4875TIP3    H136116   3.833   5.331   1.558  0.9004 -0.5109  1.3644
 4875TIP3    H236117   3.954   5.407   1.507  0.5850 -0.0045  1.3627
 4876TIP3   OH236118   3.006   6.132  13.947  0.1858 -0.2964 -0.3672
 4876TIP3    H136119   3.039   6.165  14.031  1.1730 -0.6062 -0.6167
 4876TIP3    H236120   3.075   6.154  13.884 -0.5472 -0.0594 -1.1050
 4877TIP3   OH236121   3.698   2.504   6.014  0.2954  0.2647  0.0444
 4877TIP3    H136122   3.718   2.580   6.068 -0.2767 -0.1058  0.8021
 4877TIP3    H236123   3.603   2.492   6.026  0.4470 -0.7779  0.2258
 4878TIP3   OH236124   0.244   5.705  14.030 -0.2172  0.5092  0.5522
 4878TIP3    H136125   0.238   5.642  13.958  1.0502  0.5779  0.3643
 4878TIP3    H236126   0.156   5.707  14.068 -0.9038  0.4226 -0.9535
 4879TIP3   OH236127   0.261   5.373   5.561  0.3207 -0.1209  0.1898
 4879TIP3    H136128   0.327   5.396   5.496  1.1963 -2.3336  0.1908
 4879TIP3    H236129   0.293   5.413   5.642 -0.1932  1.7102 -0.4717
 4880TIP3   OH236130   2.871   5.773  14.356  0.1154 -0.0942  0.0308
 4880TIP3    H136131   2.889   5.721  14.278 -0.5261 -0.2098 -0.0448
 4880TIP3    H236132   2.910   5.858  14.337 -0.6421  0.0984 -0.7099
 4881TIP3   OH236133   3.958   0.177   5.113 -0.2131 -0.0499 -0.2038
 4881TIP3    H136134   3.889   0.152   5.175 -0.2277  0.2634 -0.0912
 4881TIP3    H236135   3.913   0.183   5.029 -0.1878 -0.5048 -0.2525
 4882TIP3   OH236136   1.763   6.193  12.857 -0.4816 -0.5055 -0.5366
 4882TIP3    H136137   1.750   6.174  12.950  1.1956 -1.5194 -0.4783
 4882TIP3    H236138   1.691   6.147  12.813 -0.4084 -1.3129  0.1569
 4883TIP3   OH236139   3.813   4.674   1.856 -0.1773  0.3320  0.8676
 4883TIP3    H136140   3.790   4.588   1.889 -0.1355  0.2754  0.7507
 4883TIP3    H236141   3.908   4.680   1.869  0.0839 -0.2824 -0.6042
 4884TIP3   OH236142   4.152   2.686   2.048  0.6959 -0.1194 -0.6561
 4884TIP3    H136143   4.202   2.607   2.030 -0.6404 -0.9481 -0.8439
 4884TIP3    H236144   4.062   2.664   2.023  0.0439  0.9905  0.5965
 4885TIP3   OH236145   5.086   3.163  11.517 -0.1447  0.1418  0.5116
 4885TIP3    H136146   5.109   3.245  11.560 -2.2610  1.3162 -0.4514
 4885TIP3    H236147   5.163   3.140  11.465  0.1257  2.0814  0.0014
 4886TIP3   OH236148   5.115   3.764   3.141 -0.3132  0.4812  0.0662
 4886TIP3    H136149   5.034   3.793   3.183 -0.9680 -0.9219 -0.1505
 4886TIP3    H236150   5.088   3.736   3.053  0.8847  2.5701 -1.0399
 4887TIP3   OH236151   0.296   5.414  14.930 -0.1978  0.2065 -0.2106
 4887TIP3    H136152   0.276   5.321  14.941  2.1288 -0.2437  0.8606
 4887TIP3    H236153   0.261   5.436  14.844 -4.3763 -0.5544  1.0881
 4888TIP3   OH236154   1.808   5.929   2.178  0.4220  0.3320  0.2103
 4888TIP3    H136155   1.824   6.015   2.216 -0.3753  0.2895  0.6618
 4888TIP3    H236156   1.728   5.898   2.221  1.2805 -1.0988  0.8714
 4889TIP3   OH236157   3.968   0.990  16.035 -0.2613  0.1569  0.3934
 4889TIP3    H136158   3.879   0.955  16.041 -0.3009  0.3454  1.0511
 4889TIP3    H236159   3.993   1.006  16.126  0.1918  0.7350  0.1737
 4890TIP3   OH236160   3.630   0.158   2.427  0.4490 -0.3420  0.2271
 4890TIP3    H136161   3.623   0.065   2.447  0.6813  0.0785  2.4850
 4890TIP3    H236162   3.547   0.195   2.458  0.2617  0.1994 -0.8592
 4891TIP3   OH236163   1.335   3.300   0.402  0.4344  0.5106  0.6739
 4891TIP3    H136164   1.294   3.282   0.487  0.1633  2.0864  0.8974
 4891TIP3    H236165   1.377   3.386   0.412 -0.2472  1.0878 -1.0161
 4892TIP3   OH236166   3.579   3.280   1.111  0.1564  0.0112 -0.7718
 4892TIP3    H136167   3.529   3.354   1.077  1.9533  0.7352 -2.0366
 4892TIP3    H236168   3.527   3.247   1.184 -0.2763  3.1270  0.4921
 4893TIP3   OH236169   1.057   3.199   2.430 -0.3423  0.3596  0.2156
 4893TIP3    H136170   1.109   3.275   2.455  0.2183  0.3189 -0.8012
 4893TIP3    H236171   1.029   3.161   2.513 -1.9038  2.5143  0.7692
 4894TIP3   OH236172   5.984   0.809   4.795  0.1244 -0.3027 -0.0563
 4894TIP3    H136173   6.062   0.758   4.818 -0.1058 -0.9653 -0.7133
 4894TIP3    H236174   5.955   0.772   4.711 -1.5531 -0.8182  0.7166
 4895TIP3   OH236175   2.591   3.532   1.651  0.2535 -0.3129 -0.7583
 4895TIP3    H136176   2.575   3.593   1.724 -0.6818  0.9240 -1.9349
 4895TIP3    H236177   2.684   3.542   1.632  0.5936 -0.9299  0.4891
 4896TIP3   OH236178   2.352   5.168   1.959 -0.2846  0.2758 -0.1497
 4896TIP3    H136179   2.334   5.262   1.965 -0.7797  0.1378  0.7695
 4896TIP3    H236180   2.431   5.161   1.906  0.3107  1.2773  0.5758
 4897TIP3   OH236181   4.027   6.328   0.974  0.1548 -0.3339  0.1774
 4897TIP3    H136182   4.100   6.376   0.936  0.2995 -1.0635 -0.4863
 4897TIP3    H236183   3.967   6.396   1.005  1.3579  0.2763  1.2377
 4898TIP3   OH236184   1.721   3.503  15.363 -0.0931  0.3201  0.0930
 4898TIP3    H136185   1.756   3.560  15.432  3.2640  0.8783 -1.8050
 4898TIP3    H236186   1.662   3.444  15.408  1.1895  1.2399  3.2890
 4899TIP3   OH236187   2.789   4.275   0.097  0.4144  0.0248 -0.3025
 4899TIP3    H136188   2.767   4.285   0.005 -0.6372  0.5590 -0.0116
 4899TIP3    H236189   2.841   4.353   0.118  0.4270  0.0353 -0.3730
 4900TIP3   OH236190   1.560   6.148  14.951  0.1771 -0.6338 -0.5864
 4900TIP3    H136191   1.542   6.239  14.931 -1.7926 -0.6664  0.7508
 4900TIP3    H236192   1.481   6.101  14.924  0.8849 -1.8557 -0.6450
 4901TIP3   OH236193   5.998   4.676   0.358  0.3227  0.3657 -0.4725
 4901TIP3    H136194   5.965   4.721   0.435  0.1158  1.0263 -0.9339
 4901TIP3    H236195   5.922   4.671   0.299  0.1789 -1.1389 -0.1923
 4902TIP3   OH236196   2.305   3.033   6.137 -0.2219 -0.5362 -0.0737
 4902TIP3    H136197   2.341   2.944   6.136 -1.9664 -1.2850 -1.1220
 4902TIP3    H236198   2.309   3.061   6.045 -0.7710 -0.0106  0.0564
 4903TIP3   OH236199   3.685   2.301   2.481 -0.1015  0.2022 -0.2419
 4903TIP3    H136200   3.721   2.376   2.528  0.7369 -0.6303  0.4757
 4903TIP3    H236201   3.689   2.327   2.389  0.0132  1.1056  0.0111
 4904TIP3   OH236202   3.077   0.922  12.576  0.2663 -0.6998 -0.0585
 4904TIP3    H136203   3.150   0.984  12.568  1.4120 -1.8796  0.7914
 4904TIP3    H236204   3.043   0.913  12.487  0.3766  0.7712 -0.2733
 4905TIP3   OH236205   4.519   0.987  16.980  0.4428 -0.9148  0.0489
 4905TIP3    H136206   4.535   1.081  16.975  1.2175 -1.0542 -0.3651
 4905TIP3    H236207   4.449   0.978  17.044 -0.7708  0.0584 -1.0870
 4906TIP3   OH236208   6.038   1.837  13.067 -0.2409 -0.5822 -0.1256
 4906TIP3    H136209   5.980   1.863  12.995  0.7167 -1.3570 -1.2059
 4906TIP3    H236210   5.988   1.770  13.114 -2.3030  2.2539  2.0713
 4907TIP3   OH236211   0.330   5.854  15.504 -0.8196 -0.4134 -0.3731
 4907TIP3    H136212   0.368   5.836  15.417 -2.2563  0.2120 -1.1695
 4907TIP3    H236213   0.338   5.771  15.551  1.1787 -0.4019 -0.6130
 4908TIP3   OH236214   6.078   1.456  11.335  0.2266 -0.5556  0.4459
 4908TIP3    H136215   6.144   1.520  11.309  0.1097 -0.9968 -1.0420
 4908TIP3    H236216   6.005   1.471  11.274 -0.2600 -1.3397  0.8208
 4909TIP3   OH236217   6.189   0.294  12.773 -0.1017 -0.8310 -0.7384
 4909TIP3    H136218   6.271   0.337  12.797 -0.0577  0.0986 -2.3965
 4909TIP3    H236219   6.184   0.218  12.831  1.2277 -0.1383  0.3424
 4910TIP3   OH236220   3.008   4.108   0.950  0.3273  0.1248  0.2500
 4910TIP3    H136221   2.922   4.138   0.981 -0.3080  1.0539 -2.2029
 4910TIP3    H236222   3.068   4.179   0.973 -0.5784  1.9873 -2.5652
 4911TIP3   OH236223   1.412   0.163   4.773  0.0594 -0.5210  0.6360
 4911TIP3    H136224   1.363   0.086   4.798  0.1411 -0.2903  1.5505
 4911TIP3    H236225   1.503   0.141   4.793  0.0382 -0.0502  1.3032
 4912TIP3   OH236226   1.690   1.513   4.686 -0.4522  0.5067  0.2008
 4912TIP3    H136227   1.785   1.521   4.680 -0.4592 -0.1711 -0.9524
 4912TIP3    H236228   1.675   1.421   4.712 -0.7957  0.6364  0.4815
 4913TIP3   OH236229   5.671   0.397   3.338 -0.5411 -0.2908 -0.0184
 4913TIP3    H136230   5.666   0.308   3.304 -0.0724  0.1089 -1.1662
 4913TIP3    H236231   5.747   0.397   3.395 -2.1915 -1.3679  2.3618
 4914TIP3   OH236232   0.618   5.296   6.264 -0.1016  0.1483 -0.2196
 4914TIP3    H136233   0.544   5.350   6.290  1.1517  1.2920  1.0622
 4914TIP3    H236234   0.662   5.274   6.346  2.3189  1.4711 -1.0799
 4915TIP3   OH236235   1.183   2.966  13.659  0.2159 -0.1339  0.2336
 4915TIP3    H136236   1.189   2.872  13.647  1.7536 -0.2616  1.7058
 4915TIP3    H236237   1.268   3.000  13.631 -0.1839  0.7936  0.0736
 4916TIP3   OH236238   6.776   1.846  15.455  0.3015  0.0975  0.0583
 4916TIP3    H136239   6.782   1.853  15.359 -0.1159  0.0055  0.0218
 4916TIP3    H236240   6.789   1.753  15.473  1.4677  0.2748  0.1846
 4917TIP3   OH236241   2.177   6.747  13.615 -0.2370 -0.7757  0.5575
 4917TIP3    H136242   2.229   6.713  13.542 -0.0573 -0.7234  0.6617
 4917TIP3    H236243   2.097   6.780  13.574  0.7507  1.1742  0.1194
 4918TIP3   OH236244   4.931   4.571  11.372 -0.2518 -0.9636  0.7486
 4918TIP3    H136245   4.918   4.653  11.325 -0.6779  0.1592  2.6781
 4918TIP3    H236246   5.003   4.590  11.432 -0.4260 -1.9653  1.2962
 4919TIP3   OH236247   5.117   0.248   4.499  0.0171  0.2062  0.4598
 4919TIP3    H136248   5.043   0.308   4.508 -0.3797 -0.1419 -0.3762
 4919TIP3    H236249   5.083   0.175   4.447  0.6857 -0.4138  0.8658
 4920TIP3   OH236250   5.940   5.939   1.495 -0.0654 -0.0367  0.1538
 4920TIP3    H136251   5.884   6.012   1.523 -0.7379 -0.9890  1.4065
 4920TIP3    H236252   6.028   5.977   1.490 -0.7571  1.4311 -1.6365
 4921TIP3   OH236253   5.054   3.007  13.295 -0.0999 -0.2844  0.1303
 4921TIP3    H136254   5.149   3.022  13.295 -0.1190 -0.1580 -0.4324
 4921TIP3    H236255   5.038   2.961  13.377  0.7137 -2.0328 -0.6373
 4922TIP3   OH236256   2.942   6.474  11.594 -0.7972 -0.0484  0.1094
 4922TIP3    H136257   2.986   6.456  11.511 -1.2193 -0.0963 -0.1100
 4922TIP3    H236258   2.994   6.543  11.634  0.0690 -0.8066  0.3364
 4923TIP3   OH236259   3.917   2.714  16.658 -0.6792 -0.8029  0.9646
 4923TIP3    H136260   3.971   2.636  16.644 -1.2841 -1.1634  0.5795
 4923TIP3    H236261   3.958   2.781  16.603 -1.5889 -1.5408 -0.6978
 4924TIP3   OH236262   3.064   3.854  14.142  0.1241 -0.1884  0.0877
 4924TIP3    H136263   3.151   3.855  14.182 -0.2760 -2.5554  1.1957
 4924TIP3    H236264   3.026   3.771  14.170 -2.2477  0.4736 -0.9483
 4925TIP3   OH236265   0.378   2.883   3.090  0.2473 -0.2193  0.3479
 4925TIP3    H136266   0.442   2.832   3.039  1.4853  0.6583  0.9622
 4925TIP3    H236267   0.303   2.892   3.031  0.7139 -1.1989 -0.4429
 4926TIP3   OH236268   1.905   0.106  13.211  0.3939  0.5606 -0.5652
 4926TIP3    H136269   1.863   0.034  13.165 -2.9535  2.4702 -0.8739
 4926TIP3    H236270   1.964   0.145  13.147 -0.3378  0.0954 -1.5453
 4927TIP3   OH236271   4.948   4.012  10.441 -0.3416  0.3730  0.3570
 4927TIP3    H136272   4.859   3.984  10.465  0.3729 -0.5388  2.0332
 4927TIP3    H236273   4.951   4.001  10.345 -2.3432  1.3896  0.1210
 4928TIP3   OH236274   3.956   1.511  11.999 -0.1296 -0.1400  0.1162
 4928TIP3    H136275   4.043   1.551  11.996 -0.1173 -0.0535  1.2275
 4928TIP3    H236276   3.896   1.584  11.982  0.0073 -0.2123 -0.7123
 4929TIP3   OH236277   2.294   1.410   3.754  0.0737  0.0276 -0.0616
 4929TIP3    H136278   2.268   1.482   3.812  0.3933 -0.8784  1.2434
 4929TIP3    H236279   2.380   1.383   3.786  0.5728 -0.0500 -1.4113
 4930TIP3   OH236280   6.028   0.472   4.422 -0.4441 -0.2836 -0.1366
 4930TIP3    H136281   6.068   0.387   4.440  0.3346  0.3088  1.0784
 4930TIP3    H236282   6.075   0.506   4.346  1.1772  0.2320  1.0288
 4931TIP3   OH236283   2.348   2.872   4.325  0.4609 -0.2248  0.2084
 4931TIP3    H136284   2.377   2.963   4.334  0.3702 -0.2286  0.5663
 4931TIP3    H236285   2.266   2.878   4.275 -0.1525  0.0041  1.1958
 4932TIP3   OH236286   4.175   6.800   5.678  0.3446  0.3415 -0.2727
 4932TIP3    H136287   4.145   6.710   5.661  1.4364  0.0949 -1.0059
 4932TIP3    H236288   4.256   6.808   5.627  2.8405  0.1760  3.2964
 4933TIP3   OH236289   0.407   3.349  16.536 -0.1680 -0.6104  0.3309
 4933TIP3    H136290   0.354   3.331  16.613 -1.0228 -0.1558 -0.1305
 4933TIP3    H236291   0.361   3.421  16.492  2.0637  1.3740  1.0962
 4934TIP3   OH236292   1.404   2.542   3.547 -0.0229 -0.3637  0.1462
 4934TIP3    H136293   1.486   2.554   3.500 -0.1716 -1.3837 -0.3991
 4934TIP3    H236294   1.425   2.567   3.637  1.5227 -2.6119  0.5166
 4935TIP3   OH236295   4.415   6.209   0.546 -0.1111 -0.3734 -0.3061
 4935TIP3    H136296   4.372   6.292   0.567  0.6194 -0.3722  1.3314
 4935TIP3    H236297   4.345   6.152   0.515 -0.8971  0.3311  0.1525
 4936TIP3   OH236298   4.798   1.235   0.494 -0.4128 -0.0494  0.0270
 4936TIP3    H136299   4.807   1.330   0.489 -2.0902  0.0991 -0.6566
 4936TIP3    H236300   4.885   1.202   0.473 -0.0206  1.3249 -0.6467
 4937TIP3   OH236301   0.678   3.399   4.798 -1.0587 -1.3687 -0.2772
 4937TIP3    H136302   0.758   3.448   4.818 -1.1948 -2.0113  2.1211
 4937TIP3    H236303   0.607   3.458   4.823 -1.2369 -2.3271  1.6213
 4938TIP3   OH236304   5.718   4.843   0.451 -0.0227  0.4162  0.6664
 4938TIP3    H136305   5.766   4.881   0.377 -2.3668  3.1999  0.4033
 4938TIP3    H236306   5.665   4.773   0.412 -1.4607  2.0523 -0.4573
 4939TIP3   OH236307   2.317   2.597  15.125  0.1443  0.6867  0.2484
 4939TIP3    H136308   2.389   2.596  15.188  0.8050 -0.8205 -0.5039
 4939TIP3    H236309   2.276   2.511  15.134  1.0672 -0.0838 -2.2906
 4940TIP3   OH236310   1.041   0.360  12.404  0.1200 -0.3662 -0.3554
 4940TIP3    H136311   1.054   0.405  12.321 -2.5405  0.3075 -0.4839
 4940TIP3    H236312   0.978   0.414  12.451  1.0410 -1.1075  1.8437
 4941TIP3   OH236313   1.634   0.716  13.302 -0.5929  0.0853 -0.0670
 4941TIP3    H136314   1.582   0.726  13.222 -0.3414  0.4402 -0.1893
 4941TIP3    H236315   1.719   0.757  13.281 -0.0561 -0.9942 -0.0761
 4942TIP3   OH236316   1.264   5.305  12.748  0.3831  0.5639  0.2431
 4942TIP3    H136317   1.353   5.280  12.772  0.2381  1.5612  1.9623
 4942TIP3    H236318   1.231   5.230  12.698  1.5520 -0.6080  1.1574
 4943TIP3   OH236319   3.771   5.396  14.123 -0.4246 -0.5090  0.6114
 4943TIP3    H136320   3.859   5.413  14.157 -0.6666  3.5717 -0.2771
 4943TIP3    H236321   3.714   5.402  14.200 -0.3000  1.9509  0.6103
 4944TIP3   OH236322   5.451   4.099  11.112  0.5104 -0.2009 -0.0693
 4944TIP3    H136323   5.359   4.119  11.130  0.7898  0.7266  0.4076
 4944TIP3    H236324   5.456   4.004  11.110 -0.1810 -0.2859  1.3967
 4945TIP3   OH236325   3.838   3.131  12.702  0.2842 -0.0907 -0.2555
 4945TIP3    H136326   3.872   3.045  12.677  0.0959  0.6617 -3.5623
 4945TIP3    H236327   3.915   3.189  12.700 -0.1512  0.4914 -1.9084
 4946TIP3   OH236328   3.207   6.418  12.770 -0.0726 -0.0787 -0.0668
 4946TIP3    H136329   3.170   6.376  12.692  1.2160 -1.0337 -0.2007
 4946TIP3    H236330   3.299   6.392  12.770 -0.2743 -1.0723  2.3921
 4947TIP3   OH236331   4.081   5.653  11.235 -0.2204 -0.6919  0.0563
 4947TIP3    H136332   4.150   5.660  11.300 -2.0915 -1.2864  2.2059
 4947TIP3    H236333   4.113   5.588  11.173  1.5666 -0.1797  0.3901
 4948TIP3   OH236334   5.309   0.390  15.563 -0.2608  0.0015  0.1279
 4948TIP3    H136335   5.389   0.440  15.548 -0.2107 -0.0160  0.3289
 4948TIP3    H236336   5.313   0.366  15.656  0.3495 -1.5057 -0.2682
 4949TIP3   OH236337   5.960   4.744   2.730 -0.5501 -0.8989 -0.2138
 4949TIP3    H136338   6.027   4.697   2.681  0.3401 -0.5829  0.6572
 4949TIP3    H236339   5.930   4.813   2.670  1.8146  0.6497  0.2350
 4950TIP3   OH236340   1.955   0.651  13.915 -0.1782 -0.4741  0.1715
 4950TIP3    H136341   1.918   0.585  13.974 -0.3570 -1.5112 -1.0557
 4950TIP3    H236342   2.012   0.602  13.857 -1.6169  0.1568 -1.8700
 4951TIP3   OH236343   5.516   5.067  15.267  0.6250 -0.4620  0.2369
 4951TIP3    H136344   5.421   5.056  15.254  0.7361  0.3321 -1.3854
 4951TIP3    H236345   5.525   5.155  15.305  0.6968 -0.7413  0.8903
 4952TIP3   OH236346   6.614   6.018   4.341 -0.3322  0.3106 -0.6156
 4952TIP3    H136347   6.560   6.068   4.402  0.5295 -0.4077  0.7924
 4952TIP3    H236348   6.591   6.053   4.255 -1.5737  1.3762  0.1019
 4953TIP3   OH236349   0.798   1.881   2.413 -0.1679  0.4930 -0.1244
 4953TIP3    H136350   0.820   1.958   2.465 -2.9687  1.4124 -0.1467
 4953TIP3    H236351   0.707   1.862   2.435  0.2902 -2.5921 -0.4544
 4954TIP3   OH236352   0.248   3.604  13.431 -0.3376  0.3040 -0.1714
 4954TIP3    H136353   0.170   3.645  13.392 -0.7930  0.2492  0.6671
 4954TIP3    H236354   0.286   3.672  13.486 -0.1649  0.1274 -0.0714
 4955TIP3   OH236355   4.602   0.335  16.308 -0.0305 -0.3712 -0.3099
 4955TIP3    H136356   4.593   0.296  16.395 -2.1175  0.2722 -0.1950
 4955TIP3    H236357   4.585   0.263  16.248  0.5569 -0.6175 -0.1925
 4956TIP3   OH236358   4.013   2.461  14.314  0.8022  0.4678  0.3500
 4956TIP3    H136359   4.070   2.474  14.238  0.0312  0.3315 -0.2624
 4956TIP3    H236360   3.927   2.441  14.277  0.8122 -1.5119  1.2496
 4957TIP3   OH236361   0.064   1.875  14.550 -0.6599  0.1062  0.1891
 4957TIP3    H136362  -0.031   1.862  14.556 -0.4664 -1.1888  0.8052
 4957TIP3    H236363   0.088   1.911  14.636 -0.5345 -0.0835  0.2361
 4958TIP3   OH236364   6.331   3.881   0.040 -0.0355 -0.6447  0.3035
 4958TIP3    H136365   6.426   3.870   0.051  0.1511 -2.6302 -2.2522
 4958TIP3    H236366   6.294   3.809   0.090 -0.0126 -1.1660 -0.4015
 4959TIP3   OH236367   0.395   6.669  16.282 -0.4090  0.1005  0.3712
 4959TIP3    H136368   0.485   6.644  16.302 -0.3179  1.3753  1.8430
 4959TIP3    H236369   0.376   6.740  16.344 -1.8833  0.9711 -0.9990
 4960TIP3   OH236370   2.853   3.262   4.858 -0.5986 -0.5805  0.3349
 4960TIP3    H136371   2.816   3.349   4.841  0.1362  0.2484  2.5880
 4960TIP3    H236372   2.798   3.203   4.808 -1.8420  1.0848 -0.3725
 4961TIP3   OH236373   4.752   6.487  10.900  0.4033 -0.0201 -0.5585
 4961TIP3    H136374   4.783   6.555  10.840 -1.5693  1.4864  0.0324
 4961TIP3    H236375   4.657   6.496  10.899  0.2637 -0.1219  2.5516
 4962TIP3   OH236376   0.174   4.710   4.813  0.0160 -0.0438  0.4248
 4962TIP3    H136377   0.099   4.654   4.792  0.3436 -0.6518  0.8577
 4962TIP3    H236378   0.146   4.759   4.890 -0.2710  0.4096  0.0455
 4963TIP3   OH236379   1.495   5.303  11.973  0.2199 -0.0440  0.2161
 4963TIP3    H136380   1.534   5.361  12.038 -0.8651 -0.1935  1.0264
 4963TIP3    H236381   1.454   5.362  11.909  0.0761  0.0928  0.4340
 4964TIP3   OH236382   3.847   1.521   2.005  0.5312  0.0572  0.7526
 4964TIP3    H136383   3.810   1.515   2.093  0.4666  2.5966  0.9893
 4964TIP3    H236384   3.783   1.574   1.956  1.2765 -0.0740 -0.4064
 4965TIP3   OH236385   3.069   5.130   0.255  0.2587 -0.5042  0.0342
 4965TIP3    H136386   3.060   5.146   0.349 -0.3690 -0.7410  0.0158
 4965TIP3    H236387   3.023   5.203   0.214  2.7175  1.0563 -0.1546
 4966TIP3   OH236388   5.658   4.160   3.258  0.2592 -0.3858  0.1320
 4966TIP3    H136389   5.682   4.129   3.345  0.0636 -0.0224  0.3187
 4966TIP3    H236390   5.566   4.183   3.265 -0.1313 -1.6376 -0.5438
 4967TIP3   OH236391   4.592   3.021  11.654 -0.3027  0.3129  0.3632
 4967TIP3    H136392   4.686   3.040  11.648 -0.5453  1.4882  0.0503
 4967TIP3    H236393   4.559   3.084  11.718 -0.4997 -1.6893  2.3792
 4968TIP3   OH236394   1.202   6.089  15.540  0.4394  0.4086  0.2978
 4968TIP3    H136395   1.122   6.142  15.534 -0.1505 -0.5615 -0.9315
 4968TIP3    H236396   1.237   6.089  15.450  0.0493 -1.8029  0.0912
 4969TIP3   OH236397   0.136   1.981  12.567  0.8285  0.0356 -0.3368
 4969TIP3    H136398   0.204   1.954  12.506 -0.5184 -0.4278 -1.6654
 4969TIP3    H236399   0.162   2.070  12.593  1.5206  0.1608 -1.4137
 4970TIP3   OH236400   1.803   5.438   1.875 -0.6304  0.1512 -0.1701
 4970TIP3    H136401   1.863   5.471   1.808 -0.4662 -0.3946 -0.3005
 4970TIP3    H236402   1.848   5.362   1.912 -1.4110 -0.5126 -0.5535
 4971TIP3   OH236403   1.916   2.387   4.025  0.7026 -0.0636  1.1699
 4971TIP3    H136404   1.927   2.438   3.945  1.4082 -2.6007 -0.4653
 4971TIP3    H236405   1.847   2.324   4.004  3.0757 -2.9309  1.2699
 4972TIP3   OH236406   4.626   3.174   5.922 -0.0349 -0.6202  0.1652
 4972TIP3    H136407   4.644   3.098   5.977 -0.0759 -0.2081  0.7536
 4972TIP3    H236408   4.544   3.153   5.877 -0.5093 -0.5571  0.9908
 4973TIP3   OH236409   1.472   5.227   2.213 -0.7468 -0.5398 -0.0321
 4973TIP3    H136410   1.494   5.238   2.306 -0.5086 -0.0475 -0.1400
 4973TIP3    H236411   1.536   5.281   2.167 -1.4192 -0.0581 -0.4240
 4974TIP3   OH236412   4.347   5.694  13.665 -0.1362 -0.1292 -0.1287
 4974TIP3    H136413   4.375   5.631  13.731 -0.1612 -0.5577 -0.5278
 4974TIP3    H236414   4.402   5.771  13.681 -1.1814  0.3365  1.3599
 4975TIP3   OH236415   3.511   6.715  11.554 -0.2722 -0.4489  0.3364
 4975TIP3    H136416   3.597   6.743  11.585  0.0052 -1.2669  0.3236
 4975TIP3    H236417   3.468   6.796  11.526  0.1255  0.0874  1.2336
 4976TIP3   OH236418   5.238   5.350  16.217  0.6230  0.5308  0.3404
 4976TIP3    H136419   5.173   5.335  16.148  0.2342 -0.3840  0.8868
 4976TIP3    H236420   5.206   5.427  16.263  0.6684  0.9053 -0.2431
 4977TIP3   OH236421   3.496   1.662  16.627 -0.3598  0.0330  0.5557
 4977TIP3    H136422   3.500   1.757  16.613  0.8272 -0.2966 -1.9109
 4977TIP3    H236423   3.577   1.641  16.673 -0.6500  0.2044  1.1557
 4978TIP3   OH236424   1.068   6.546   2.960  0.1062  0.6774  0.6602
 4978TIP3    H136425   0.988   6.580   3.000  0.2365 -0.1072  1.6177
 4978TIP3    H236426   1.126   6.621   2.954 -0.8717  1.3770 -0.5261
 4979TIP3   OH236427   5.489   0.187  14.642  0.1676 -0.6588  0.1396
 4979TIP3    H136428   5.505   0.108  14.589  0.4932 -0.4788 -0.0339
 4979TIP3    H236429   5.573   0.204  14.684  0.1683 -0.2543 -0.0228
 4980TIP3   OH236430   4.122   0.919  15.581 -0.3130 -0.1833  0.2199
 4980TIP3    H136431   4.098   0.947  15.670  0.5182  1.9792 -0.1642
 4980TIP3    H236432   4.090   0.990  15.525  0.8587 -0.5921 -1.0024
 4981TIP3   OH236433   6.525   0.789   0.633  0.4024 -0.5727 -0.1478
 4981TIP3    H136434   6.613   0.821   0.616  0.1895 -0.5327 -1.2825
 4981TIP3    H236435   6.483   0.787   0.547 -0.7240 -0.5333  0.3707
 4982TIP3   OH236436   4.038   5.682  12.785  0.1164  0.3902  0.0054
 4982TIP3    H136437   4.075   5.770  12.775 -0.4034  0.6855  0.6378
 4982TIP3    H236438   4.046   5.663  12.878  0.4239 -0.3303 -0.1645
 4983TIP3   OH236439   3.381   6.386  16.271  0.8248  0.2217  0.6984
 4983TIP3    H136440   3.428   6.313  16.312  1.0949  0.3625  0.6425
 4983TIP3    H236441   3.309   6.345  16.224  1.1524 -0.0369  0.4199
 4984TIP3   OH236442   0.533   4.890   6.028  0.0192  0.0691 -0.0423
 4984TIP3    H136443   0.523   4.985   6.024  3.1925  0.5336  0.4914
 4984TIP3    H236444   0.618   4.876   6.070 -2.0156 -3.1452  3.6006
 4985TIP3   OH236445   1.232   0.046   5.931 -0.0737  0.3149  0.3804
 4985TIP3    H136446   1.233  -0.037   5.980  2.3479  0.0481  0.0036
 4985TIP3    H236447   1.267   0.110   5.992  0.7682  0.4515 -0.2313
 4986TIP3   OH236448   6.695   0.613  14.989 -0.2734  0.2152 -0.4271
 4986TIP3    H136449   6.700   0.695  14.939 -1.1128  0.6175  0.1297
 4986TIP3    H236450   6.683   0.641  15.080 -0.3478 -0.5223 -0.2067
 4987TIP3   OH236451   5.648   4.623   3.989  0.0079  0.7460  0.4045
 4987TIP3    H136452   5.681   4.680   3.919  2.7522 -1.5608 -0.3572
 4987TIP3    H236453   5.575   4.576   3.948  1.1287 -0.0596 -0.7519
 4988TIP3   OH236454   5.537   1.963   0.986  0.2006 -0.1947  0.3950
 4988TIP3    H136455   5.575   1.975   1.073 -0.7142  3.6069  0.4242
 4988TIP3    H236456   5.443   1.968   1.001 -0.0424 -1.1854 -0.6820
 4989TIP3   OH236457   4.323   2.430   1.388  0.1765  0.8888  0.4225
 4989TIP3    H136458   4.274   2.408   1.467  0.1844  1.5038  0.5992
 4989TIP3    H236459   4.337   2.524   1.393 -0.1966  1.0082 -0.5134
 4990TIP3   OH236460   1.126   4.127   2.012 -0.2571  0.0702 -0.4528
 4990TIP3    H136461   1.117   4.187   2.086 -1.2653  1.1457 -1.4213
 4990TIP3    H236462   1.220   4.123   1.997 -0.0608  0.1371  0.6286
 4991TIP3   OH236463   1.091   6.540  14.604  0.2482  0.1392 -0.3014
 4991TIP3    H136464   1.081   6.454  14.562  0.4478 -0.4689  0.8477
 4991TIP3    H236465   1.182   6.541  14.634 -0.2833 -0.0786  1.4143
 4992TIP3   OH236466   2.687   6.551   0.661 -0.1814  0.2831 -0.2698
 4992TIP3    H136467   2.711   6.642   0.676  0.6992 -0.0623  0.4993
 4992TIP3    H236468   2.595   6.546   0.686  0.3086  0.5209  1.7516
 4993TIP3   OH236469   0.368   5.445  12.040 -0.0317 -0.1199 -0.0904
 4993TIP3    H136470   0.328   5.474  11.958 -0.3177  0.4844  0.2573
 4993TIP3    H236471   0.336   5.355  12.051 -1.7176  0.5128  0.4278
 4994TIP3   OH236472   5.901   3.146   1.560  0.0508  0.0243  0.3135
 4994TIP3    H136473   5.949   3.227   1.575  0.0001 -0.0992  1.2033
 4994TIP3    H236474   5.843   3.138   1.636 -1.1148 -0.0239 -0.5538
 4995TIP3   OH236475   1.654   3.120  12.215 -0.3754 -1.1947 -0.6522
 4995TIP3    H136476   1.599   3.091  12.288 -1.3906  0.0034 -0.9120
 4995TIP3    H236477   1.666   3.214  12.230  1.7371 -1.4344 -0.5394
 4996TIP3   OH236478   2.448   2.003  15.233 -0.6591 -0.2725 -0.4269
 4996TIP3    H136479   2.360   2.015  15.198 -0.3127 -1.8897 -1.9923
 4996TIP3    H236480   2.504   1.994  15.156  0.7757 -0.0224  0.5398
 4997TIP3   OH236481   4.355   3.973   0.138 -0.2577  0.6047 -0.2490
 4997TIP3    H136482   4.269   3.972   0.097 -1.3320  1.7927  1.8121
 4997TIP3    H236483   4.340   3.946   0.228  2.0082 -1.9100 -0.5004
 4998TIP3   OH236484   4.746   1.819  14.030  0.0636 -0.2928 -0.0761
 4998TIP3    H136485   4.783   1.844  14.114  0.2033 -1.0396  0.0913
 4998TIP3    H236486   4.652   1.838  14.038 -0.6389 -3.6449  1.6028
 4999TIP3   OH236487   2.856   1.671  16.009  0.2460 -0.2555 -0.0798
 4999TIP3    H136488   2.844   1.602  15.944 -0.2366 -1.4039  1.1691
 4999TIP3    H236489   2.865   1.751  15.958 -0.0934 -1.1111 -1.5462
 5000TIP3   OH236490   5.128   2.768  14.456 -0.0676 -0.1329 -0.3411
 5000TIP3    H136491   5.091   2.823  14.386  0.7480  1.3997  0.3742
 5000TIP3    H236492   5.072   2.784  14.532  1.1204  1.0534  0.3331
 5001TIP3   OH236493   4.378   5.027  16.710  0.1597 -0.5682 -0.7111
 5001TIP3    H136494   4.450   5.080  16.744 -0.6832 -0.2295  0.6507
 5001TIP3    H236495   4.371   4.954  16.771 -0.8999 -0.3720 -0.5731
 5002TIP3   OH236496   2.769   0.281  11.725 -0.0644  0.1357  0.4155
 5002TIP3    H136497   2.820   0.201  11.730  0.0631  0.2794  1.7497
 5002TIP3    H236498   2.785   0.326  11.808 -1.2754  0.8457  0.2989
 5003TIP3   OH236499   2.256   0.559   5.616 -0.3783  0.2387 -0.0795
 5003TIP3    H136500   2.240   0.631   5.555 -3.4061  0.9782  1.4108
 5003TIP3    H236501   2.294   0.600   5.693  0.1026 -0.1438 -0.1054
 5004TIP3   OH236502   1.735   5.090   3.660  0.2312  0.3563 -0.4470
 5004TIP3    H136503   1.640   5.100   3.666  0.1755  1.1002 -2.0403
 5004TIP3    H236504   1.748   5.001   3.629  0.0420  0.3641 -0.5493
 5005TIP3   OH236505   5.328   6.081   2.055 -0.0565  0.5712  0.3551
 5005TIP3    H136506   5.372   6.119   1.979 -2.5179  0.2599 -1.3220
 5005TIP3    H236507   5.346   5.988   2.050 -1.7974  0.2583 -1.0582
 5006TIP3   OH236508   2.174   6.136  13.294 -0.0297 -0.1886 -0.2591
 5006TIP3    H136509   2.101   6.171  13.243  0.0705 -0.6228 -0.7156
 5006TIP3    H236510   2.248   6.193  13.272 -0.6684  1.5348  1.7851
 5007TIP3   OH236511   0.857   6.381   1.421  0.7408  0.6285 -0.2569
 5007TIP3    H136512   0.889   6.430   1.496 -0.8409  2.4092 -0.6887
 5007TIP3    H236513   0.927   6.318   1.403  2.1561  1.6637  1.2873
 5008TIP3   OH236514   3.049   1.448   3.914  0.7208 -0.4699  0.0512
 5008TIP3    H136515   3.006   1.513   3.969  0.6293 -0.8907  0.4871
 5008TIP3    H236516   3.127   1.492   3.879  0.9976 -0.3262  0.8473
 5009TIP3   OH236517   6.175   1.853   2.822 -0.2024 -0.2399 -0.2561
 5009TIP3    H136518   6.243   1.868   2.889 -1.2961  3.0202  0.2992
 5009TIP3    H236519   6.197   1.768   2.785  2.8969 -0.3202  1.3985
 5010TIP3   OH236520   3.750   2.086  15.033  0.3842 -0.5466  0.1673
 5010TIP3    H136521   3.760   1.992  15.013 -0.2328 -0.7867  0.9249
 5010TIP3    H236522   3.768   2.130  14.951  0.8751 -1.3277 -0.1533
 5011TIP3   OH236523   5.244   5.041  15.183 -0.0407 -0.0052 -0.1580
 5011TIP3    H136524   5.253   5.107  15.114  1.8034 -2.6366 -2.6821
 5011TIP3    H236525   5.188   4.974  15.145  0.8799 -1.4624  0.9504
 5012TIP3   OH236526   0.765   0.699  11.279 -0.4758 -0.0704 -0.0520
 5012TIP3    H136527   0.782   0.781  11.233  1.7390  0.4663  1.5466
 5012TIP3    H236528   0.808   0.632  11.226  1.9509  0.5238  1.0241
 5013TIP3   OH236529   4.072   5.142   0.137 -0.1550  0.2355 -0.3369
 5013TIP3    H136530   4.046   5.213   0.195  0.1968  0.4943 -0.4962
 5013TIP3    H236531   4.026   5.065   0.172 -1.0827  0.6674 -0.5805
 5014TIP3   OH236532   4.525   2.998  15.834  0.4818  0.5180  0.0121
 5014TIP3    H136533   4.477   2.916  15.822  0.3934  0.5990 -0.1882
 5014TIP3    H236534   4.606   2.985  15.786 -0.2283  1.1576 -1.4412
 5015TIP3   OH236535   5.065   0.561  16.113  0.1409 -0.0777  0.6566
 5015TIP3    H136536   5.057   0.519  16.199  0.6348 -1.4783  0.0476
 5015TIP3    H236537   5.007   0.637  16.118  2.7728  1.9932  3.4429
 5016TIP3   OH236538   5.224   1.808   0.724 -0.7156  0.4688 -0.4031
 5016TIP3    H136539   5.277   1.883   0.698  1.2035 -0.8714 -0.5544
 5016TIP3    H236540   5.135   1.843   0.732  0.2189  2.8843  0.1947
 5017TIP3   OH236541   2.558   1.980   3.313 -0.1410  0.0341  0.1054
 5017TIP3    H136542   2.475   1.933   3.298 -0.5345  0.9073 -0.5320
 5017TIP3    H236543   2.608   1.964   3.233 -1.1020  2.3456 -1.0530
 5018TIP3   OH236544   1.373   0.129   2.789 -0.0570  0.5619  0.4969
 5018TIP3    H136545   1.296   0.102   2.839 -0.0279 -0.2909  0.0937
 5018TIP3    H236546   1.380   0.065   2.718  0.2307  1.4238 -0.2761
 5019TIP3   OH236547   5.853   5.354   0.601  0.3233  0.1807 -0.0480
 5019TIP3    H136548   5.770   5.383   0.639 -2.1086 -2.7431 -2.5410
 5019TIP3    H236549   5.849   5.386   0.510  1.5822 -0.6641 -0.4146
 5020TIP3   OH236550   1.290   0.231  11.104  0.0573 -0.5472 -0.1179
 5020TIP3    H136551   1.205   0.217  11.145  0.2007 -0.1792  0.3235
 5020TIP3    H236552   1.347   0.165  11.144  0.2034 -0.1719  0.3104
 5021TIP3   OH236553   5.554   0.951  11.109  0.7470  0.0264 -0.0385
 5021TIP3    H136554   5.603   0.869  11.098  1.0475  0.3661 -1.3769
 5021TIP3    H236555   5.557   0.993  11.023 -2.0515 -0.0050 -0.2430
 5022TIP3   OH236556   5.945   6.557   2.725  0.2175 -0.3744  0.1352
 5022TIP3    H136557   5.902   6.635   2.760  0.6325  0.0322 -0.2498
 5022TIP3    H236558   5.873   6.500   2.698 -0.1048 -0.5264  1.2632
 5023TIP3   OH236559   6.701   5.586   3.895  0.0899  0.0971  0.2172
 5023TIP3    H136560   6.724   5.678   3.883  0.9057  0.1489  1.8516
 5023TIP3    H236561   6.681   5.578   3.988 -1.2086 -1.1307 -0.1333
 5024TIP3   OH236562   1.228   6.110  15.271 -0.2138 -0.0875  0.0110
 5024TIP3    H136563   1.225   6.036  15.211 -0.2472  0.7405 -1.0433
 5024TIP3    H236564   1.296   6.167  15.236 -0.3885  0.5198  0.6349
 5025TIP3   OH236565   0.729   2.523  15.752 -0.1205  0.0205 -0.4939
 5025TIP3    H136566   0.693   2.481  15.674 -3.4083  0.2244  0.7601
 5025TIP3    H236567   0.707   2.616  15.741  1.1004  0.3587 -0.1785
 5026TIP3   OH236568   5.291   6.797  14.257  0.3780 -0.2842  0.0667
 5026TIP3    H136569   5.331   6.826  14.339  0.7869 -0.9981  0.1292
 5026TIP3    H236570   5.318   6.705  14.248  0.9951  0.0049 -1.2647
 5027TIP3   OH236571   4.778   5.732  14.170 -0.2539 -0.1742 -0.1543
 5027TIP3    H136572   4.769   5.784  14.250  1.4630 -0.6350  0.3771
 5027TIP3    H236573   4.688   5.704  14.150 -1.3302  3.1469 -0.6490
 5028TIP3   OH236574   1.458   6.554  12.848  0.3606 -0.1976 -0.1698
 5028TIP3    H136575   1.443   6.521  12.759 -0.3285  1.1443 -0.5902
 5028TIP3    H236576   1.539   6.605  12.840  1.3129 -1.5830  0.4230
 5029TIP3   OH236577   3.656   5.441   5.470  0.0969  0.0251 -0.1738
 5029TIP3    H136578   3.616   5.414   5.387 -0.3887 -1.5731  0.5551
 5029TIP3    H236579   3.623   5.529   5.485  0.8607  0.6857 -2.0812
 5030TIP3   OH236580   0.395   4.184  12.420 -0.1337 -0.1988 -0.0949
 5030TIP3    H136581   0.449   4.234  12.359  0.5516  0.5704  1.1082
 5030TIP3    H236582   0.307   4.220  12.410  0.4924  1.8279  1.3121
 5031TIP3   OH236583   5.532   4.190   0.137 -0.0154  0.1097  0.4841
 5031TIP3    H136584   5.517   4.165   0.046  2.0256  3.9858 -1.1399
 5031TIP3    H236585   5.604   4.135   0.166 -0.1693 -0.6326 -0.5085
 5032TIP3   OH236586   3.380   4.038  13.346  0.1910  0.4191 -0.2013
 5032TIP3    H136587   3.345   4.088  13.420 -0.0018 -0.5162  0.3541
 5032TIP3    H236588   3.402   3.952  13.383  0.9310  0.2347 -1.0406
 5033TIP3   OH236589   4.409   3.870   0.773  0.0338  0.6515  0.0838
 5033TIP3    H136590   4.407   3.855   0.867 -2.1813 -0.3078 -0.0449
 5033TIP3    H236591   4.408   3.782   0.735 -1.2524  1.0203 -0.7903
 5034TIP3   OH236592   1.681   3.197  11.866 -0.4438 -0.1662  0.0037
 5034TIP3    H136593   1.767   3.193  11.908  0.0757  0.0771 -1.0064
 5034TIP3    H236594   1.640   3.114  11.888  0.7101 -0.9939 -0.8538
 5035TIP3   OH236595   6.430   2.933   3.707  0.5762 -0.5701  0.0661
 5035TIP3    H136596   6.498   2.879   3.668  0.7043 -0.6112  0.3420
 5035TIP3    H236597   6.435   3.016   3.659  0.1070 -0.9389 -0.6306
 5036TIP3   OH236598   4.757   3.384  11.579 -0.2463 -0.4181 -0.2171
 5036TIP3    H136599   4.670   3.423  11.585 -0.4391 -1.0044  1.1178
 5036TIP3    H236600   4.798   3.428  11.504 -1.8561 -0.4978 -1.1843
 5037TIP3   OH236601   1.910   0.233  15.016 -0.5055 -1.1446 -0.5767
 5037TIP3    H136602   1.991   0.245  15.066 -1.7811  0.1537  1.3543
 5037TIP3    H236603   1.906   0.309  14.958 -1.1223 -0.2764  0.5623
 5038TIP3   OH236604   2.931   1.737  17.209  0.3685 -0.3924 -0.0360
 5038TIP3    H136605   2.850   1.784  17.228  2.2456  2.4835  1.7518
 5038TIP3    H236606   2.945   1.748  17.115  0.1385  1.7575  0.1382
 5039TIP3   OH236607   5.230   0.215  13.906 -0.1198  0.0747 -0.0233
 5039TIP3    H136608   5.190   0.277  13.968 -0.7523  0.7334 -1.0572
 5039TIP3    H236609   5.212   0.129  13.944  0.3888  0.4960  1.2126
 5040TIP3   OH236610   0.097   3.323  16.015 -0.5101 -0.1398  0.0690
 5040TIP3    H136611   0.091   3.256  16.083 -0.3022 -0.9661 -0.7086
 5040TIP3    H236612   0.183   3.307  15.974 -1.8547 -1.6857 -2.4115
 5041TIP3   OH236613   0.900   1.556   4.366  0.1541  0.2237 -0.2010
 5041TIP3    H136614   0.939   1.468   4.365  0.3366  0.2926  0.3816
 5041TIP3    H236615   0.939   1.599   4.442 -2.4143 -0.3312  1.5788
 5042TIP3   OH236616   4.501   0.171   2.693 -0.3955 -0.0454  1.0068
 5042TIP3    H136617   4.537   0.083   2.701 -0.8252 -0.8902 -3.5777
 5042TIP3    H236618   4.577   0.229   2.701  0.1251 -0.8770  2.5053
 5043TIP3   OH236619   0.372   3.381  11.024  0.4278 -0.7091 -0.3355
 5043TIP3    H136620   0.357   3.287  11.038  1.1344 -1.0084 -1.4903
 5043TIP3    H236621   0.423   3.386  10.943  0.6175  0.6632 -0.1605
 5044TIP3   OH236622   1.359   0.584  14.447 -0.4461 -0.2472 -0.3547
 5044TIP3    H136623   1.279   0.636  14.443 -0.6265 -0.3601  1.2373
 5044TIP3    H236624   1.339   0.505  14.396 -0.3393  0.9576 -2.3525
 5045TIP3   OH236625   2.500   5.994  12.236  0.3471 -0.4635  0.9220
 5045TIP3    H136626   2.483   5.909  12.195  0.1917  0.3410 -0.7952
 5045TIP3    H236627   2.421   6.012  12.286 -0.4550 -0.4866 -0.2816
 5046TIP3   OH236628   1.892   3.268   5.885  0.2247 -0.5701 -0.3907
 5046TIP3    H136629   1.972   3.277   5.834  0.7495 -0.5005  0.4394
 5046TIP3    H236630   1.858   3.357   5.893 -1.6667 -0.8523 -3.4050
 5047TIP3   OH236631   5.967   3.752  16.726  0.1165  0.0527 -0.2625
 5047TIP3    H136632   5.911   3.689  16.682 -0.0604  0.1624 -0.1946
 5047TIP3    H236633   5.945   3.837  16.687  0.7268  0.0064 -0.7259
 5048TIP3   OH236634   6.035   0.941   0.227  0.0321 -0.2036  0.1496
 5048TIP3    H136635   6.001   0.991   0.153 -0.4667 -2.2444 -1.0893
 5048TIP3    H236636   6.121   0.979   0.244 -0.8912  1.9973  0.2590
 5049TIP3   OH236637   5.539   6.225   0.752 -0.3403 -0.6616  0.3632
 5049TIP3    H136638   5.593   6.226   0.673  0.7356  1.2773  1.0673
 5049TIP3    H236639   5.568   6.147   0.800  0.5294 -0.6571 -0.1370
 5050TIP3   OH236640   1.243   0.575   2.484  0.5006 -0.1147  0.0417
 5050TIP3    H136641   1.302   0.618   2.422  1.5510 -2.1529 -0.4346
 5050TIP3    H236642   1.289   0.496   2.511  0.0111  0.5820  3.3468
 5051TIP3   OH236643   1.104   5.671  11.055  0.5486  0.3367 -0.3334
 5051TIP3    H136644   1.032   5.628  11.101 -0.3908  1.7581 -0.3967
 5051TIP3    H236645   1.116   5.618  10.976  0.9660 -1.0776  0.6399
 5052TIP3   OH236646   3.637   6.448   5.010 -0.3273 -0.0187 -0.0089
 5052TIP3    H136647   3.732   6.443   5.001 -0.4407 -1.5292 -0.6207
 5052TIP3    H236648   3.603   6.397   4.937 -1.5553 -1.1837  1.3162
 5053TIP3   OH236649   1.155   0.480  12.160 -0.0664  0.2144  0.3205
 5053TIP3    H136650   1.197   0.411  12.109 -0.9892 -0.7747  0.8768
 5053TIP3    H236651   1.208   0.558  12.142  0.7848 -0.5463 -0.5887
 5054TIP3   OH236652   4.882   2.361  13.948 -0.0661  0.1987 -0.4900
 5054TIP3    H136653   4.951   2.361  14.014 -1.9055  1.5186  1.5818
 5054TIP3    H236654   4.862   2.454  13.935 -1.9076 -0.1501 -0.4408
 5055TIP3   OH236655   1.158   0.378   4.021  0.3095  0.1551 -0.0695
 5055TIP3    H136656   1.092   0.407   4.084  1.0630  2.8847 -0.4032
 5055TIP3    H236657   1.226   0.337   4.074  0.1563  0.9189  0.7388
 5056TIP3   OH236658   5.727   5.419   2.230 -0.4131  1.0131  0.0162
 5056TIP3    H136659   5.645   5.416   2.279 -0.0662  0.5070  0.5760
 5056TIP3    H236660   5.745   5.328   2.207 -1.0818  1.3135 -1.9619
 5057TIP3   OH236661   3.170   2.630  10.943  0.8948 -0.3478 -0.3497
 5057TIP3    H136662   3.200   2.690  10.875 -2.7020 -0.9991 -2.8011
 5057TIP3    H236663   3.218   2.549  10.927  0.4438 -0.3361 -1.8547
 5058TIP3   OH236664   6.666   1.414  15.632 -0.0756  0.0967 -0.4257
 5058TIP3    H136665   6.651   1.440  15.723  0.5766  2.4849 -0.9299
 5058TIP3    H236666   6.736   1.349  15.637 -0.0571  0.1887  0.7883
 5059TIP3   OH236667   4.785   0.156  14.265 -0.4900  0.5506 -0.2975
 5059TIP3    H136668   4.861   0.104  14.291  0.7049  2.3163 -0.1314
 5059TIP3    H236669   4.712   0.094  14.269  1.0010 -1.3884 -1.1374
 5060TIP3   OH236670   2.037   5.655   3.009 -0.0756  0.0342 -0.3542
 5060TIP3    H136671   2.031   5.609   3.092 -0.3762 -0.8445 -0.8420
 5060TIP3    H236672   2.128   5.645   2.981 -0.5555 -2.0557 -1.4073
 5061TIP3   OH236673   1.430   2.132  14.672  0.1156 -0.0720  0.4292
 5061TIP3    H136674   1.524   2.116  14.681  0.0208 -1.0570 -0.1504
 5061TIP3    H236675   1.405   2.081  14.594 -0.9825 -0.1942  0.8493
 5062TIP3   OH236676   4.817   6.718   3.821 -0.1075  0.8136  0.0152
 5062TIP3    H136677   4.831   6.730   3.728  0.6980 -0.4157 -0.0411
 5062TIP3    H236678   4.806   6.624   3.832 -0.8168  1.0003  1.0874
 5063TIP3   OH236679   1.965   4.544   1.004  0.3718  0.3624  0.4903
 5063TIP3    H136680   1.943   4.451   1.005 -1.5209  0.7185 -1.4622
 5063TIP3    H236681   1.895   4.586   1.053 -1.4163  1.1189 -2.4610
 5064TIP3   OH236682   3.780   5.414   2.489  0.4753  0.7155  0.2008
 5064TIP3    H136683   3.709   5.444   2.433 -0.2558 -0.1950  0.6074
 5064TIP3    H236684   3.787   5.320   2.471  1.9278  0.8917 -0.2034
 5065TIP3   OH236685   3.780   5.262  12.100  0.0907  0.3568  0.2088
 5065TIP3    H136686   3.799   5.168  12.096  1.4696  0.4213  2.8767
 5065TIP3    H236687   3.700   5.268  12.152 -0.3504  0.6579 -0.4888
 5066TIP3   OH236688   0.490   4.183  11.808  0.1346  0.5607 -0.3822
 5066TIP3    H136689   0.448   4.097  11.803 -1.1408  0.9912  1.5279
 5066TIP3    H236690   0.537   4.192  11.725 -0.5200 -1.5341 -1.0548
 5067TIP3   OH236691   0.712   3.418  11.504 -0.0393 -0.3525 -0.1759
 5067TIP3    H136692   0.677   3.427  11.416  0.3777 -0.6467 -0.3727
 5067TIP3    H236693   0.804   3.393  11.492  0.2170  0.2971  0.3370
 5068TIP3   OH236694   5.803   3.292  11.354 -0.3636 -0.2453 -0.2514
 5068TIP3    H136695   5.888   3.296  11.399 -1.5061  2.1824  1.9914
 5068TIP3    H236696   5.821   3.323  11.265  0.6392  4.5422  1.3080
 5069TIP3   OH236697   1.855   4.409  16.930  0.2391  0.0583  0.2505
 5069TIP3    H136698   1.794   4.361  16.873 -2.1196  2.0464  0.9287
 5069TIP3    H236699   1.883   4.484  16.877 -1.3621  1.4905  1.2921
 5070TIP3   OH236700   3.775   1.578   1.395 -0.1019  0.8165  0.2360
 5070TIP3    H136701   3.832   1.644   1.433  0.6990 -0.6550  1.6981
 5070TIP3    H236702   3.690   1.591   1.438  0.4523 -0.0074  1.6416
 5071TIP3   OH236703   3.620   0.976   0.296  0.0708 -0.4081 -0.0168
 5071TIP3    H136704   3.621   1.039   0.369 -0.0448 -0.3847 -0.0358
 5071TIP3    H236705   3.533   0.936   0.300 -0.4316  0.5597 -0.9702
 5072TIP3   OH236706   1.630   4.102  12.739  0.2147  0.0204  0.1120
 5072TIP3    H136707   1.577   4.030  12.773  0.1477  0.2303  0.4589
 5072TIP3    H236708   1.703   4.109  12.801  0.5169 -0.1081 -0.2271
 5073TIP3   OH236709   4.963   2.771   3.951  0.0425 -0.3525  0.0678
 5073TIP3    H136710   5.041   2.785   4.005  1.9279 -0.4614 -2.4263
 5073TIP3    H236711   4.914   2.853   3.958  1.1065  0.2606  0.6004
 5074TIP3   OH236712   2.398   4.371   0.394  0.3283  0.4435 -0.0275
 5074TIP3    H136713   2.482   4.331   0.417 -0.0417 -0.1051  0.4159
 5074TIP3    H236714   2.337   4.297   0.392 -0.0577  0.7690 -0.8042
 5075TIP3   OH236715   3.335   0.069   3.550 -0.1491 -0.0719  0.6804
 5075TIP3    H136716   3.314  -0.018   3.583 -0.7192  0.1086  0.8055
 5075TIP3    H236717   3.250   0.109   3.531  0.0069  1.0029  2.0296
 5076TIP3   OH236718   1.353   1.460   6.434 -0.4598 -0.2438  0.1815
 5076TIP3    H136719   1.318   1.385   6.481  3.2112 -2.0361  0.4211
 5076TIP3    H236720   1.354   1.433   6.342  0.5278 -0.3797  0.2216
 5077TIP3   OH236721   1.809   1.150   3.139 -0.3799 -0.4997 -0.4952
 5077TIP3    H136722   1.853   1.220   3.091 -0.2958 -0.5298 -0.4625
 5077TIP3    H236723   1.785   1.190   3.223 -1.1035 -0.2578 -0.8103
 5078TIP3   OH236724   4.423   1.232  16.763  0.4986 -0.1159  0.2312
 5078TIP3    H136725   4.514   1.208  16.775  0.0686 -1.7240  0.5442
 5078TIP3    H236726   4.405   1.216  16.670  0.1145 -1.5328  0.5113
 5079TIP3   OH236727   1.063   0.006  12.067 -0.1835 -0.0591  0.3641
 5079TIP3    H136728   1.005   0.082  12.063 -1.8206 -1.2352  0.6272
 5079TIP3    H236729   1.022  -0.052  12.131  1.7891 -0.5750  1.2359
 5080TIP3   OH236730   2.628   4.103   0.266 -0.1556 -0.3319  0.4139
 5080TIP3    H136731   2.673   4.176   0.224 -0.3020 -0.2057  0.4779
 5080TIP3    H236732   2.615   4.132   0.356 -0.5937 -0.2673  0.3317
 5081TIP3   OH236733   6.365   6.645   1.770  0.6613 -0.2675 -0.3305
 5081TIP3    H136734   6.282   6.602   1.751 -1.2693  3.3905 -1.1129
 5081TIP3    H236735   6.415   6.639   1.689  0.0652 -0.3399 -0.6956
 5082TIP3   OH236736   5.425   6.151   4.465 -0.6633  0.6659  0.5090
 5082TIP3    H136737   5.382   6.237   4.464 -0.3531  0.8180  0.0213
 5082TIP3    H236738   5.510   6.166   4.425 -0.3830  0.2416  0.9358
 5083TIP3   OH236739   6.700   4.877   0.085  0.2428 -0.0344  0.0600
 5083TIP3    H136740   6.654   4.803   0.125 -0.0132 -0.8742 -1.6947
 5083TIP3    H236741   6.691   4.948   0.149 -0.4733 -1.1750  1.2914
 5084TIP3   OH236742   2.381   6.543  16.323  0.1211  0.0514 -0.1467
 5084TIP3    H136743   2.348   6.624  16.362  3.3279  0.3694  2.2838
 5084TIP3    H236744   2.305   6.485  16.320 -1.7555  2.3431  0.1798
 5085TIP3   OH236745   3.616   6.280  14.656 -0.6055 -0.1793  0.2417
 5085TIP3    H136746   3.521   6.283  14.649 -0.5509 -1.0997 -1.2952
 5085TIP3    H236747   3.637   6.347  14.721 -2.3665 -0.8280  1.5645
 5086TIP3   OH236748   1.338   6.538  13.238  0.0325 -0.1115  0.7008
 5086TIP3    H136749   1.385   6.618  13.213 -0.0680 -0.4438 -0.6070
 5086TIP3    H236750   1.258   6.540  13.185  0.5758 -1.6506 -0.2399
 5087TIP3   OH236751   4.632   6.812   0.005 -0.3828  0.6196 -0.1041
 5087TIP3    H136752   4.594   6.739  -0.043  0.3216  0.2225 -0.0749
 5087TIP3    H236753   4.708   6.774   0.049 -0.9525  1.0014  1.2396
 5088TIP3   OH236754   3.530   6.345  10.353 -0.2013  0.2457  0.3823
 5088TIP3    H136755   3.507   6.278  10.417 -0.5882  1.4995  1.6048
 5088TIP3    H236756   3.580   6.409  10.403 -1.1920  1.6585 -0.3770
 5089TIP3   OH236757   4.608   5.721  11.122  0.2151 -0.3337  0.7083
 5089TIP3    H136758   4.526   5.720  11.073  0.4759 -1.0358  0.2773
 5089TIP3    H236759   4.651   5.802  11.094 -0.0654 -0.2604  0.4898
 5090TIP3   OH236760   2.182   5.437   3.575 -0.0703  0.3319 -0.4362
 5090TIP3    H136761   2.240   5.392   3.514  0.7602 -0.4387  0.8915
 5090TIP3    H236762   2.111   5.374   3.591  0.7098 -0.2588  0.8471
 5091TIP3   OH236763   0.451   5.811   1.815  0.4128  0.2282  0.5347
 5091TIP3    H136764   0.495   5.859   1.744  0.7768  1.8285  1.7765
 5091TIP3    H236765   0.510   5.738   1.835  1.9515  1.6262  1.3246
 5092TIP3   OH236766   5.301   3.869  11.664 -0.1808  0.3983  0.7485
 5092TIP3    H136767   5.266   3.880  11.575  1.8946 -2.0507 -0.4925
 5092TIP3    H236768   5.226   3.841  11.716 -0.9994 -0.4169 -0.8003
 5093TIP3   OH236769   4.049   3.978  14.611  0.0723 -0.4082 -0.4657
 5093TIP3    H136770   4.041   4.001  14.704  1.7308  0.9604 -0.6256
 5093TIP3    H236771   3.969   3.929  14.593 -0.5547 -0.2516  1.5470
 5094TIP3   OH236772   3.837   6.229  10.388  0.0301  0.0957 -0.4129
 5094TIP3    H136773   3.857   6.185  10.471 -1.5759  1.2062  0.6132
 5094TIP3    H236774   3.765   6.287  10.409 -1.3619 -0.6025 -2.9207
 5095TIP3   OH236775   1.344   4.821   4.191  0.1014  0.1862  0.2488
 5095TIP3    H136776   1.431   4.818   4.150 -0.7032  0.2916 -1.6010
 5095TIP3    H236777   1.333   4.734   4.229  1.3622  0.4659  1.3233
 5096TIP3   OH236778   2.002   3.877  15.235  0.1923 -0.7080 -0.2603
 5096TIP3    H136779   2.070   3.899  15.171  1.1745  0.1380  1.0228
 5096TIP3    H236780   1.920   3.881  15.185  0.8541  0.6445 -1.3110
 5097TIP3   OH236781   6.266   0.181  16.705 -0.0543  0.4410 -0.1617
 5097TIP3    H136782   6.258   0.087  16.723 -1.8049 -0.0220 -2.8357
 5097TIP3    H236783   6.204   0.222  16.765 -0.9762 -0.3749 -0.5285
 5098TIP3   OH236784   4.380   2.004   1.328 -0.2720  0.1088 -0.2308
 5098TIP3    H136785   4.298   2.046   1.353 -0.6520  0.2807 -1.7014
 5098TIP3    H236786   4.375   1.917   1.370 -0.8595  0.3806  0.2935
 5099TIP3   OH236787   6.460   0.053  17.001 -0.0103 -0.9969 -0.4816
 5099TIP3    H136788   6.433   0.145  16.998 -0.6743 -1.0105  2.2490
 5099TIP3    H236789   6.379   0.005  17.019  0.2550 -2.2104 -2.3174
 5100TIP3   OH236790   6.326   3.745   2.614 -0.0672  0.0881  0.1615
 5100TIP3    H136791   6.336   3.830   2.657  1.0321 -1.6511  3.8091
 5100TIP3    H236792   6.251   3.705   2.657 -1.8539 -0.1611 -2.9112
 5101TIP3   OH236793   0.746   6.380   2.650  0.0091  0.0771 -0.7124
 5101TIP3    H136794   0.791   6.306   2.610 -1.6374 -0.8427 -0.9387
 5101TIP3    H236795   0.716   6.346   2.735  0.5382  0.9735 -0.1448
 5102TIP3   OH236796   0.877   0.060  16.343 -0.1777  0.4079 -0.2165
 5102TIP3    H136797   0.930  -0.017  16.323  1.6879  1.2626  1.0985
 5102TIP3    H236798   0.865   0.104  16.259 -0.5336 -0.8441 -0.8458
 5103TIP3   OH236799   3.493   6.765   1.970 -0.7876 -0.0927  0.2131
 5103TIP3    H136800   3.496   6.860   1.963 -2.1960 -0.0307  0.2084
 5103TIP3    H236801   3.523   6.746   2.059 -1.2584  0.4059  0.4792
 5104TIP3   OH236802   5.342   3.019  10.944  0.4994 -0.1722  0.6986
 5104TIP3    H136803   5.250   3.043  10.960  0.5737  0.0265  0.8286
 5104TIP3    H236804   5.342   2.924  10.942  0.3784 -0.1863  1.2294
 5105TIP3   OH236805   4.973   2.986  10.591 -0.2261  0.3389  0.2995
 5105TIP3    H136806   4.901   2.960  10.534  0.3029  0.3700 -0.3911
 5105TIP3    H236807   5.038   3.023  10.532  1.1014 -1.2514  0.6826
 5106TIP3   OH236808   2.433   0.044  13.333  0.7559 -0.0919  0.1515
 5106TIP3    H136809   2.374  -0.031  13.335  1.0439 -0.3874 -1.2670
 5106TIP3    H236810   2.463   0.054  13.423  0.5690 -1.5666  0.3966
 5107TIP3   OH236811   4.227   6.017   0.419  0.0928 -0.0683 -0.1168
 5107TIP3    H136812   4.138   6.026   0.386  0.3710 -0.5856 -1.0389
 5107TIP3    H236813   4.233   5.927   0.450  0.8935 -0.6984 -1.9754
 5108TIP3   OH236814   3.710   3.990   1.020  0.6037 -0.3080 -0.3520
 5108TIP3    H136815   3.736   4.027   1.105  0.5400  1.8112 -1.1994
 5108TIP3    H236816   3.705   3.896   1.036 -1.8707  0.1566  2.6632
 5109TIP3   OH236817   1.351   4.576   2.200  0.9793 -0.4088  0.5346
 5109TIP3    H136818   1.445   4.558   2.195  0.6599 -2.3501  0.9507
 5109TIP3    H236819   1.311   4.510   2.144 -0.1155  1.0414 -0.4870
 5110TIP3   OH236820   5.798   2.521  14.988 -0.4665 -0.2137  0.1156
 5110TIP3    H136821   5.860   2.564  15.047 -0.4130  1.0499 -0.8324
 5110TIP3    H236822   5.801   2.572  14.908 -3.4582  0.5153  0.3469
 5111TIP3   OH236823   0.602   0.317  16.696 -0.1336 -0.5740  0.0708
 5111TIP3    H136824   0.694   0.337  16.712  0.1210 -1.2265 -0.5235
 5111TIP3    H236825   0.583   0.242  16.753 -1.1746  1.4303  2.5528
 5112TIP3   OH236826   4.859   4.045   1.810 -0.3820  0.0056 -0.1066
 5112TIP3    H136827   4.824   3.957   1.802 -0.1234 -0.1846  0.7197
 5112TIP3    H236828   4.787   4.102   1.783 -1.5636 -0.3460  2.0160
 5113TIP3   OH236829   4.896   6.321   2.182 -0.0365  0.4973  0.0082
 5113TIP3    H136830   4.888   6.325   2.086 -0.5500 -1.7784 -0.1139
 5113TIP3    H236831   4.921   6.410   2.208 -1.4851  1.6098 -2.0737
 5114TIP3   OH236832   4.157   5.294  10.874  0.1852 -0.1745 -0.4270
 5114TIP3    H136833   4.240   5.322  10.911  0.5033  2.1104 -2.6105
 5114TIP3    H236834   4.091   5.339  10.926  0.4462  0.0737 -0.3109
 5115TIP3   OH236835   0.126   4.017   4.415  0.4210 -0.2490 -0.5189
 5115TIP3    H136836   0.102   3.983   4.329 -0.4359 -0.0962 -0.3507
 5115TIP3    H236837   0.053   4.074   4.439  2.1085  2.3777 -1.1274
 5116TIP3   OH236838   5.907   0.691   4.537 -0.2303  0.4826 -0.4688
 5116TIP3    H136839   5.970   0.628   4.504  0.0806  0.6439 -0.1838
 5116TIP3    H236840   5.822   0.656   4.509 -0.1227 -0.4568  0.3248
 5117TIP3   OH236841   2.309   6.090   4.325 -0.1247 -0.0857 -0.2925
 5117TIP3    H136842   2.287   6.134   4.242  1.9339  3.3499  0.8051
 5117TIP3    H236843   2.230   6.098   4.378 -0.3943  0.6896 -0.7904
 5118TIP3   OH236844   3.572   3.695  13.295  0.0496 -0.0207 -0.3739
 5118TIP3    H136845   3.562   3.601  13.308 -0.2786  0.0012 -0.4727
 5118TIP3    H236846   3.499   3.719  13.238 -0.7406  0.5566  0.8370
 5119TIP3   OH236847   1.004   0.429   4.725  0.2153 -0.2012  0.0851
 5119TIP3    H136848   1.070   0.391   4.782 -0.0299 -0.1315  0.4161
 5119TIP3    H236849   0.997   0.520   4.753 -0.6458 -0.4259  0.6413
 5120TIP3   OH236850   5.521   4.784   2.293 -0.1046 -0.0501 -0.9303
 5120TIP3    H136851   5.547   4.693   2.277  0.2381 -0.2101  0.4535
 5120TIP3    H236852   5.599   4.835   2.272  1.0062 -0.4195  1.9082
 5121TIP3   OH236853   5.041   0.842  12.242 -0.5876  0.2243 -0.5470
 5121TIP3    H136854   5.125   0.888  12.233  0.7282 -2.3036 -2.8061
 5121TIP3    H236855   4.979   0.896  12.195  0.7642  0.1278 -2.5763
 5122TIP3   OH236856   5.070   5.518   3.749  0.1808 -0.1783 -0.3722
 5122TIP3    H136857   4.986   5.481   3.724 -0.8967  0.7085  1.7490
 5122TIP3    H236858   5.071   5.514   3.844  2.7482 -0.5608 -0.3466
 5123TIP3   OH236859   4.284   3.718  12.851 -0.2472  0.1852 -0.0544
 5123TIP3    H136860   4.342   3.792  12.866 -1.3888  1.3475 -1.2185
 5123TIP3    H236861   4.196   3.754  12.857 -0.8767 -1.3332  0.5819
 5124TIP3   OH236862   3.642   5.028   4.484  0.0524 -0.2717  0.1324
 5124TIP3    H136863   3.687   4.998   4.563 -0.7245 -2.0495 -0.0327
 5124TIP3    H236864   3.577   4.959   4.467 -1.8010  1.5105 -0.3898
 5125TIP3   OH236865   0.236   5.221  11.595  0.2907  0.5617  0.3911
 5125TIP3    H136866   0.224   5.250  11.505  1.1163  1.2859  0.5018
 5125TIP3    H236867   0.329   5.237  11.613  0.0906  0.6034  1.4329
 5126TIP3   OH236868   2.118   2.822  12.438 -0.8144 -0.1046 -0.4511
 5126TIP3    H136869   2.106   2.731  12.412  0.9453 -0.2116 -1.0306
 5126TIP3    H236870   2.041   2.868  12.405 -0.8663 -1.0819 -1.7269
 5127TIP3   OH236871   2.153   2.923  17.027 -0.4250  0.4898  0.2759
 5127TIP3    H136872   2.132   2.993  16.966  0.3856  1.4472  1.0458
 5127TIP3    H236873   2.218   2.869  16.981 -2.0238 -0.5688 -0.8300
 5128TIP3   OH236874   1.177   3.675   0.560 -0.2982  0.0037  0.0718
 5128TIP3    H136875   1.144   3.730   0.631  1.6027  0.0877  0.9466
 5128TIP3    H236876   1.122   3.697   0.485 -1.3405  1.0606  1.1015
 5129TIP3   OH236877   3.914   4.024   3.200 -0.0218  0.3894 -0.4890
 5129TIP3    H136878   3.914   4.108   3.246 -1.6179  0.3769 -0.4432
 5129TIP3    H236879   3.937   3.960   3.268 -0.1662  0.6204 -0.2220
 5130TIP3   OH236880   1.518   4.433  14.388  0.0074 -0.2533  0.2939
 5130TIP3    H136881   1.528   4.527  14.403 -1.2996  0.1049 -0.8909
 5130TIP3    H236882   1.551   4.393  14.468  1.1584  1.1768  0.5764
 5131TIP3   OH236883   2.439   1.818  16.023 -0.3529 -0.1667 -0.4875
 5131TIP3    H136884   2.430   1.912  16.032 -2.3154 -0.3771  0.4471
 5131TIP3    H236885   2.348   1.785  16.024  0.3033 -2.1247  0.1824
 5132TIP3   OH236886   0.618   1.289   5.880 -0.0535 -0.0327 -0.5165
 5132TIP3    H136887   0.702   1.335   5.872 -0.8187  1.1958 -2.2603
 5132TIP3    H236888   0.564   1.345   5.936 -0.8784  1.1470 -2.3817
 5133TIP3   OH236889   3.328   4.758   4.637 -0.1200  0.6857 -0.2253
 5133TIP3    H136890   3.295   4.819   4.571  0.0937  0.1288 -0.8596
 5133TIP3    H236891   3.343   4.676   4.589 -1.2621 -0.1575  0.7825
 5134TIP3   OH236892   6.704   5.886  14.638  0.1674 -0.3263 -0.2119
 5134TIP3    H136893   6.750   5.916  14.559 -1.4026 -0.0139 -1.0597
 5134TIP3    H236894   6.753   5.923  14.711 -0.1093  2.0719 -1.1502
 5135TIP3   OH236895   0.495   1.240  15.973 -0.2446  0.3376 -0.3526
 5135TIP3    H136896   0.477   1.149  15.949 -2.3465  0.0149  2.0164
 5135TIP3    H236897   0.430   1.261  16.041  1.5165  2.9324  0.7305
 5136TIP3   OH236898   3.390   5.817   5.187 -0.7880 -0.1925  0.1203
 5136TIP3    H136899   3.364   5.882   5.252 -2.2880 -1.2553  0.6272
 5136TIP3    H236900   3.427   5.868   5.115  1.3216  1.0026  1.9231
 5137TIP3   OH236901   2.506   3.339   3.119 -0.2221 -0.1630 -0.2328
 5137TIP3    H136902   2.420   3.342   3.161 -0.5369  3.3015 -0.7753
 5137TIP3    H236903   2.489   3.367   3.029  1.4692  0.7675 -0.3069
 5138TIP3   OH236904   4.120   5.355  10.213 -0.2010  0.3680  0.3503
 5138TIP3    H136905   4.125   5.450  10.225  1.6026  0.3740 -0.1454
 5138TIP3    H236906   4.211   5.326  10.218 -0.4030 -0.9805 -2.3266
 5139TIP3   OH236907   4.821   5.503   2.460 -0.1922 -0.5308  0.0742
 5139TIP3    H136908   4.792   5.570   2.521 -1.4405 -0.0182 -1.0319
 5139TIP3    H236909   4.804   5.541   2.373  1.4326 -1.2646 -0.6195
 5140TIP3   OH236910   1.871   4.584  16.709  0.0770  0.1273 -0.4945
 5140TIP3    H136911   1.863   4.559  16.617 -0.1750 -0.3776 -0.3422
 5140TIP3    H236912   1.945   4.645  16.711 -0.9526  1.4504 -1.2751
 5141TIP3   OH236913   2.834   3.258   5.727  1.1149 -0.2091  0.4368
 5141TIP3    H136914   2.883   3.180   5.754  2.1909 -0.5600 -2.2448
 5141TIP3    H236915   2.756   3.224   5.685  0.4446  0.2673  1.2600
 5142TIP3   OH236916   0.007   6.646   6.064  0.2457 -0.2576 -0.0294
 5142TIP3    H136917   0.018   6.739   6.081 -1.6020 -0.2177  1.1703
 5142TIP3    H236918  -0.083   6.627   6.089  0.5061 -2.3294 -0.4748
 5143TIP3   OH236919   2.004   4.996   1.687 -0.6551  0.5091  0.2845
 5143TIP3    H136920   2.058   4.937   1.635 -1.3446  1.1688 -1.2170
 5143TIP3    H236921   1.928   4.943   1.711  0.5269 -0.3881  2.3122
 5144TIP3   OH236922   1.955   6.804  16.862  0.4773 -0.3141 -0.6382
 5144TIP3    H136923   1.924   6.722  16.899  0.5667 -0.0324  0.0911
 5144TIP3    H236924   1.896   6.871  16.899  2.3938  0.3417  1.4976
 5145TIP3   OH236925   1.717   2.524   4.943 -0.1613  0.1033 -0.0776
 5145TIP3    H136926   1.729   2.601   4.999 -0.9915  1.7358 -1.9932
 5145TIP3    H236927   1.779   2.538   4.871 -1.0669 -0.4549 -0.9984
 5146TIP3   OH236928   4.965   4.284  15.820 -0.1963 -0.7447  0.1634
 5146TIP3    H136929   5.048   4.305  15.778 -0.1876 -0.2083  0.4323
 5146TIP3    H236930   4.923   4.369  15.833 -0.8924 -1.0245 -0.1794
 5147TIP3   OH236931   1.389   6.320   5.671  0.1734 -0.0847  0.2101
 5147TIP3    H136932   1.377   6.264   5.747  4.2786 -0.7138  0.6600
 5147TIP3    H236933   1.393   6.260   5.597 -0.0323  0.1076  0.0434
 5148TIP3   OH236934   5.578   2.212   2.059  0.7287  0.5733 -0.4329
 5148TIP3    H136935   5.556   2.179   2.146  0.7161  0.0778 -0.6199
 5148TIP3    H236936   5.674   2.214   2.058  0.8281 -1.4907 -1.1327
 5149TIP3   OH236937   2.420   6.609  10.510 -0.1655  0.0158  0.1103
 5149TIP3    H136938   2.506   6.585  10.477 -0.0780 -1.8939  1.5454
 5149TIP3    H236939   2.379   6.657  10.438  1.5446 -0.2797 -1.1229
 5150TIP3   OH236940   5.083   2.747   2.438  0.5114  0.0368 -0.3629
 5150TIP3    H136941   5.091   2.688   2.513 -0.0199  0.8960  0.3937
 5150TIP3    H236942   5.005   2.717   2.392 -0.3845  0.7592  0.6193
 5151TIP3   OH236943   0.129   3.168   4.442 -0.5640  0.2737  0.4102
 5151TIP3    H136944   0.207   3.168   4.386 -0.3924 -0.5735  0.6260
 5151TIP3    H236945   0.070   3.232   4.402 -0.9655 -1.1855 -1.4843
 5152TIP3   OH236946   6.090   0.723  11.654 -0.0157 -0.5554 -0.6466
 5152TIP3    H136947   6.119   0.813  11.666 -0.5338 -0.5510  0.7904
 5152TIP3    H236948   6.007   0.731  11.607 -1.0199 -0.1209  1.1079
 5153TIP3   OH236949   4.367   2.684  13.042  0.2347 -0.1407  0.1284
 5153TIP3    H136950   4.345   2.705  13.132 -0.1257  3.2845 -0.6449
 5153TIP3    H236951   4.452   2.726  13.027 -0.7923  1.4401 -1.7317
 5154TIP3   OH236952   0.281   6.089  10.467 -0.0282  0.2276  0.1396
 5154TIP3    H136953   0.232   6.007  10.459 -0.1142  0.3935 -1.2489
 5154TIP3    H236954   0.311   6.107  10.378 -0.0591  1.7340  0.4221
 5155TIP3   OH236955   4.926   4.072  13.461 -0.2494 -0.0808  0.3395
 5155TIP3    H136956   4.885   4.145  13.507 -1.0381 -1.5494  2.0405
 5155TIP3    H236957   5.000   4.048  13.516 -0.1120 -0.7095 -0.1108
 5156TIP3   OH236958   2.124   3.598  11.363  0.9832  0.0159  0.0979
 5156TIP3    H136959   2.042   3.616  11.316  0.5046 -0.6437  0.6595
 5156TIP3    H236960   2.116   3.647  11.445  1.8734  1.2680 -0.5348
 5157TIP3   OH236961   4.634   0.636  17.206  0.6438  0.0946 -0.0726
 5157TIP3    H136962   4.727   0.621  17.187  0.9200  3.0311 -1.6615
 5157TIP3    H236963   4.633   0.669  17.295  0.8292 -1.9375  0.7206
 5158TIP3   OH236964   0.817   3.859  15.294  0.4291  0.0996  0.0912
 5158TIP3    H136965   0.894   3.884  15.346  0.3191  0.6079  0.0136
 5158TIP3    H236966   0.853   3.830  15.210  0.5676 -0.1404  0.2332
 5159TIP3   OH236967   1.705   5.703   0.688  0.4055 -0.1085  0.0129
 5159TIP3    H136968   1.753   5.651   0.625  1.6572  0.3834  0.5287
 5159TIP3    H236969   1.668   5.775   0.637  1.0623  0.0605 -0.2304
 5160TIP3   OH236970   1.630   4.091  15.227  0.4590 -0.2862  0.2325
 5160TIP3    H136971   1.690   4.067  15.157  1.0097  1.0066  0.2180
 5160TIP3    H236972   1.544   4.097  15.185  0.3489 -1.8057  0.1797
 5161TIP3   OH236973   3.952   5.540   5.716 -0.7031 -0.0214 -0.5485
 5161TIP3    H136974   3.879   5.602   5.710  0.2060  1.0179 -1.2697
 5161TIP3    H236975   4.016   5.572   5.652  0.7522 -0.4162  0.6538
 5162TIP3   OH236976   2.195   1.634  15.918  0.4480  0.3702 -0.5699
 5162TIP3    H136977   2.129   1.590  15.865 -0.6402  1.9078 -0.5528
 5162TIP3    H236978   2.183   1.727  15.899  0.8533  0.8828  1.4433
 5163TIP3   OH236979   1.707   0.586   1.371 -0.6297  0.1126  0.3678
 5163TIP3    H136980   1.669   0.504   1.340 -1.1312 -0.5921  2.6101
 5163TIP3    H236981   1.791   0.592   1.326 -0.6383 -1.5841  0.0588
 5164TIP3   OH236982   2.345   4.752   0.396 -0.2567  0.1069  0.4996
 5164TIP3    H136983   2.357   4.685   0.464  2.3915 -0.1381 -0.1160
 5164TIP3    H236984   2.308   4.705   0.322  1.4019 -0.7060  0.1430
 5165TIP3   OH236985   6.617   5.821   0.903  0.1647  0.5816 -0.1954
 5165TIP3    H136986   6.567   5.867   0.970 -0.9869 -0.6884 -0.1399
 5165TIP3    H236987   6.699   5.798   0.946  1.5643  4.0261 -0.7388
 5166TIP3   OH236988   1.769   6.006  12.442 -0.2752  0.3544 -0.3632
 5166TIP3    H136989   1.770   6.099  12.421 -1.3889  0.4676  0.0389
 5166TIP3    H236990   1.729   6.001  12.528  1.7215 -0.3349  0.5790
 5167TIP3   OH236991   0.681   2.830   4.876  0.1864 -0.1120 -0.4893
 5167TIP3    H136992   0.618   2.893   4.912 -0.2598 -1.9123  2.1587
 5167TIP3    H236993   0.647   2.745   4.902  0.6950 -1.5899 -4.0353
 5168TIP3   OH236994   3.616   6.596   5.452  0.4129  0.2340  0.1438
 5168TIP3    H136995   3.702   6.581   5.413  0.4924  0.3794  0.2615
 5168TIP3    H236996   3.555   6.556   5.390  0.5247  0.6265 -0.2290
 5169TIP3   OH236997   2.893   0.972  16.385 -0.2113 -0.0823  0.2261
 5169TIP3    H136998   2.882   1.065  16.363  1.8900  0.1583  0.0214
 5169TIP3    H236999   2.843   0.961  16.466 -2.0368  0.7463 -0.7268
 5170TIP3   OH237000   1.942   1.888  12.972  1.1044 -0.3004 -0.6303
 5170TIP3    H137001   1.851   1.905  12.945  1.0430  1.9484  0.7196
 5170TIP3    H237002   1.934   1.833  13.050  0.5425  3.1143  1.9293
 5171TIP3   OH237003   4.659   2.323   5.586  0.1809 -0.3441 -0.0946
 5171TIP3    H137004   4.675   2.386   5.516  0.3827 -1.7133 -1.3443
 5171TIP3    H237005   4.690   2.366   5.666  0.9623  0.8400 -1.0099
 5172TIP3   OH237006   1.956   0.034  13.502 -0.5769  0.2614 -0.0815
 5172TIP3    H137007   1.945   0.059  13.411 -4.2891 -2.9869 -0.8397
 5172TIP3    H237008   1.875   0.063  13.545 -0.7211 -1.7352  1.1367
 5173TIP3   OH237009   0.627   5.626  12.274  0.7338 -0.2890  0.3133
 5173TIP3    H137010   0.709   5.592  12.311 -0.1534  0.3783  3.1939
 5173TIP3    H237011   0.593   5.685  12.341 -1.2614  0.8218 -1.5379
 5174TIP3   OH237012   4.711   3.648  13.689  0.7265  0.1974 -0.2968
 5174TIP3    H137013   4.708   3.683  13.778  0.8585  1.0849 -0.6245
 5174TIP3    H237014   4.797   3.605  13.683  1.8507  2.3631 -0.7589
 5175TIP3   OH237015   5.918   6.285   1.829 -0.5657 -0.0899 -0.4588
 5175TIP3    H137016   5.911   6.379   1.816  0.8344 -0.0697 -1.1647
 5175TIP3    H237017   5.998   6.259   1.784  0.5160 -1.2124  1.9265
 5176TIP3   OH237018   2.999   4.092  14.354 -0.8613 -0.0256  0.2585
 5176TIP3    H137019   3.039   4.005  14.355  0.9230  0.7625 -0.1395
 5176TIP3    H237020   2.911   4.078  14.390  0.1054 -1.6469  2.1759
 5177TIP3   OH237021   3.292   4.189  15.271 -0.0621  0.3347 -0.4404
 5177TIP3    H137022   3.300   4.264  15.330  0.8040 -0.8387  1.0112
 5177TIP3    H237023   3.215   4.142  15.302  1.4932 -1.3524  1.1319
 5178TIP3   OH237024   5.116   2.863  11.739 -0.2109 -0.1254  0.5032
 5178TIP3    H137025   5.055   2.919  11.788  0.7083  1.3223  0.0483
 5178TIP3    H237026   5.106   2.776  11.779 -1.3857  0.4388  1.4955
 5179TIP3   OH237027   5.898   1.685  10.948 -0.0273 -0.0041  0.0038
 5179TIP3    H137028   5.876   1.646  11.033  1.1945 -0.1965  0.2497
 5179TIP3    H237029   5.993   1.677  10.942 -0.2087 -1.1388 -1.9589
 5180TIP3   OH237030   6.004   2.750   5.876  0.2690  0.2094  0.2476
 5180TIP3    H137031   6.083   2.765   5.929  0.0968 -0.0142  0.5695
 5180TIP3    H237032   5.950   2.692   5.929 -0.2465  0.5973  0.1594
 5181TIP3   OH237033   3.791   4.416  17.185  0.0861  0.5420  0.0030
 5181TIP3    H137034   3.709   4.462  17.169 -0.7307 -0.4734  1.1367
 5181TIP3    H237035   3.776   4.366  17.265  1.0357 -1.4156 -0.9686
 5182TIP3   OH237036   1.593   6.153   2.572 -0.2390 -0.5317 -0.3268
 5182TIP3    H137037   1.669   6.209   2.556 -0.0496 -0.9059 -0.8026
 5182TIP3    H237038   1.526   6.186   2.513  0.2598 -1.5295 -1.5031
 5183TIP3   OH237039   4.927   2.070  14.521  0.0787 -0.1774 -0.4895
 5183TIP3    H137040   4.948   1.977  14.512  1.4333  0.1910 -1.6421
 5183TIP3    H237041   5.010   2.115  14.501 -0.9288  1.3147 -1.5369
 5184TIP3   OH237042   0.882   3.192   1.475 -0.2822 -0.4312 -0.2741
 5184TIP3    H137043   0.872   3.241   1.394  0.6886  1.3892  0.6561
 5184TIP3    H237044   0.877   3.258   1.545  0.4922 -1.7140  1.0629
 5185TIP3   OH237045   0.152   6.749  15.548 -0.2074  0.4444 -0.6640
 5185TIP3    H137046   0.202   6.830  15.553  2.1027 -1.0065  1.6978
 5185TIP3    H237047   0.217   6.681  15.532 -1.7523 -1.2670  0.0006
 5186TIP3   OH237048   5.898   4.782  15.950  0.2206  0.1255 -0.0361
 5186TIP3    H137049   5.932   4.696  15.974 -0.2853  0.0455  0.4074
 5186TIP3    H237050   5.976   4.838  15.943  0.5807 -0.4387 -0.6538
 5187TIP3   OH237051   4.831   4.539  15.836  0.4346  0.4944 -0.1189
 5187TIP3    H137052   4.766   4.592  15.881  1.1085 -0.7105  2.4358
 5187TIP3    H237053   4.844   4.584  15.752 -2.7382  1.4211 -0.2477
 5188TIP3   OH237054   4.975   0.162   4.262 -0.2915  0.5836 -0.2920
 5188TIP3    H137055   4.977   0.256   4.280  2.6038  0.5411 -0.0261
 5188TIP3    H237056   4.981   0.156   4.167  0.7351  0.6760 -0.2392
 5189TIP3   OH237057   6.392   1.906   2.525 -0.4935 -0.5818  0.5674
 5189TIP3    H137058   6.312   1.869   2.486 -0.4587  1.5693 -1.8114
 5189TIP3    H237059   6.383   2.000   2.512  1.0499  0.0062  3.1182
 5190TIP3   OH237060   1.526   3.457  16.569  0.1189 -0.1009 -0.0754
 5190TIP3    H137061   1.539   3.425  16.658  1.8393  1.7646  0.4270
 5190TIP3    H237062   1.453   3.518  16.575 -1.1350 -1.5096 -0.4138
 5191TIP3   OH237063   0.230   0.046  15.045 -0.5219 -0.1963 -0.4650
 5191TIP3    H137064   0.279   0.075  15.123 -2.3407  0.0961  0.6320
 5191TIP3    H237065   0.263  -0.041  15.027 -1.3660 -1.0913  1.8749
 5192TIP3   OH237066   0.460   2.658   5.784  0.1937  0.8303  0.0590
 5192TIP3    H137067   0.475   2.705   5.702 -1.5015  1.8796  0.3046
 5192TIP3    H237068   0.393   2.709   5.829 -1.1805 -1.4224  0.7090
 5193TIP3   OH237069   6.337   0.671   2.004  0.2072  0.3267 -0.0261
 5193TIP3    H137070   6.380   0.593   2.040 -0.9616 -1.3332 -2.0135
 5193TIP3    H237071   6.391   0.744   2.035  1.9151 -1.3113  1.1213
 5194TIP3   OH237072   1.933   2.798   6.379 -0.4343 -0.4915  0.4231
 5194TIP3    H137073   1.995   2.808   6.451 -1.3296  0.1212  1.1441
 5194TIP3    H237074   1.860   2.856   6.402 -0.3033  0.5159 -1.5024
 5195TIP3   OH237075   3.778   1.310   0.612 -0.1778  0.0687  0.4662
 5195TIP3    H137076   3.802   1.284   0.523  0.1169 -2.2716  1.1584
 5195TIP3    H237077   3.783   1.406   0.612  1.1851  0.0478 -1.6285
 5196TIP3   OH237078   2.374   4.256   3.037  0.2621  0.3725 -0.0248
 5196TIP3    H137079   2.295   4.227   3.083  0.4692 -1.3102 -0.6468
 5196TIP3    H237080   2.410   4.324   3.093 -0.6455 -0.1066  1.2099
 5197TIP3   OH237081   1.314   2.450   5.877 -0.1248 -0.0968  0.0273
 5197TIP3    H137082   1.272   2.488   5.800  1.6769 -2.4223 -2.2487
 5197TIP3    H237083   1.241   2.435   5.938 -1.6865  1.4115 -1.3361
 5198TIP3   OH237084   1.182   6.048   1.873  0.6398 -0.5396 -0.9473
 5198TIP3    H137085   1.172   6.030   1.780 -2.9148  0.4477 -0.8708
 5198TIP3    H237086   1.156   6.139   1.884  1.6781 -0.4093  0.9473
 5199TIP3   OH237087   2.257   3.414   1.045 -0.2784  0.1584 -0.6904
 5199TIP3    H137088   2.233   3.493   1.093 -2.2954  0.9663 -2.8266
 5199TIP3    H237089   2.176   3.387   1.002  0.4291 -2.9231 -0.3214
 5200TIP3   OH237090   0.883   5.738   1.715 -0.4618 -0.4358  0.1321
 5200TIP3    H137091   0.976   5.761   1.711 -0.9025  1.4803  0.3145
 5200TIP3    H237092   0.874   5.665   1.654  0.9155  0.2131 -0.8888
 5201TIP3   OH237093   0.659   4.622  12.807 -0.6605  0.0878 -0.4572
 5201TIP3    H137094   0.692   4.547  12.759  2.0395  0.5514  0.5106
 5201TIP3    H237095   0.666   4.695  12.746 -0.5150  0.0628 -0.4708
 5202TIP3   OH237096   2.362   6.328   3.486 -0.0279  0.0081 -0.2772
 5202TIP3    H137097   2.326   6.377   3.412  2.0742  1.0250 -0.6968
 5202TIP3    H237098   2.334   6.237   3.471  0.0807  0.2449 -2.1709
 5203TIP3   OH237099   4.319   0.890   6.035  0.0575 -0.3958  0.0927
 5203TIP3    H137100   4.290   0.821   6.094  0.0109 -0.1539  0.3534
 5203TIP3    H237101   4.254   0.890   5.964  0.1842 -0.7701 -0.0244
 5204TIP3   OH237102   1.834   4.076  16.996  0.2638 -0.0693  0.7642
 5204TIP3    H137103   1.811   4.099  16.906  3.3537 -0.1946 -0.1513
 5204TIP3    H237104   1.805   3.985  17.004  1.4890 -0.6388 -0.7380
 5205TIP3   OH237105   3.491   2.703  16.385 -0.0629 -0.1887 -0.7373
 5205TIP3    H137106   3.406   2.743  16.401 -0.1952 -0.5901 -0.4180
 5205TIP3    H237107   3.483   2.661  16.299 -0.9040 -2.0556  0.1956
 5206TIP3   OH237108   0.099   6.018   5.935  0.2547 -0.0534 -0.0853
 5206TIP3    H137109   0.044   6.031   5.858 -0.3918  0.9392  0.5225
 5206TIP3    H237110   0.050   5.955   5.989 -1.1448  2.0084  1.1941
 5207TIP3   OH237111   1.544   4.242  14.189 -0.3063  0.6435  0.1609
 5207TIP3    H137112   1.552   4.153  14.224  1.1701  0.7743  0.2442
 5207TIP3    H237113   1.566   4.299  14.262  0.6108  0.9971 -0.3719
 5208TIP3   OH237114   0.316   5.763   3.205  0.1282  0.2662  0.0872
 5208TIP3    H137115   0.274   5.678   3.189 -0.7060  1.2488 -3.9839
 5208TIP3    H237116   0.409   5.744   3.199 -0.0611 -0.2997 -1.8551
 5209TIP3   OH237117   6.408   4.265  10.936  0.0459 -0.0827  0.2024
 5209TIP3    H137118   6.401   4.246  10.843 -1.4181  0.7991  0.1101
 5209TIP3    H237119   6.386   4.358  10.944  2.3110  0.4460  1.1990
 5210TIP3   OH237120   0.042   5.192   5.291 -0.4533 -0.3308 -0.0988
 5210TIP3    H137121   0.076   5.132   5.357 -1.5033 -0.9738 -0.1098
 5210TIP3    H237122   0.006   5.135   5.223 -1.3124  0.3017 -0.1967
 5211TIP3   OH237123   4.782   1.968  13.506  0.4260 -0.4435 -0.3897
 5211TIP3    H137124   4.778   1.939  13.598 -0.1658  2.6868  0.6989
 5211TIP3    H237125   4.695   1.952  13.472 -0.1115  0.6246  0.4174
 5212TIP3   OH237126   6.824   2.400   0.984  0.5138 -0.2509  0.5893
 5212TIP3    H137127   6.762   2.463   1.021  0.4875  0.5863 -0.7816
 5212TIP3    H237128   6.904   2.452   0.969  1.2330 -1.0804  1.4288
 5213TIP3   OH237129   3.106   3.214  12.534 -0.3915  0.6204 -0.2768
 5213TIP3    H137130   3.192   3.228  12.496 -0.4138  1.8874  0.1163
 5213TIP3    H237131   3.046   3.260  12.476 -0.5324  1.7326  0.7233
 5214TIP3   OH237132   3.342   4.274   3.174  0.0100  0.2818 -0.8967
 5214TIP3    H137133   3.366   4.200   3.118  0.5219  1.2231 -1.9704
 5214TIP3    H237134   3.248   4.264   3.187  0.1683 -0.8927 -0.4959
 5215TIP3   OH237135   2.805   4.745  12.538  0.1686  0.2962  0.3292
 5215TIP3    H137136   2.873   4.806  12.509  0.6881  0.7240  2.3243
 5215TIP3    H237137   2.842   4.702  12.615 -0.8684 -1.3155 -0.0214
 5216TIP3   OH237138   3.275   1.885   4.426  0.1332  0.5743 -0.0380
 5216TIP3    H137139   3.202   1.824   4.416  0.0488  0.6822 -0.0880
 5216TIP3    H237140   3.242   1.953   4.484  0.4536  0.2202  0.5628
 5217TIP3   OH237141   3.809   2.476  11.057 -0.0672 -0.3423  0.5557
 5217TIP3    H137142   3.904   2.466  11.048 -0.1352 -0.6939  0.2115
 5217TIP3    H237143   3.772   2.412  10.996 -0.5332 -0.8014  1.3041
 5218TIP3   OH237144   0.639   4.903   4.686  0.1339  0.0569 -0.1263
 5218TIP3    H137145   0.578   4.896   4.759 -0.5741 -0.0137 -0.7230
 5218TIP3    H237146   0.648   4.814   4.653  0.3460  0.1107 -0.2168
 5219TIP3   OH237147   0.894   6.573   2.751  0.5224 -0.1966  0.3349
 5219TIP3    H137148   0.841   6.504   2.710  0.4596 -0.0245  0.1255
 5219TIP3    H237149   0.966   6.526   2.793  1.4602 -0.2678 -1.2744
 5220TIP3   OH237150   3.165   5.350   5.968  0.0162 -0.3333  0.2420
 5220TIP3    H137151   3.172   5.437   6.009  2.6564 -0.8875  1.1539
 5220TIP3    H237152   3.085   5.313   6.006  0.0860  0.8188  1.6330
 5221TIP3   OH237153   2.702   0.297  15.695  0.2955 -0.1590  0.1446
 5221TIP3    H137154   2.625   0.255  15.734  0.4155  0.6777  1.3426
 5221TIP3    H237155   2.764   0.304  15.767  1.7886 -1.4462 -0.9658
 5222TIP3   OH237156   1.306   1.423  10.991 -0.1664 -0.3074  0.5176
 5222TIP3    H137157   1.256   1.356  10.945  0.4008 -0.7383  0.5091
 5222TIP3    H237158   1.396   1.390  10.991  0.1429  0.5028  0.4249
 5223TIP3   OH237159   5.763   2.944  13.372 -0.2538 -0.0826 -0.5735
 5223TIP3    H137160   5.715   2.864  13.394 -0.4263  0.6000  1.7841
 5223TIP3    H237161   5.852   2.914  13.354 -0.3831 -0.8503  0.0253
 5224TIP3   OH237162   3.548   0.133  15.157 -0.6629  0.8207  0.1617
 5224TIP3    H137163   3.457   0.107  15.139 -1.0257  2.5229 -0.6110
 5224TIP3    H237164   3.562   0.210  15.103  1.6630 -0.0999 -0.6628
 5225TIP3   OH237165   0.382   2.904   5.062 -0.6259 -0.1860 -0.0595
 5225TIP3    H137166   0.425   2.819   5.070 -1.8275 -0.9849 -1.5283
 5225TIP3    H237167   0.387   2.942   5.150  1.7135 -0.8604  0.1716
 5226TIP3   OH237168   0.533   3.051  16.839 -0.1706 -0.1300 -0.6083
 5226TIP3    H137169   0.451   3.015  16.804 -0.2791  0.0133 -0.5007
 5226TIP3    H237170   0.587   3.067  16.762 -1.0874  1.8880 -0.8744
 5227TIP3   OH237171   6.543   1.385  12.039  0.2564  0.5924  0.6819
 5227TIP3    H137172   6.592   1.451  11.990  1.4325 -0.5604  0.2579
 5227TIP3    H237173   6.478   1.353  11.977  1.1784 -0.2430  0.1016
 5228TIP3   OH237174   0.561   2.518   4.604  0.0903  0.0418  0.1328
 5228TIP3    H137175   0.487   2.571   4.577 -0.6006 -1.8722 -2.1613
 5228TIP3    H237176   0.581   2.465   4.527  0.0716 -3.7045  2.4522
 5229TIP3   OH237177   5.590   4.461  12.841  0.3119 -0.2413 -0.2642
 5229TIP3    H137178   5.635   4.530  12.890  1.2793 -1.6498  0.9332
 5229TIP3    H237179   5.559   4.401  12.909 -1.1706 -0.6260 -1.2327
 5230TIP3   OH237180   1.319   3.397   5.956 -0.5426  0.3997 -0.3130
 5230TIP3    H137181   1.302   3.478   6.004 -3.1221 -0.6112  0.6280
 5230TIP3    H237182   1.234   3.354   5.949  0.8320 -2.6571 -0.0190
 5231TIP3   OH237183   1.335   6.129   3.287  0.1393 -0.2298  0.2666
 5231TIP3    H137184   1.416   6.085   3.259 -0.2018 -0.8321  0.1912
 5231TIP3    H237185   1.355   6.222   3.284  1.2803 -0.4122  1.6510
 5232TIP3   OH237186   1.235   3.169   2.945  0.5113  0.0106  0.0742
 5232TIP3    H137187   1.222   3.178   2.850  0.0474 -1.2605  0.0071
 5232TIP3    H237188   1.330   3.175   2.956  0.6880 -1.1343 -0.6330
 5233TIP3   OH237189   1.050   2.252   6.615 -0.0630 -0.6903 -0.2818
 5233TIP3    H137190   1.037   2.320   6.549 -0.9036  0.0917  0.6539
 5233TIP3    H237191   1.073   2.173   6.565  1.8820  0.4806 -1.3362
 5234TIP3   OH237192   6.310   5.855  15.179 -0.7236  0.6593  0.5377
 5234TIP3    H137193   6.326   5.941  15.218  1.3199  0.1456  0.9315
 5234TIP3    H237194   6.338   5.793  15.246  0.4182 -0.2599 -0.7335
 5235TIP3   OH237195   4.691   3.241   2.150 -0.0431  0.4381 -0.1810
 5235TIP3    H137196   4.717   3.239   2.242  1.7174  0.1118 -0.6625
 5235TIP3    H237197   4.612   3.296   2.149  0.3034  1.0162  1.4149
 5236TIP3   OH237198   6.390   1.738  14.662  0.1040 -0.1709 -0.3474
 5236TIP3    H137199   6.479   1.722  14.631  0.1231  0.6535 -0.7646
 5236TIP3    H237200   6.346   1.653  14.655  1.2919 -0.9943  1.4269
 5237TIP3   OH237201   0.640   6.165  16.206  0.1317  0.1951  0.3084
 5237TIP3    H137202   0.608   6.105  16.138 -1.5280  2.6660 -1.2713
 5237TIP3    H237203   0.560   6.197  16.249  1.0462  0.3262  1.9811
 5238TIP3   OH237204   0.010   6.541   3.382  0.1063  0.0317 -0.7194
 5238TIP3    H137205  -0.035   6.457   3.388 -0.5274  0.3252 -1.2347
 5238TIP3    H237206  -0.060   6.606   3.372  0.6384  0.4215 -2.4113
 5239TIP3   OH237207   1.122   3.614  14.164 -0.5549  0.3571 -0.0424
 5239TIP3    H137208   1.094   3.539  14.217 -1.0765  1.9972  2.1479
 5239TIP3    H237209   1.085   3.596  14.077 -4.4361  0.0719  1.4667
 5240TIP3   OH237210   3.999   6.292  11.316 -0.0536 -0.1411 -0.5749
 5240TIP3    H137211   4.092   6.310  11.303 -0.0898 -0.7947 -1.9383
 5240TIP3    H237212   3.955   6.339  11.245 -0.6224 -1.0117 -0.8219
 5241TIP3   OH237213   4.730   6.190   0.937 -0.5530 -0.6775 -0.2659
 5241TIP3    H137214   4.818   6.178   0.972 -0.7277 -2.9463 -0.3993
 5241TIP3    H237215   4.742   6.189   0.842 -0.7637 -2.0713 -0.3108
 5242TIP3   OH237216   1.532   5.900  12.211 -0.9378  0.1710 -0.0115
 5242TIP3    H137217   1.544   5.933  12.300 -1.6320 -0.9838  0.5440
 5242TIP3    H237218   1.553   5.974  12.155  0.3138  0.6979  1.0787
 5243TIP3   OH237219   2.598   2.957  11.627  0.0021  0.1630  0.0777
 5243TIP3    H137220   2.563   2.944  11.539 -2.1221  1.8264  0.5981
 5243TIP3    H237221   2.534   2.916  11.685  0.8681 -0.0427  0.9179
 5244TIP3   OH237222   1.367   3.248  12.309 -0.0371  0.4713  0.1143
 5244TIP3    H137223   1.361   3.175  12.370  0.1828 -1.1359 -1.7121
 5244TIP3    H237224   1.449   3.292  12.333 -0.0146 -0.0451  1.0239
 5245TIP3   OH237225   5.214   0.113  16.454  0.1228  0.0417  0.4686
 5245TIP3    H137226   5.268   0.192  16.452 -0.9929  0.8973  1.8225
 5245TIP3    H237227   5.140   0.133  16.396 -0.8121  0.5239  1.7922
 5246TIP3   OH237228   2.556   2.202   1.436  0.2881  0.0119  0.2232
 5246TIP3    H137229   2.627   2.193   1.500 -0.7046  1.1085  1.5344
 5246TIP3    H237230   2.600   2.230   1.355  1.5784 -1.4475  0.3659
 5247TIP3   OH237231   1.043   3.032   4.591 -0.3214 -0.0409 -0.0621
 5247TIP3    H137232   1.016   3.046   4.500  0.4519 -2.7692 -0.8034
 5247TIP3    H237233   0.962   3.008   4.636 -0.2121 -2.2796 -0.9260
 5248TIP3   OH237234   1.671   2.204   5.865  0.4454 -0.1556  0.4571
 5248TIP3    H137235   1.766   2.205   5.852  0.3818 -1.3158 -0.3044
 5248TIP3    H237236   1.648   2.294   5.889  1.8269 -0.0414  1.4187
 5249TIP3   OH237237   5.344   5.527   1.800  0.1317  0.1889 -0.3527
 5249TIP3    H137238   5.430   5.543   1.839 -1.2711  1.2258  2.6225
 5249TIP3    H237239   5.302   5.613   1.798 -1.5353 -0.5703  0.1512
 5250TIP3   OH237240   6.181   2.903   0.524 -0.0946 -0.1623 -0.0130
 5250TIP3    H137241   6.177   2.975   0.588  0.3146 -0.0149 -0.1520
 5250TIP3    H237242   6.178   2.824   0.578 -0.9740 -0.0461  0.1149
 5251TIP3   OH237243   4.168   4.386   2.593  0.3455 -0.0906 -0.2309
 5251TIP3    H137244   4.261   4.368   2.574  0.4564 -0.2841  0.4722
 5251TIP3    H237245   4.158   4.362   2.685 -0.5469 -0.6394 -0.4666
 5252TIP3   OH237246   5.838   0.046  16.290 -0.0563 -0.4989  0.5775
 5252TIP3    H137247   5.820   0.006  16.205  0.0034 -0.8397  0.7219
 5252TIP3    H237248   5.928   0.078  16.283  0.0028 -0.6653  0.5616
 5253TIP3   OH237249   3.563   2.777   4.642 -0.1056  0.6062 -0.2864
 5253TIP3    H137250   3.596   2.687   4.638  0.1051  0.6356  0.5839
 5253TIP3    H237251   3.550   2.794   4.735 -0.4513  1.3701 -0.4649
 5254TIP3   OH237252   3.218   0.960   6.179  0.2142 -0.0079 -0.1166
 5254TIP3    H137253   3.300   1.006   6.163  0.4639 -0.4822 -0.2110
 5254TIP3    H237254   3.222   0.882   6.123  0.3768 -0.8190  0.9875
 5255TIP3   OH237255   2.562   1.657   5.225  0.1987  0.1442  0.2356
 5255TIP3    H137256   2.614   1.733   5.198  0.4153  0.0688  0.4377
 5255TIP3    H237257   2.556   1.603   5.146 -1.8063  1.3976 -0.5362
 5256TIP3   OH237258   6.290   0.152   0.473 -0.1544  0.6036 -0.1387
 5256TIP3    H137259   6.206   0.109   0.460  0.8375 -1.3488 -0.4758
 5256TIP3    H237260   6.347   0.084   0.509  2.0832  0.9535 -2.6339
 5257TIP3   OH237261   0.490   4.753  13.944 -0.2323 -0.4912  0.4271
 5257TIP3    H137262   0.584   4.761  13.963 -0.4331  0.2789  1.1346
 5257TIP3    H237263   0.475   4.813  13.872 -0.3474  0.0823  0.9205
 5258TIP3   OH237264   3.884   0.305  11.225 -0.1322  0.8329 -0.2438
 5258TIP3    H137265   3.834   0.224  11.240  0.6696  0.3100 -0.3027
 5258TIP3    H237266   3.825   0.375  11.252 -1.6309  0.3733 -2.0811
 5259TIP3   OH237267   3.015   1.337  15.843 -0.2077  0.0766 -0.4279
 5259TIP3    H137268   3.055   1.319  15.758 -2.0776 -1.0266 -1.1333
 5259TIP3    H237269   2.972   1.422  15.832  1.0663  0.8283  0.0521
 5260TIP3   OH237270   2.388   0.083   3.197  0.0345 -0.6853 -0.1745
 5260TIP3    H137271   2.306   0.119   3.163 -2.2818 -0.6037  4.6564
 5260TIP3    H237272   2.392  -0.006   3.162 -0.5087  0.1776 -2.6662
 5261TIP3   OH237273   5.687   5.859  12.811 -0.2175  0.0762  0.7811
 5261TIP3    H137274   5.704   5.887  12.720  1.4842 -1.5909  0.5351
 5261TIP3    H237275   5.705   5.937  12.863  2.1063  0.1736 -0.0711
 5262TIP3   OH237276   4.273   0.266  14.665  0.4691 -0.1480  0.1963
 5262TIP3    H137277   4.230   0.202  14.722 -0.6836  1.1864  0.8702
 5262TIP3    H237278   4.365   0.238  14.664 -0.0292 -1.9492  0.2520
 5263TIP3   OH237279   5.274   5.956   4.277  0.2946 -0.0021 -0.0846
 5263TIP3    H137280   5.322   6.003   4.346  0.8430 -2.1907  1.1158
 5263TIP3    H237281   5.320   5.873   4.268 -0.2234 -0.1012 -2.6186
 5264TIP3   OH237282   1.341   1.516  16.502 -0.3048  0.3063  0.3505
 5264TIP3    H137283   1.433   1.501  16.523 -0.7887 -1.2575  1.5147
 5264TIP3    H237284   1.293   1.478  16.576 -1.8938  1.0303 -0.2700
 5265TIP3   OH237285   3.840   5.661  13.039 -0.2016  0.1598  0.0891
 5265TIP3    H137286   3.883   5.743  13.015 -1.0061  0.2449 -1.1846
 5265TIP3    H237287   3.912   5.599  13.054  0.3955  0.6486 -0.6622
 5266TIP3   OH237288   6.589   4.982   4.446  0.1529  0.0265  0.1572
 5266TIP3    H137289   6.683   4.962   4.453  0.1633  0.6077  2.8414
 5266TIP3    H237290   6.554   4.959   4.532 -2.3858 -1.0374 -1.0713
 5267TIP3   OH237291   1.117   1.219  11.460  0.5522 -0.1686 -0.0445
 5267TIP3    H137292   1.119   1.302  11.414 -2.3624 -0.2879 -0.6158
 5267TIP3    H237293   1.091   1.241  11.549 -0.6905 -0.4246 -0.3126
 5268TIP3   OH237294   3.644   1.578   4.236  0.1448 -0.5632 -0.0432
 5268TIP3    H137295   3.698   1.657   4.245 -1.3663  0.2944  2.6067
 5268TIP3    H237296   3.696   1.520   4.181  2.0171  1.6595 -0.8030
 5269TIP3   OH237297   1.341   4.268  16.990  0.1141  0.2905 -0.2230
 5269TIP3    H137298   1.384   4.316  16.919  0.0017  0.7273  0.0005
 5269TIP3    H237299   1.287   4.333  17.034  0.3435  0.0750  0.3957
 5270TIP3   OH237300   4.328   4.547   5.698  0.0048 -0.1723  0.3064
 5270TIP3    H137301   4.340   4.619   5.636 -0.1641  0.4271  0.9648
 5270TIP3    H237302   4.417   4.524   5.726  0.0222  0.1837  0.5492
 5271TIP3   OH237303   4.438   3.683   2.457  0.1200 -0.3188 -0.1808
 5271TIP3    H137304   4.347   3.675   2.484 -0.2303  0.3848 -1.0845
 5271TIP3    H237305   4.447   3.618   2.387  0.1194  0.0720 -0.5471
 5272TIP3   OH237306   2.109   1.501  11.554 -0.3332 -0.0319  0.2702
 5272TIP3    H137307   2.080   1.504  11.462 -0.0394  0.9252  0.2017
 5272TIP3    H237308   2.029   1.517  11.604 -0.3842  0.0784  0.1560
 5273TIP3   OH237309   6.652   4.294   2.992 -0.1163 -1.1301 -0.3564
 5273TIP3    H137310   6.662   4.215   3.044  1.6525 -0.9226 -0.3181
 5273TIP3    H237311   6.567   4.329   3.017 -0.5593 -2.5769  0.2286
 5274TIP3   OH237312   6.047   2.956   5.305 -0.0251 -0.5271 -0.6731
 5274TIP3    H137313   5.987   2.884   5.324  0.5868 -0.7748  0.3618
 5274TIP3    H237314   5.989   3.032   5.294 -0.5178 -0.5160  1.4798
 5275TIP3   OH237315   0.107   1.768  13.083  0.0265  0.1019  0.5741
 5275TIP3    H137316   0.190   1.739  13.122 -0.6972 -0.3748  1.8205
 5275TIP3    H237317   0.096   1.714  13.005  0.7261 -0.0581  0.5835
 5276TIP3   OH237318   4.312   0.801  16.684  0.7964  0.0179  0.1699
 5276TIP3    H137319   4.279   0.768  16.767 -0.7917 -0.5064 -0.6067
 5276TIP3    H237320   4.246   0.865  16.656  0.6450 -0.6872 -1.2153
 5277TIP3   OH237321   0.906   4.120  11.772 -0.3244 -0.3405 -0.1387
 5277TIP3    H137322   0.926   4.133  11.864 -2.0878 -3.0203  0.7399
 5277TIP3    H237323   0.895   4.208  11.736  0.3770  0.7568  2.1850
 5278TIP3   OH237324   6.228   3.328  16.507  0.1794  0.9438 -0.0575
 5278TIP3    H137325   6.251   3.350  16.598  0.8207 -1.3362  0.4042
 5278TIP3    H237326   6.313   3.319  16.463 -0.1371  2.4563 -1.0313
 5279TIP3   OH237327   4.487   2.693   3.533 -0.5357 -0.4272  0.0628
 5279TIP3    H137328   4.440   2.738   3.603  0.6248  3.0061 -1.1497
 5279TIP3    H237329   4.469   2.745   3.455  2.1947 -1.1641 -1.1761
 5280TIP3   OH237330   1.246   4.132  12.230  0.3783 -0.1932  0.2741
 5280TIP3    H137331   1.239   4.222  12.200 -0.6960 -1.1877 -2.8069
 5280TIP3    H237332   1.159   4.094  12.214  0.9627 -1.9272  0.9394
 5281TIP3   OH237333   4.328   4.762  16.823  0.0711  0.5772  0.2052
 5281TIP3    H137334   4.275   4.729  16.749  1.7207 -0.1159 -0.7175
 5281TIP3    H237335   4.328   4.691  16.886  0.5008  0.2835 -0.1218
 5282TIP3   OH237336   1.814   1.774   0.647 -0.3000  0.2410 -0.0490
 5282TIP3    H137337   1.853   1.860   0.666  1.1223 -0.2035 -0.7809
 5282TIP3    H237338   1.874   1.711   0.688  1.0105 -0.5645 -2.9394
 5283TIP3   OH237339   2.048   4.468  11.808  0.2317  0.1638 -0.5511
 5283TIP3    H137340   1.975   4.411  11.834 -0.0244  0.9781  0.6143
 5283TIP3    H237341   2.053   4.460  11.713  0.4651 -2.1166 -0.3992
 5284TIP3   OH237342   0.888   4.825  12.181  0.0378 -0.5455  0.9526
 5284TIP3    H137343   0.844   4.819  12.096 -0.6469  2.1320  1.0480
 5284TIP3    H237344   0.979   4.845  12.159  0.2134 -1.4351  0.8418
 5285TIP3   OH237345   5.024   4.646   4.940 -0.4857  0.3872 -0.0879
 5285TIP3    H137346   5.016   4.585   4.866  0.5499  0.7334 -0.5059
 5285TIP3    H237347   4.985   4.599   5.014  1.5706 -1.4074 -0.0566
 5286TIP3   OH237348   1.096   6.367  11.496 -0.3553 -0.4030  0.0613
 5286TIP3    H137349   1.183   6.407  11.487 -0.4416 -0.2793 -0.2664
 5286TIP3    H237350   1.064   6.397  11.581 -0.4096  0.2129 -0.1706
 5287TIP3   OH237351   1.330   1.143  10.898  0.4858  0.5325 -0.0876
 5287TIP3    H137352   1.317   1.108  10.986 -2.2780  0.8221 -0.3019
 5287TIP3    H237353   1.312   1.070  10.839  0.1133  0.8839 -0.4257
 5288TIP3   OH237354   2.045   2.967  14.192 -0.7455  0.2243  0.3879
 5288TIP3    H137355   2.043   3.008  14.106  1.5397 -1.5258 -0.6153
 5288TIP3    H237356   1.991   2.889  14.184 -0.2676 -0.1149  0.4209
 5289TIP3   OH237357   6.499   4.219   1.629  0.2963  0.5309 -0.4193
 5289TIP3    H137358   6.533   4.186   1.712  1.1760 -2.1858 -1.7327
 5289TIP3    H237359   6.536   4.307   1.621  3.0669 -0.4420  0.5189
 5290TIP3   OH237360   1.455   1.984  15.854 -0.5728 -0.6351 -0.4778
 5290TIP3    H137361   1.529   2.034  15.820 -0.9010 -0.2378 -0.6182
 5290TIP3    H237362   1.491   1.936  15.928 -0.0172 -0.9723 -0.9610
 5291TIP3   OH237363   3.842   0.470   4.743  0.7146 -0.4116 -0.2111
 5291TIP3    H137364   3.780   0.520   4.690  0.6804 -0.7421 -0.4863
 5291TIP3    H237365   3.797   0.459   4.827  1.4083  1.4800  0.4655
 5292TIP3   OH237366   4.214   1.173  16.524  0.5130 -0.1225  0.1993
 5292TIP3    H137367   4.197   1.104  16.587 -2.1769 -1.5866 -1.9183
 5292TIP3    H237368   4.172   1.251  16.560 -0.2584 -0.7193  0.6010
 5293TIP3   OH237369   6.834   4.450  13.836  0.0966  0.1242  0.2853
 5293TIP3    H137370   6.782   4.506  13.778  0.7560  0.1090 -0.3249
 5293TIP3    H237371   6.769   4.409  13.894 -0.5521  0.2549 -0.3427
 5294TIP3   OH237372   3.578   1.011  10.834 -0.2862  0.5157  0.1901
 5294TIP3    H137373   3.638   1.073  10.792  1.2783 -2.5165 -2.4075
 5294TIP3    H237374   3.500   1.012  10.778  1.0419 -2.0929 -1.9291
 5295TIP3   OH237375   1.125   2.057   4.839 -0.2616  0.6073  0.3111
 5295TIP3    H137376   1.219   2.058   4.856  0.4635 -0.5895 -2.7769
 5295TIP3    H237377   1.090   1.994   4.902  0.9412  1.2519  1.6752
 5296TIP3   OH237378   1.816   0.978   0.494  0.9254  0.0893  0.5267
 5296TIP3    H137379   1.758   1.017   0.559 -0.7022  1.1455 -1.4642
 5296TIP3    H237380   1.894   1.033   0.496  1.0772 -0.1248  1.8099
 5297TIP3   OH237381   2.682   4.691  15.798  0.3072  0.3480  0.4456
 5297TIP3    H137382   2.682   4.695  15.894  1.0654 -0.5565  0.5020
 5297TIP3    H237383   2.760   4.739  15.771  0.5662 -0.1204  0.3378
 5298TIP3   OH237384   4.469   3.813  13.111  0.1600 -0.3579 -0.1861
 5298TIP3    H137385   4.514   3.759  13.176 -1.4894  0.3623  1.6437
 5298TIP3    H237386   4.530   3.816  13.037  1.9681 -1.5060  1.1539
 5299TIP3   OH237387   1.338   4.872  13.088 -0.1659 -0.0338  0.0306
 5299TIP3    H137388   1.330   4.798  13.149 -0.4638 -1.1245 -1.2721
 5299TIP3    H237389   1.255   4.918  13.096  0.4735  0.9275  1.7436
 5300TIP3   OH237390   2.241   5.224  13.331  0.1005 -0.2418  0.0099
 5300TIP3    H137391   2.298   5.286  13.286  1.4004 -2.0892 -1.0245
 5300TIP3    H237392   2.164   5.216  13.275  1.2539 -1.7382 -1.4807
 5301TIP3   OH237393   3.717   3.260   0.274  0.4523  0.2026 -0.2704
 5301TIP3    H137394   3.734   3.252   0.368  2.6925 -2.0927 -0.7786
 5301TIP3    H237395   3.656   3.189   0.254  0.9436 -0.0831 -0.7619
 5302TIP3   OH237396   1.168   4.162   5.505 -0.5522 -0.0847  0.5038
 5302TIP3    H137397   1.228   4.087   5.501  0.5415  0.8218 -0.6887
 5302TIP3    H237398   1.217   4.234   5.466 -2.2132  0.8393  0.0460
 5303TIP3   OH237399   5.997   1.690   3.039  0.6778 -0.2358 -0.4571
 5303TIP3    H137400   5.927   1.646   2.991  0.2487 -0.2265  0.1403
 5303TIP3    H237401   6.072   1.631   3.032  0.6152 -0.2452 -1.1030
 5304TIP3   OH237402   1.495   3.393   2.366 -0.3066  0.0149  0.4550
 5304TIP3    H137403   1.538   3.338   2.301  0.6920  0.9379  0.3199
 5304TIP3    H237404   1.551   3.388   2.443  1.5549  3.2474 -0.5237
 5305TIP3   OH237405   4.474   6.504  14.231  0.1273  0.0213  0.3318
 5305TIP3    H137406   4.380   6.518  14.218 -0.0064 -1.0587  0.0276
 5305TIP3    H237407   4.479   6.420  14.277  0.9492 -0.0839  0.0638
 5306TIP3   OH237408   6.034   3.917   3.865 -0.3010 -0.5480  0.3216
 5306TIP3    H137409   6.129   3.930   3.866 -0.3832  0.2273 -0.6687
 5306TIP3    H237410   5.998   3.996   3.906 -0.5914  0.1998 -1.2881
 5307TIP3   OH237411   3.714   1.102  17.102  1.0809 -0.4099  0.2087
 5307TIP3    H137412   3.625   1.086  17.134  1.9434 -0.9462  2.5425
 5307TIP3    H237413   3.755   1.015  17.101  1.3445 -0.3102 -1.7775
 5308TIP3   OH237414   2.687   6.475   1.711  0.4743 -0.1222  0.1203
 5308TIP3    H137415   2.674   6.569   1.722  0.2068 -0.2993  1.4532
 5308TIP3    H237416   2.639   6.435   1.783  1.1369 -1.2477 -0.0312
 5309TIP3   OH237417   2.044   1.861  15.218  0.7120  0.1758 -0.4456
 5309TIP3    H137418   1.956   1.886  15.190  0.7144  0.7452  0.0369
 5309TIP3    H237419   2.077   1.806  15.147 -0.1759 -0.3578 -0.4631
 5310TIP3   OH237420   0.174   1.646   4.426 -0.0490  0.0566 -0.1533
 5310TIP3    H137421   0.166   1.589   4.350  1.2956  1.5862 -1.5460
 5310TIP3    H237422   0.114   1.719   4.408 -0.3142  0.0359  0.6345
 5311TIP3   OH237423   0.316   5.937  14.170 -0.2690 -0.0338 -0.2671
 5311TIP3    H137424   0.259   6.010  14.145 -1.1922 -0.2658  1.0572
 5311TIP3    H237425   0.290   5.865  14.112 -2.8477 -0.7731  1.6404
 5312TIP3   OH237426   1.242   3.547  12.552  0.1888  0.2009  1.1642
 5312TIP3    H137427   1.231   3.550  12.458 -3.7764  1.0079  1.5148
 5312TIP3    H237428   1.173   3.489  12.584  0.4991  1.0352  3.6477
 5313TIP3   OH237429   3.166   0.208  16.506  0.7485 -0.1473  0.2079
 5313TIP3    H137430   3.262   0.214  16.504  0.8093 -0.6402  1.2984
 5313TIP3    H237431   3.137   0.291  16.467  1.6190  0.2277  0.3222
 5314TIP3   OH237432   5.553   5.259  13.518  0.3149 -0.2553  0.5913
 5314TIP3    H137433   5.558   5.351  13.545  0.3859  0.4789 -1.7159
 5314TIP3    H237434   5.539   5.263  13.423 -1.1513 -2.6236  0.6288
 5315TIP3   OH237435   4.633   0.742   3.124  0.5026 -0.3070 -0.1277
 5315TIP3    H137436   4.710   0.784   3.085  0.5358 -0.6191 -0.4015
 5315TIP3    H237437   4.564   0.752   3.058  0.1513  0.4472  0.3346
 5316TIP3   OH237438   3.578   3.441   3.374 -0.5795  0.1157  0.2597
 5316TIP3    H137439   3.555   3.449   3.281 -0.9788 -1.8078  0.1539
 5316TIP3    H237440   3.671   3.463   3.377  0.0251 -1.9987 -1.0224
 5317TIP3   OH237441   6.294   4.973   1.547 -0.4957  0.2414  0.0030
 5317TIP3    H137442   6.249   4.925   1.616  0.4533  0.4971  0.8222
 5317TIP3    H237443   6.287   4.917   1.470 -1.0101 -0.3480  0.4684
 5318TIP3   OH237444   3.467   1.306   1.825  0.0417  0.1594  0.2469
 5318TIP3    H137445   3.431   1.219   1.839  1.0107 -0.5098 -1.2448
 5318TIP3    H237446   3.450   1.352   1.908 -1.2346 -1.1485  0.7577
 5319TIP3   OH237447   5.905   4.240   0.303  0.1556  0.0488 -0.1588
 5319TIP3    H137448   5.973   4.305   0.324  1.5334 -1.3355 -0.0825
 5319TIP3    H237449   5.895   4.245   0.208  0.1337  0.4679 -0.1378
 5320TIP3   OH237450   6.253   0.144  14.778  0.0590  0.6731  0.0211
 5320TIP3    H137451   6.219   0.090  14.706 -0.0423  0.8435 -0.0562
 5320TIP3    H237452   6.209   0.110  14.856  1.9721 -1.1923  0.3921
 5321TIP3   OH237453   3.403   5.760   1.806  0.4538 -0.3693  0.6896
 5321TIP3    H137454   3.333   5.697   1.785  0.3067  0.1607 -0.4791
 5321TIP3    H237455   3.459   5.759   1.728  1.3100 -0.1903  1.2979
 5322TIP3   OH237456   3.340   0.357  16.330 -0.3727 -0.0139  0.1428
 5322TIP3    H137457   3.413   0.303  16.360 -0.6423 -0.3840  0.1255
 5322TIP3    H237458   3.330   0.424  16.398  0.2035  0.2460 -0.0196
 5323TIP3   OH237459   2.312   4.627  12.645 -0.0801 -0.1786  0.2036
 5323TIP3    H137460   2.293   4.550  12.698 -0.8224 -1.3747 -1.6685
 5323TIP3    H237461   2.404   4.617  12.620 -0.2536 -0.6769 -0.2868
 5324TIP3   OH237462   5.024   2.291  15.306  0.1387  0.9537  0.2792
 5324TIP3    H137463   4.965   2.366  15.298 -1.4173 -0.4089 -4.7618
 5324TIP3    H237464   5.086   2.301  15.234 -0.8236 -2.9391 -1.3542
 5325TIP3   OH237465   0.717   3.101  13.387  0.6316  0.1999 -0.6022
 5325TIP3    H137466   0.698   3.158  13.312  1.8340  0.3970 -0.7769
 5325TIP3    H237467   0.768   3.029  13.350 -2.5223 -2.1499 -0.7515
 5326TIP3   OH237468   2.606   2.607  16.067 -0.9111  0.2011 -0.6302
 5326TIP3    H137469   2.625   2.696  16.036  3.4871 -0.5195 -0.5973
 5326TIP3    H237470   2.613   2.553  15.989 -0.8656 -0.4237 -0.1964
 5327TIP3   OH237471   2.158   2.137   5.322  0.0678 -0.0186  0.1119
 5327TIP3    H137472   2.096   2.113   5.253 -1.4474  2.0345  0.6720
 5327TIP3    H237473   2.224   2.068   5.319  0.1051 -0.0241 -3.4056
 5328TIP3   OH237474   5.873   1.581  16.840  0.0068  0.0604 -0.0548
 5328TIP3    H137475   5.836   1.606  16.925  0.0706  2.1245 -0.5894
 5328TIP3    H237476   5.939   1.648  16.822 -1.3312  0.8249 -2.5983
 5329TIP3   OH237477   1.726   1.331  15.440  0.1238 -0.3399 -0.2439
 5329TIP3    H137478   1.694   1.241  15.441  0.3890 -0.4534 -1.1227
 5329TIP3    H237479   1.698   1.366  15.355  0.0890  0.3809  0.0555
 5330TIP3   OH237480   2.167   3.479   6.666 -0.2320  0.2218  0.1277
 5330TIP3    H137481   2.083   3.457   6.706  0.3864  0.0606  1.3885
 5330TIP3    H237482   2.159   3.571   6.642 -1.2586 -0.1454 -1.1021
 5331TIP3   OH237483   3.470   1.421   3.958 -0.2931  0.0266 -0.8263
 5331TIP3    H137484   3.434   1.337   3.930 -0.2301  0.7943 -3.4726
 5331TIP3    H237485   3.485   1.411   4.052 -0.8770 -2.6810 -0.9536
 5332TIP3   OH237486   4.717   1.530   5.441  0.2268 -1.0189 -0.2325
 5332TIP3    H137487   4.667   1.474   5.501 -0.2361  0.8689  1.2112
 5332TIP3    H237488   4.803   1.487   5.435 -0.2965 -2.2036  0.3338
 5333TIP3   OH237489   1.344   5.565  13.067  0.4894 -0.5689 -0.0447
 5333TIP3    H137490   1.396   5.601  12.996  0.2957  0.1334  0.1669
 5333TIP3    H237491   1.408   5.522  13.124  0.7978 -0.0107  0.0336
 5334TIP3   OH237492   1.086   5.532  12.788  0.1910 -0.1539  0.6402
 5334TIP3    H137493   1.000   5.510  12.823  0.1065 -0.3686  0.2977
 5334TIP3    H237494   1.139   5.454  12.804 -0.1378 -0.6668 -0.6691
 5335TIP3   OH237495   2.980   2.021  11.949 -0.7707 -0.6130 -0.2849
 5335TIP3    H137496   2.957   1.931  11.926  0.0722 -0.8286 -0.3426
 5335TIP3    H237497   2.926   2.075  11.893 -2.2423 -1.0471  0.6624
 5336TIP3   OH237498   5.030   1.316  16.873 -0.3278 -0.0904 -0.4242
 5336TIP3    H137499   5.039   1.238  16.818 -3.5040 -0.1628 -1.0539
 5336TIP3    H237500   5.018   1.283  16.962  1.0779 -0.1425 -0.2343
 5337TIP3   OH237501   4.048   0.744   0.615 -0.1408  0.3908 -0.1109
 5337TIP3    H137502   4.007   0.778   0.535  2.0019  0.1566 -1.3936
 5337TIP3    H237503   4.101   0.817   0.647  1.0458 -0.3243 -0.4028
 5338TIP3   OH237504   6.351   4.159   0.357 -0.1701  0.1945 -0.4388
 5338TIP3    H137505   6.300   4.184   0.280 -0.5070  0.7147 -0.0513
 5338TIP3    H237506   6.433   4.207   0.349 -0.3459  0.5185 -0.2950
 5339TIP3   OH237507   0.703   3.789   2.962 -0.3510 -0.1375  0.0961
 5339TIP3    H137508   0.646   3.741   3.021 -2.0373  0.5069 -0.9407
 5339TIP3    H237509   0.656   3.870   2.943  1.4764  1.0039  0.1497
 5340TIP3   OH237510   2.055   5.717   1.224  0.0530  0.3768 -0.0524
 5340TIP3    H137511   2.036   5.651   1.291  0.0483  0.3799 -0.0505
 5340TIP3    H237512   2.021   5.799   1.260 -1.2410  0.1377 -0.6645
 5341TIP3   OH237513   5.879   5.693   0.058  0.4467 -0.0934  0.1518
 5341TIP3    H137514   5.811   5.736   0.006 -0.0796  0.2340  1.0878
 5341TIP3    H237515   5.945   5.666  -0.006 -0.4031 -0.1117 -0.7319
 5342TIP3   OH237516   2.031   5.786   2.248 -0.1239 -0.0190 -0.1509
 5342TIP3    H137517   1.956   5.820   2.200 -0.1228 -2.5859 -2.1820
 5342TIP3    H237518   2.012   5.693   2.260  1.8723 -0.3366  1.0285
 5343TIP3   OH237519   2.914   2.818   6.069  0.2149 -0.3606  0.2322
 5343TIP3    H137520   2.930   2.748   6.132  1.4118 -1.0436 -0.7975
 5343TIP3    H237521   3.001   2.852   6.047  0.0098 -1.1801 -2.1790
 5344TIP3   OH237522   2.886   6.595  14.003 -0.1770  0.6635  0.3603
 5344TIP3    H137523   2.826   6.525  13.979  0.0019  0.6854 -0.1653
 5344TIP3    H237524   2.836   6.649  14.065 -1.1290  1.3337 -0.9344
 5345TIP3   OH237525   4.197   4.919   3.532  0.1270 -0.1323 -0.5968
 5345TIP3    H137526   4.105   4.934   3.554 -0.0930 -0.3915 -1.3027
 5345TIP3    H237527   4.228   5.003   3.500  0.0985 -0.0816 -0.4928
 5346TIP3   OH237528   3.892   0.681   0.821  0.0989 -0.5324 -0.0796
 5346TIP3    H137529   3.904   0.765   0.865  0.7086 -1.2485  1.1910
 5346TIP3    H237530   3.944   0.688   0.741  0.2745  0.2446  0.0912
 5347TIP3   OH237531   3.748   3.366  13.460  0.2275  0.2876  0.0780
 5347TIP3    H137532   3.805   3.383  13.385  0.1630 -0.2931 -0.1093
 5347TIP3    H237533   3.774   3.279  13.491  0.3560  0.5842  0.8248
 5348TIP3   OH237534   5.506   5.794  16.880 -0.2438  0.7701  0.4577
 5348TIP3    H137535   5.464   5.839  16.807 -1.2275  1.2808  1.3140
 5348TIP3    H237536   5.592   5.770  16.847 -1.1183 -0.1743 -1.3155
 5349TIP3   OH237537   2.575   4.765  16.168 -0.6279 -0.2073  0.0506
 5349TIP3    H137538   2.529   4.685  16.194  0.7223 -0.9383  0.2363
 5349TIP3    H237539   2.667   4.747  16.186 -0.2737  1.2880 -0.1839
 5350TIP3   OH237540   1.564   1.782  14.423 -0.0861  0.3935  0.0563
 5350TIP3    H137541   1.564   1.768  14.518  0.2724  0.1560  0.0207
 5350TIP3    H237542   1.481   1.744  14.394  0.1195 -0.1603  0.1825
 5351TIP3   OH237543   2.268   0.739  12.850 -0.4720  0.4416  0.1291
 5351TIP3    H137544   2.188   0.713  12.804 -0.8767  2.1952 -0.2323
 5351TIP3    H237545   2.251   0.718  12.942 -1.4124  0.9194  0.0742
 5352TIP3   OH237546   3.758   6.576  13.302 -0.2406 -0.0285  0.5011
 5352TIP3    H137547   3.757   6.656  13.248  3.3937 -0.2497 -0.1169
 5352TIP3    H237548   3.772   6.505  13.239 -1.5338 -1.0096  1.2623
 5353TIP3   OH237549   1.627   0.765  16.923  0.2896 -0.0696  0.1186
 5353TIP3    H137550   1.602   0.810  16.842 -2.0960  1.7864  1.7710
 5353TIP3    H237551   1.702   0.814  16.956  0.4320 -0.0151 -0.2821
 5354TIP3   OH237552   5.600   6.393   1.956  0.6338 -0.0444  0.1740
 5354TIP3    H137553   5.610   6.347   2.040 -1.4248  0.8608  1.0052
 5354TIP3    H237554   5.546   6.335   1.903 -0.3919  0.5607  0.5305
 5355TIP3   OH237555   2.759   6.822  15.395 -0.0454  0.0525  0.2431
 5355TIP3    H137556   2.782   6.802  15.304 -0.2196 -1.2994  0.4784
 5355TIP3    H237557   2.823   6.889  15.422  0.8055 -0.4461 -0.4893
 5356TIP3   OH237558   3.987   2.450  13.948 -0.0364 -0.1917  0.3511
 5356TIP3    H137559   3.927   2.523  13.957 -1.8700 -1.7327  1.4264
 5356TIP3    H237560   3.975   2.419  13.858 -1.5971 -1.0441  0.8195
 5357TIP3   OH237561   4.929   6.342  15.983  0.3242  0.3879  0.2260
 5357TIP3    H137562   4.840   6.365  16.009 -0.3991 -1.4150 -0.4170
 5357TIP3    H237563   4.932   6.360  15.889 -0.1039 -1.4662 -0.1918
 5358TIP3   OH237564   5.982   3.508   1.294 -0.7205  0.5666  0.0488
 5358TIP3    H137565   5.987   3.495   1.199  0.4590 -0.2670  0.2096
 5358TIP3    H237566   6.065   3.476   1.327 -0.8959  1.3675  1.3233
 5359TIP3   OH237567   5.673   5.251  14.390  0.0104  0.5172 -0.0066
 5359TIP3    H137568   5.744   5.197  14.424 -0.2141 -0.7561 -1.4461
 5359TIP3    H237569   5.701   5.277  14.303 -1.4163 -0.3820 -0.7885
 5360TIP3   OH237570   3.359   1.603   2.571  0.0986 -0.3630 -0.2184
 5360TIP3    H137571   3.418   1.619   2.645  1.0276  2.6080 -1.4641
 5360TIP3    H237572   3.282   1.562   2.611  1.1533 -0.2224  2.1515
 5361TIP3   OH237573   5.507   1.733  14.617  0.1212  0.0722  0.9051
 5361TIP3    H137574   5.513   1.716  14.523  0.2556  0.5640  0.8180
 5361TIP3    H237575   5.488   1.648  14.657 -2.1141  0.2074  0.2408
 5362TIP3   OH237576   5.238   0.669   3.264  0.2580 -0.2012  0.0129
 5362TIP3    H137577   5.162   0.625   3.226 -0.5635 -0.5793  1.9448
 5362TIP3    H237578   5.312   0.613   3.240 -0.3159 -0.7725 -0.4689
 5363TIP3   OH237579   5.717   2.687  12.443  0.3988 -0.3956 -0.0757
 5363TIP3    H137580   5.810   2.677  12.426  0.0122 -1.1192 -2.1015
 5363TIP3    H237581   5.701   2.781  12.439  1.1896 -0.1797  1.3620
 5364TIP3   OH237582   0.830   5.629   4.666  0.3159  0.2626  0.1504
 5364TIP3    H137583   0.849   5.538   4.643 -0.3540 -0.1022  0.9832
 5364TIP3    H237584   0.740   5.628   4.699 -0.5887  1.6328 -2.0122
 5365TIP3   OH237585   3.368   2.815   6.290  0.5353 -0.2086 -0.8406
 5365TIP3    H137586   3.461   2.837   6.298  0.1561  1.3079 -0.2463
 5365TIP3    H237587   3.357   2.795   6.197  1.1512  1.2398 -1.2637
 5366TIP3   OH237588   0.790   0.494  14.937  0.7090  0.5557 -0.0240
 5366TIP3    H137589   0.772   0.534  15.023  0.1145  1.3398 -0.5005
 5366TIP3    H237590   0.743   0.411  14.939  0.9229  0.4418  0.5101
 5367TIP3   OH237591   0.697   3.706  11.255  0.2381 -0.0220 -0.2439
 5367TIP3    H137592   0.611   3.730  11.219  0.3299 -1.2386 -1.3653
 5367TIP3    H237593   0.698   3.745  11.342 -1.0101  0.9488 -0.6326
 5368TIP3   OH237594   4.116   2.016   3.417  0.0280  0.4390  0.4631
 5368TIP3    H137595   4.155   2.015   3.505  0.7835 -1.6568  0.1549
 5368TIP3    H237596   4.186   1.986   3.359 -1.2474 -0.9530 -0.4510
 5369TIP3   OH237597   6.822   0.053   3.811 -0.0567  0.2835 -0.1381
 5369TIP3    H137598   6.877  -0.013   3.854 -1.1239  0.5425  1.7536
 5369TIP3    H237599   6.734   0.015   3.813 -0.3390  0.8805 -0.9577
 5370TIP3   OH237600   3.698   0.186   6.045 -0.0287  0.1215  0.9859
 5370TIP3    H137601   3.760   0.174   6.117  0.4378  2.4631  1.0510
 5370TIP3    H237602   3.615   0.207   6.089 -0.7498 -2.1962  0.8738
 5371TIP3   OH237603   5.716   3.686   6.574 -0.0551  0.2158 -0.5238
 5371TIP3    H137604   5.763   3.704   6.656  1.5798 -1.8213 -0.9173
 5371TIP3    H237605   5.766   3.733   6.507  1.1003 -1.3964 -0.8493
 5372TIP3   OH237606   0.533   2.007   5.912 -0.2763  0.6159  0.0746
 5372TIP3    H137607   0.549   1.971   5.825 -2.0672  0.1392 -0.0905
 5372TIP3    H237608   0.523   2.101   5.898  1.1658  0.7947  0.0502
 5373TIP3   OH237609   0.688   2.280   2.349  0.0153  0.3087  0.4123
 5373TIP3    H137610   0.596   2.259   2.335 -0.0146 -0.3737  1.5876
 5373TIP3    H237611   0.711   2.239   2.432  1.3833  0.4831  0.1504
 5374TIP3   OH237612   3.532   0.067  12.587  0.1118 -0.3172 -0.0309
 5374TIP3    H137613   3.466   0.118  12.634 -0.3683 -0.2564 -0.7499
 5374TIP3    H237614   3.482   0.017  12.523  0.8408  0.4500 -1.2402
 5375TIP3   OH237615   3.740   5.964   1.010  0.0627 -0.1151  0.2854
 5375TIP3    H137616   3.834   5.966   0.997 -0.1399 -1.3205 -1.7918
 5375TIP3    H237617   3.722   6.038   1.069  2.2788  0.0288  0.8671
 5376TIP3   OH237618   5.836   2.887  15.701  0.3045 -0.5915  0.9369
 5376TIP3    H137619   5.781   2.963  15.721  1.4409  0.2157  1.1380
 5376TIP3    H237620   5.897   2.919  15.634 -0.1154 -1.7569 -0.0339
 5377TIP3   OH237621   5.602   1.871  14.029 -0.0749  0.5801  0.1661
 5377TIP3    H137622   5.552   1.952  14.022 -0.6872  0.2588  0.6646
 5377TIP3    H237623   5.587   1.841  14.118 -0.7850 -0.6480 -0.3262
 5378TIP3   OH237624   2.391   1.622  11.239  0.4579 -0.1113  0.3812
 5378TIP3    H137625   2.463   1.570  11.202  1.6210  0.1620  2.1135
 5378TIP3    H237626   2.433   1.676  11.307 -1.0252  1.6982 -0.0547
 5379TIP3   OH237627   4.646   4.824   3.332  0.1138  0.0068  0.2198
 5379TIP3    H137628   4.579   4.755   3.332 -1.2352  0.9194 -4.5647
 5379TIP3    H237629   4.722   4.784   3.289  0.9666  0.3522  1.3505
 5380TIP3   OH237630   1.526   2.942   5.466 -0.0063  0.6433  0.6725
 5380TIP3    H137631   1.543   2.994   5.387  1.4417 -1.5327 -0.5512
 5380TIP3    H237632   1.614   2.920   5.498 -0.5688  1.4535  2.9288
 5381TIP3   OH237633   1.660   2.467   2.589  0.5276  0.5357 -0.9946
 5381TIP3    H137634   1.675   2.399   2.524  1.7158  0.8396 -1.0612
 5381TIP3    H237635   1.685   2.427   2.672 -1.8526 -0.1652 -0.5213
 5382TIP3   OH237636   4.514   3.399  10.411  0.0681 -0.1463  0.1397
 5382TIP3    H137637   4.505   3.453  10.332 -1.0003 -0.0205  0.3389
 5382TIP3    H237638   4.497   3.310  10.380 -0.3527 -0.0967  0.2226
 5383TIP3   OH237639   1.759   0.332   2.796  0.4578 -0.5508  0.0249
 5383TIP3    H137640   1.697   0.400   2.772  1.2749  0.1461 -0.1748
 5383TIP3    H237641   1.734   0.306   2.884 -1.7557 -2.1983 -1.0050
 5384TIP3   OH237642   3.487   4.532   4.084  0.2034  0.1872 -0.0145
 5384TIP3    H137643   3.414   4.590   4.062 -0.0249 -0.9807 -2.7899
 5384TIP3    H237644   3.565   4.587   4.077 -0.1858  0.7451  0.0000
 5385TIP3   OH237645   0.144   6.159   5.499 -0.5799  0.1429  0.2957
 5385TIP3    H137646   0.053   6.135   5.519 -0.4112  0.3550  1.3801
 5385TIP3    H237647   0.167   6.223   5.566  0.8170 -0.9336  0.9067
 5386TIP3   OH237648   3.290   0.707  16.870 -0.4769 -0.3309  0.3684
 5386TIP3    H137649   3.208   0.691  16.917 -1.0070 -2.6961 -1.1866
 5386TIP3    H237650   3.267   0.772  16.803 -0.6991  0.1235  0.8835
 5387TIP3   OH237651   3.562   2.381  14.439 -0.1054  0.4330 -0.2347
 5387TIP3    H137652   3.469   2.395  14.453 -0.2424  3.9306 -3.0741
 5387TIP3    H237653   3.567   2.317  14.369 -0.3029 -0.2932  0.4026
 5388TIP3   OH237654   3.995   0.306  13.957  0.5776 -0.5204 -0.3108
 5388TIP3    H137655   3.904   0.313  13.928  0.3775  0.4097  0.4833
 5388TIP3    H237656   4.044   0.358  13.894 -0.0450  2.8095  1.7076
 5389TIP3   OH237657   1.580   1.083  12.500 -0.3492  0.0850  0.3085
 5389TIP3    H137658   1.593   1.162  12.448  1.2990  0.2470  0.8897
 5389TIP3    H237659   1.495   1.095  12.542 -0.7622  0.8774 -0.7129
 5390TIP3   OH237660   2.569   3.833  14.236  0.0070 -0.0065 -0.2510
 5390TIP3    H137661   2.510   3.825  14.161 -1.7816  2.2379  0.7812
 5390TIP3    H237662   2.627   3.757  14.230 -3.3271 -2.7096 -1.0293
 5391TIP3   OH237663   0.447   2.982  15.314  0.5576 -0.4721 -0.2920
 5391TIP3    H137664   0.468   3.071  15.342 -1.1438 -0.2286  0.3446
 5391TIP3    H237665   0.398   2.945  15.387  0.9306 -1.8104 -0.6969
 5392TIP3   OH237666   4.940   6.606   3.028  0.5799  0.3027  0.0204
 5392TIP3    H137667   4.962   6.691   3.067  2.3917  0.3921 -1.0790
 5392TIP3    H237668   4.851   6.617   2.996 -0.2930  0.8252  2.3944
 5393TIP3   OH237669   3.862   1.849  14.925  0.1343  0.6745 -0.4165
 5393TIP3    H137670   3.956   1.864  14.911  0.6396 -0.4790  1.2671
 5393TIP3    H237671   3.826   1.838  14.838  1.4290  1.8876 -1.1468
 5394TIP3   OH237672   0.167   1.675   5.323 -0.1110 -0.4010  0.5646
 5394TIP3    H137673   0.205   1.588   5.312  0.0204 -0.3817  0.8711
 5394TIP3    H237674   0.150   1.704   5.233 -2.0206 -1.5485  0.5068
 5395TIP3   OH237675   4.831   0.767  13.173  0.4346 -0.2818  0.2160
 5395TIP3    H137676   4.865   0.857  13.167  2.1441 -0.9617 -1.0718
 5395TIP3    H237677   4.816   0.753  13.266 -0.3317  1.4759  0.4073
 5396TIP3   OH237678   6.604   3.515  14.881 -0.3835 -0.0895  0.1659
 5396TIP3    H137679   6.541   3.533  14.812 -0.3340 -0.1433  0.1070
 5396TIP3    H237680   6.572   3.435  14.923  0.0864 -0.5679 -0.3798
 5397TIP3   OH237681   6.627   4.014  12.007 -0.4301  0.7354  0.1743
 5397TIP3    H137682   6.702   3.983  12.056  1.0471  2.8461 -0.6200
 5397TIP3    H237683   6.654   4.099  11.971 -2.3312  0.4987 -2.1158
 5398TIP3   OH237684   5.478   6.734   5.042  0.9802  0.3385  0.4957
 5398TIP3    H137685   5.412   6.746   5.110  1.3220 -0.8228  1.0501
 5398TIP3    H237686   5.430   6.695   4.968  0.1323  3.5742 -0.8436
 5399TIP3   OH237687   1.464   6.252  12.199 -0.0025 -0.3667 -0.2908
 5399TIP3    H137688   1.432   6.341  12.215 -1.2429 -1.2289  2.8450
 5399TIP3    H237689   1.389   6.196  12.218  1.0689 -2.1515 -1.0936
 5400TIP3   OH237690   5.035   5.916   0.191  0.2232 -0.4186 -0.3340
 5400TIP3    H137691   4.981   5.945   0.264  2.3934 -0.1156  1.2557
 5400TIP3    H237692   5.037   5.991   0.131 -0.7837 -0.3171 -0.2642
 5401TIP3   OH237693   5.422   6.500   5.313 -0.2192 -0.3461 -0.0241
 5401TIP3    H137694   5.391   6.574   5.365 -0.0145 -0.6496  0.5361
 5401TIP3    H237695   5.371   6.425   5.344  0.4047 -0.6682  0.2521
 5402TIP3   OH237696   3.402   2.110   2.372 -0.2170 -0.1034 -0.8505
 5402TIP3    H137697   3.427   2.021   2.346 -2.2521 -0.3621 -2.1935
 5402TIP3    H237698   3.306   2.109   2.370 -0.4495  1.1020  2.8158
 5403TIP3   OH237699   6.021   1.145   0.051 -0.1100 -0.1281 -0.6527
 5403TIP3    H137700   5.937   1.133   0.006 -0.1349 -2.6002 -0.1187
 5403TIP3    H237701   6.086   1.138  -0.018 -0.2437 -1.4876 -0.6618
 5404TIP3   OH237702   0.957   5.492  14.298 -0.0036  0.0629  0.4228
 5404TIP3    H137703   0.932   5.423  14.237 -0.9743  1.0601 -0.3546
 5404TIP3    H237704   0.884   5.497  14.360  0.8804 -0.7989  1.5724
 5405TIP3   OH237705   1.073   5.649   2.820 -0.1051  0.1141  0.2085
 5405TIP3    H137706   0.995   5.696   2.789 -0.2537  1.4952  2.4752
 5405TIP3    H237707   1.145   5.691   2.774 -0.4282  1.0930  0.5760
 5406TIP3   OH237708   4.094   3.653  15.257 -0.4382  0.3320 -0.3239
 5406TIP3    H137709   4.131   3.567  15.241 -0.2163  0.1997  0.8126
 5406TIP3    H237710   4.016   3.637  15.311  0.4286  0.9050  1.1823
 5407TIP3   OH237711   2.893   4.775   3.580  0.0778 -0.1304 -0.8517
 5407TIP3    H137712   2.907   4.708   3.647 -0.5563  0.0654 -0.5099
 5407TIP3    H237713   2.905   4.858   3.627  0.0749  0.0060 -1.0886
 5408TIP3   OH237714   6.234   1.980   0.841 -0.4367  0.0229  0.2773
 5408TIP3    H137715   6.187   2.056   0.805 -2.8806 -1.7204 -0.4637
 5408TIP3    H237716   6.233   1.916   0.770 -1.1801 -1.7925  1.8472
 5409TIP3   OH237717   0.656   4.866  10.882  0.1688 -0.3944  0.2980
 5409TIP3    H137718   0.704   4.945  10.908 -1.2076 -0.4793  3.4795
 5409TIP3    H237719   0.611   4.891  10.801 -1.8181  2.9019  2.1944
 5410TIP3   OH237720   1.840   5.237   5.834 -0.4923  0.0861  0.1774
 5410TIP3    H137721   1.848   5.308   5.771  0.3355  1.6008  1.8938
 5410TIP3    H237722   1.931   5.210   5.851 -0.5328  0.8896  1.9327
 5411TIP3   OH237723   5.901   2.583   4.231  0.1734 -0.1363 -0.0706
 5411TIP3    H137724   5.952   2.644   4.179  0.0548  0.4194  0.4458
 5411TIP3    H237725   5.815   2.581   4.189  1.1120 -2.5642 -2.1138
 5412TIP3   OH237726   1.810   3.126  17.055  0.5917 -0.2853  0.4216
 5412TIP3    H137727   1.759   3.191  17.007  2.2873  0.7122 -0.1286
 5412TIP3    H237728   1.768   3.121  17.141 -0.7117  0.1025 -0.1742
 5413TIP3   OH237729   0.323   5.733   5.405 -0.0779  0.4247  0.1475
 5413TIP3    H137730   0.310   5.770   5.492 -0.4248 -1.1019  0.7770
 5413TIP3    H237731   0.413   5.755   5.382 -0.4073  2.0434  0.2598
 5414TIP3   OH237732   1.861   2.360  17.104  0.1852 -0.1929 -0.2809
 5414TIP3    H137733   1.826   2.327  17.187  1.8991 -1.6785 -0.0633
 5414TIP3    H237734   1.813   2.441  17.087 -2.9219 -1.7806  0.1856
 5415TIP3   OH237735   4.943   3.590  16.101  0.1649 -0.1644  0.3082
 5415TIP3    H137736   4.984   3.670  16.136 -1.9902  1.0272  0.2548
 5415TIP3    H237737   5.006   3.558  16.036  0.2397  2.6367 -1.1501
 5416TIP3   OH237738   6.192   5.094   2.731 -0.3212 -0.4514  0.0222
 5416TIP3    H137739   6.268   5.117   2.784 -0.2349  1.3010 -0.8024
 5416TIP3    H237740   6.227   5.037   2.662  0.1524 -0.1521  0.0100
 5417TIP3   OH237741   6.363   1.762  11.578 -0.0412  0.0702 -0.1361
 5417TIP3    H137742   6.424   1.812  11.632 -0.9505  1.6163 -0.4799
 5417TIP3    H237743   6.359   1.810  11.495 -1.1636 -0.4087 -0.3859
 5418TIP3   OH237744   1.012   3.891   4.451 -0.2905  0.1723 -0.2606
 5418TIP3    H137745   1.071   3.878   4.526 -0.4684  0.6482 -0.0274
 5418TIP3    H237746   0.926   3.905   4.491 -0.4825 -0.0922 -0.5790
 5419TIP3   OH237747   3.783   2.619   2.897 -0.3090  0.5744  0.1858
 5419TIP3    H137748   3.768   2.557   2.968 -0.5254  0.4861  0.0644
 5419TIP3    H237749   3.732   2.696   2.920 -1.0717  0.2239 -0.2924
 5420TIP3   OH237750   4.771   3.574  13.384  0.0803  0.3023  0.2121
 5420TIP3    H137751   4.728   3.552  13.467 -0.2877 -0.4514 -0.1692
 5420TIP3    H237752   4.796   3.666  13.393 -0.5134  0.3979  0.9163
 5421TIP3   OH237753   0.963   5.194  16.247 -0.0438  0.6512 -0.2761
 5421TIP3    H137754   1.025   5.123  16.267  0.2545  1.2615  1.1208
 5421TIP3    H237755   0.939   5.180  16.156  1.7896  0.0991 -0.7311
 5422TIP3   OH237756   0.004   6.299  16.149 -0.4809 -0.7982 -0.3294
 5422TIP3    H137757   0.015   6.249  16.069 -1.3628 -0.9595 -0.3657
 5422TIP3    H237758   0.091   6.333  16.170 -0.5702  0.9151 -2.4320
 5423TIP3   OH237759   4.094   1.342  16.121  0.3210  0.2704  0.4127
 5423TIP3    H137760   4.174   1.393  16.111  0.7420 -0.6915 -1.5632
 5423TIP3    H237761   4.124   1.255  16.148 -0.0730  0.0389  0.1199
 5424TIP3   OH237762   4.966   2.528  16.505 -0.2289  0.4855  0.0250
 5424TIP3    H137763   4.947   2.615  16.470  0.7178  0.7814  0.2425
 5424TIP3    H237764   4.880   2.487  16.513 -0.5486  0.7424 -1.7654
 5425TIP3   OH237765   5.083   6.079  11.242 -0.4203 -0.1197 -0.1256
 5425TIP3    H137766   5.138   6.106  11.317 -1.8280  1.0761  0.5248
 5425TIP3    H237767   5.091   6.151  11.180  0.4312 -0.9363 -0.9910
 5426TIP3   OH237768   4.802   0.210   5.462  0.4441  0.0771 -0.2937
 5426TIP3    H137769   4.780   0.123   5.429  1.6523 -0.6143  0.6601
 5426TIP3    H237770   4.889   0.228   5.428  1.1372 -0.0617  1.3068
 5427TIP3   OH237771   1.472   2.696   5.341  0.6189  0.2608  0.4538
 5427TIP3    H137772   1.475   2.786   5.372  2.8270 -0.5887  3.0791
 5427TIP3    H237773   1.523   2.696   5.261  0.1455  1.4136  0.1306
 5428TIP3   OH237774   5.488   6.073  15.440  0.1397  0.0045 -0.9693
 5428TIP3    H137775   5.416   6.019  15.407 -0.0312 -0.0083 -0.5875
 5428TIP3    H237776   5.481   6.066  15.535 -0.4071  1.3591 -0.8844
 5429TIP3   OH237777   2.348   3.820  14.408  0.2476 -0.7126  0.7585
 5429TIP3    H137778   2.432   3.832  14.363  0.3579 -0.1772  1.0975
 5429TIP3    H237779   2.284   3.865  14.352  0.0928 -1.5796  0.2231
 5430TIP3   OH237780   4.527   5.403   0.653 -0.1469  0.0802  0.2211
 5430TIP3    H137781   4.543   5.316   0.616 -1.3620  0.1849 -0.6172
 5430TIP3    H237782   4.438   5.398   0.688  0.7941  0.1322  2.8257
 5431TIP3   OH237783   6.813   0.575  16.467  0.3252 -0.1455 -0.4217
 5431TIP3    H137784   6.863   0.587  16.386 -1.5129  0.7532 -1.4880
 5431TIP3    H237785   6.743   0.515  16.443  1.6738 -2.6418  1.4444
 5432TIP3   OH237786   3.074   6.173  16.861  0.2962 -0.1698 -0.0879
 5432TIP3    H137787   3.095   6.244  16.801  1.4419 -0.7098 -0.3552
 5432TIP3    H237788   3.037   6.105  16.805 -0.0201 -0.1132  0.0464
 5433TIP3   OH237789   6.667   0.446   3.048 -0.0614  0.2792 -0.6063
 5433TIP3    H137790   6.725   0.473   2.977 -0.2809 -1.4514 -1.5145
 5433TIP3    H237791   6.720   0.456   3.127  0.3708  1.7346 -1.0475
 5434TIP3   OH237792   0.222   4.717  15.799 -0.1993  0.0849 -0.0848
 5434TIP3    H137793   0.186   4.661  15.731  0.0578  0.8258 -0.8480
 5434TIP3    H237794   0.200   4.672  15.881 -0.2078 -0.9994 -0.6561
 5435TIP3   OH237795   0.843   1.257   1.846  0.0793  0.4213  0.1452
 5435TIP3    H137796   0.871   1.229   1.933 -0.8286  1.3916  0.7740
 5435TIP3    H237797   0.784   1.189   1.816 -0.8087  0.8100  0.9546
 5436TIP3   OH237798   5.199   3.820  12.876  0.3735  1.0217  0.7562
 5436TIP3    H137799   5.246   3.895  12.838 -0.7899  1.5869  0.3804
 5436TIP3    H237800   5.268   3.764  12.911  1.3301  1.8000  0.1814
 5437TIP3   OH237801   0.110   2.026   5.237 -0.0720 -0.1170 -0.1784
 5437TIP3    H137802   0.147   1.978   5.162  1.2627  0.2360  0.2210
 5437TIP3    H237803   0.018   2.002   5.238 -0.3536  0.5864 -2.5186
 5438TIP3   OH237804   3.958   2.889  14.280 -0.5983 -0.1797 -0.3968
 5438TIP3    H137805   3.943   2.966  14.334 -2.3715 -0.7346 -0.0166
 5438TIP3    H237806   3.966   2.923  14.191 -0.7385  0.4968 -0.1573
 5439TIP3   OH237807   5.091   4.972  15.432 -0.3123 -0.2272 -0.2561
 5439TIP3    H137808   5.171   5.024  15.439 -1.0342  0.7808  1.0009
 5439TIP3    H237809   5.058   4.991  15.345 -0.8022  1.8783  0.3151
 5440TIP3   OH237810   0.881   1.358   5.939 -0.3256  0.1360  0.2411
 5440TIP3    H137811   0.907   1.363   6.031  1.2088 -1.5627 -0.0425
 5440TIP3    H237812   0.963   1.353   5.891 -1.1039 -1.4343 -1.0167
 5441TIP3   OH237813   0.603   5.594  11.808 -0.5162 -0.0441  0.1091
 5441TIP3    H137814   0.618   5.604  11.902 -1.3914  0.0963  0.2421
 5441TIP3    H237815   0.686   5.617  11.767 -0.0285 -0.4392  0.8668
 5442TIP3   OH237816   0.725   1.095  16.969 -0.2557  0.1988 -0.3413
 5442TIP3    H137817   0.691   1.148  17.041  0.3012 -0.8273  0.6999
 5442TIP3    H237818   0.750   1.012  17.010  0.0046 -0.4285 -1.7326
 5443TIP3   OH237819   6.619   6.259   0.029 -0.1355 -0.1385 -0.1463
 5443TIP3    H137820   6.642   6.215   0.111  0.8289  0.8637  0.1448
 5443TIP3    H237821   6.647   6.349   0.041 -2.6349  0.7696 -0.4866
 5444TIP3   OH237822   0.735   4.887   1.303  0.0858 -0.0160 -0.2708
 5444TIP3    H137823   0.808   4.826   1.301 -1.1320 -1.6282  1.4049
 5444TIP3    H237824   0.764   4.958   1.360  0.3201 -0.6913  0.4600
 5445TIP3   OH237825   3.565   4.727  12.855 -0.1795  0.5162 -0.1921
 5445TIP3    H137826   3.593   4.700  12.767 -1.2041  0.9029 -0.6578
 5445TIP3    H237827   3.578   4.650  12.910  0.2659  0.2025 -0.7246
 5446TIP3   OH237828   3.767   1.779  15.179 -0.1866  0.3432  0.6964
 5446TIP3    H137829   3.776   1.869  15.212 -0.2458  0.5418  0.1890
 5446TIP3    H237830   3.789   1.786  15.086  0.2310 -0.2541  0.7492
 5447TIP3   OH237831   0.341   3.613   1.668 -1.3853 -0.1616  0.0633
 5447TIP3    H137832   0.371   3.700   1.696  1.3008 -1.0227  0.1879
 5447TIP3    H237833   0.390   3.552   1.723 -4.2771 -1.8443  1.0000
 5448TIP3   OH237834   5.591   5.819   5.305  0.6982 -0.4429 -0.0403
 5448TIP3    H137835   5.616   5.777   5.223  3.9419 -1.9969  1.5413
 5448TIP3    H237836   5.555   5.747   5.358  1.9765 -0.3111  1.0707
 5449TIP3   OH237837   4.801   4.531  16.418  0.6233  0.1384 -0.1640
 5449TIP3    H137838   4.720   4.580  16.430  0.3084 -0.5067  0.3913
 5449TIP3    H237839   4.866   4.579  16.470  0.6506  0.7651 -0.7673
 5450TIP3   OH237840   2.904   6.306   0.341 -0.1518  0.2666  0.1173
 5450TIP3    H137841   2.982   6.320   0.287  1.2221 -1.9987  1.3518
 5450TIP3    H237842   2.935   6.318   0.431 -1.0877 -1.0952  0.6537
 5451TIP3   OH237843   4.550   2.211  16.632  0.3147  0.1594  0.4463
 5451TIP3    H137844   4.527   2.186  16.722  1.2836 -0.2629  0.5949
 5451TIP3    H237845   4.628   2.159  16.613 -0.1491 -0.1029 -0.8113
 5452TIP3   OH237846   1.656   1.504   0.804  0.0400 -0.2855 -0.2571
 5452TIP3    H137847   1.740   1.537   0.835  0.8716 -1.5068 -1.1114
 5452TIP3    H237848   1.591   1.564   0.842  1.1595 -0.2577  1.7454
 5453TIP3   OH237849   6.744   2.756  10.813  0.2801  0.2220 -0.3916
 5453TIP3    H137850   6.794   2.743  10.894 -1.2882  1.2232  0.7959
 5453TIP3    H237851   6.715   2.847  10.817 -0.6363  0.0122 -1.6246
 5454TIP3   OH237852   1.332   1.814   4.756  0.4816  0.1623  0.2730
 5454TIP3    H137853   1.345   1.907   4.772 -1.8795  0.3302  1.6613
 5454TIP3    H237854   1.346   1.804   4.662 -1.0053  2.2873 -0.2424
 5455TIP3   OH237855   3.600   1.673  16.110 -0.0677 -0.0316  0.3207
 5455TIP3    H137856   3.642   1.593  16.142 -1.0662 -1.1979 -1.1739
 5455TIP3    H237857   3.541   1.699  16.181  0.9257 -0.0703  1.1897
 5456TIP3   OH237858   6.387   1.118   0.651  0.2442  0.2568  0.6233
 5456TIP3    H137859   6.433   1.119   0.567 -0.3778  1.7615  0.2674
 5456TIP3    H237860   6.450   1.153   0.714  1.3177 -2.4525  1.1859
 5457TIP3   OH237861   0.344   4.364   5.268  0.2018  0.4503  0.3126
 5457TIP3    H137862   0.287   4.308   5.321  1.0887 -0.6361  0.1593
 5457TIP3    H237863   0.416   4.307   5.241  1.5169  1.8290  0.7048
 5458TIP3   OH237864   4.557   2.678  12.335  0.0774 -0.2854  0.2199
 5458TIP3    H137865   4.490   2.701  12.271  0.5106 -0.5936 -0.3502
 5458TIP3    H237866   4.576   2.761  12.380  0.0483  0.0185 -0.3157
 5459TIP3   OH237867   1.708   5.142  12.006 -0.0148  0.2630  0.2495
 5459TIP3    H137868   1.640   5.192  11.962 -0.1419 -0.4100 -0.3489
 5459TIP3    H237869   1.725   5.189  12.088  0.1247  1.4682 -0.4477
 5460TIP3   OH237870   2.792   1.303   4.569 -0.2087 -0.3539 -0.1474
 5460TIP3    H137871   2.772   1.328   4.479 -1.2233 -1.7638 -0.3436
 5460TIP3    H237872   2.706   1.287   4.609  0.2895 -1.0090  0.6892
 5461TIP3   OH237873   6.412   3.039   2.202 -0.1669  0.2439  0.2672
 5461TIP3    H137874   6.340   3.014   2.144 -1.2094  0.3070  1.4881
 5461TIP3    H237875   6.491   3.028   2.149 -1.1349  1.0971 -1.4330
 5462TIP3   OH237876   5.484   3.731   2.739  0.3488 -0.0345 -0.2276
 5462TIP3    H137877   5.407   3.686   2.705 -0.2994  0.3332  0.7030
 5462TIP3    H237878   5.454   3.822   2.752  0.8698  0.0592  0.3489
 5463TIP3   OH237879   1.090   5.460  15.977  0.4433 -0.0173 -0.4378
 5463TIP3    H137880   1.133   5.374  15.974  0.1801 -0.1628 -0.1392
 5463TIP3    H237881   1.084   5.481  16.070 -0.0605  0.0346 -0.4774
 5464TIP3   OH237882   3.006   5.458  15.723  0.1715 -0.2588  0.3386
 5464TIP3    H137883   3.093   5.484  15.755 -0.3410  0.6640  1.0576
 5464TIP3    H237884   3.022   5.424  15.635  1.2419  0.0281  0.4000
 5465TIP3   OH237885   4.795   4.290   3.758  0.1224 -0.0962  0.0719
 5465TIP3    H137886   4.828   4.220   3.702  2.4002 -0.3096  1.5393
 5465TIP3    H237887   4.807   4.370   3.708  1.4119 -0.3604 -0.0686
 5466TIP3   OH237888   4.500   0.995  16.589 -0.0978  0.0477 -0.0597
 5466TIP3    H137889   4.488   0.938  16.665 -0.9336 -0.0727 -0.2709
 5466TIP3    H237890   4.509   0.935  16.515 -0.1592  0.1707 -0.1696
 5467TIP3   OH237891   2.663   4.240   5.951 -0.0196 -0.2075 -0.2844
 5467TIP3    H137892   2.664   4.195   5.866  0.8224  0.5542 -0.6874
 5467TIP3    H237893   2.582   4.209   5.992 -0.7526 -0.1546 -1.6019
 5468TIP3   OH237894   1.137   0.827  13.605  0.2093  0.0818  0.5442
 5468TIP3    H137895   1.066   0.764  13.618  1.4852 -1.2926  1.1836
 5468TIP3    H237896   1.173   0.806  13.519 -0.6353  1.3000 -0.1289
 5469TIP3   OH237897   3.723   1.527   3.355 -0.0824 -0.0253 -0.2677
 5469TIP3    H137898   3.815   1.535   3.329 -0.3392  0.7437 -0.9702
 5469TIP3    H237899   3.674   1.541   3.274 -0.9001  2.1888  0.5434
 5470TIP3   OH237900   5.078   3.998  16.315  0.1707  0.4608  0.4658
 5470TIP3    H137901   5.144   4.045  16.265 -0.3345  0.5902 -0.0961
 5470TIP3    H237902   5.126   3.954  16.385  1.0065 -0.3958 -0.6168
 5471TIP3   OH237903   5.348   3.848  11.276  0.0144 -0.3459  0.0985
 5471TIP3    H137904   5.392   3.920  11.323 -0.5032 -0.3203  0.5552
 5471TIP3    H237905   5.255   3.862  11.293 -0.0930 -1.0955  0.1505
 5472TIP3   OH237906   5.879   4.236   4.392 -0.0650  0.1824 -0.0728
 5472TIP3    H137907   5.859   4.328   4.410  1.1611  0.4714 -0.0816
 5472TIP3    H237908   5.916   4.203   4.474  1.0618  0.1835 -0.5540
 5473TIP3   OH237909   4.183   2.255  16.597  0.0930 -0.1129  0.0646
 5473TIP3    H137910   4.277   2.269  16.599  0.1045  0.0196 -0.9092
 5473TIP3    H237911   4.169   2.180  16.655  1.0597 -1.4746 -1.3820
 5474TIP3   OH237912   5.979   5.479  13.215  0.2631  0.0401  0.0508
 5474TIP3    H137913   5.925   5.410  13.177  1.4797 -0.2076 -1.2835
 5474TIP3    H237914   5.950   5.483  13.306 -1.0836 -0.9784 -0.2909
 5475TIP3   OH237915   2.065   6.793  11.475 -0.0263  0.1159  0.0074
 5475TIP3    H137916   2.057   6.703  11.505 -1.6110  0.6172  1.2237
 5475TIP3    H237917   2.134   6.831  11.529  1.0676 -0.4863 -0.9136
 5476TIP3   OH237918   1.211   0.526  13.150  0.3869 -0.0625  0.0486
 5476TIP3    H137919   1.249   0.586  13.086 -0.8498  1.2483  0.4857
 5476TIP3    H237920   1.128   0.499  13.111  0.1426 -0.1285  0.5980
 5477TIP3   OH237921   0.541   2.655  12.411 -0.0279 -0.5567  0.1505
 5477TIP3    H137922   0.595   2.614  12.344  0.2953  0.8026 -0.4514
 5477TIP3    H237923   0.508   2.582  12.463  0.9530 -1.5336 -0.5506
 5478TIP3   OH237924   2.811   6.251  14.225 -0.3175  0.0264 -0.5191
 5478TIP3    H137925   2.746   6.318  14.244  0.2182 -0.0542  1.8381
 5478TIP3    H237926   2.860   6.286  14.150 -0.6970  1.8127  0.0163
 5479TIP3   OH237927   2.388   6.299   1.318 -1.1417  0.2075 -0.7229
 5479TIP3    H137928   2.431   6.308   1.403 -2.0910 -0.4921 -0.1439
 5479TIP3    H237929   2.460   6.299   1.255 -0.3107 -0.6051  0.1815
 5480TIP3   OH237930   4.991   5.152  11.603 -0.3189 -0.0586 -0.3674
 5480TIP3    H137931   4.967   5.231  11.651  1.4961  1.2977 -1.5354
 5480TIP3    H237932   5.017   5.184  11.516  1.3298 -1.8050 -0.5876
 5481TIP3   OH237933   5.552   0.726   1.911 -0.1835  0.5816 -0.4193
 5481TIP3    H137934   5.554   0.730   1.815 -1.4370 -2.9336 -0.7488
 5481TIP3    H237935   5.642   0.701   1.935 -0.3401 -0.4390 -0.8664
 5482TIP3   OH237936   0.994   4.398   5.006 -0.2931  0.1740 -0.5991
 5482TIP3    H137937   0.998   4.399   4.910 -0.1910  0.5313 -0.5920
 5482TIP3    H237938   1.079   4.361   5.033 -0.4619 -0.2603 -0.6521
 5483TIP3   OH237939   0.367   3.403   0.813  0.5609  0.1692  0.4303
 5483TIP3    H137940   0.416   3.439   0.739 -0.8241  1.6554  0.1756
 5483TIP3    H237941   0.275   3.420   0.791  0.0523 -0.4273  1.9516
 5484TIP3   OH237942   2.252   2.315   2.837 -0.5516 -0.2243  0.4900
 5484TIP3    H137943   2.332   2.264   2.850 -0.2593  0.5704  2.0971
 5484TIP3    H237944   2.203   2.302   2.919 -1.9373 -0.4365 -0.3374
 5485TIP3   OH237945   2.858   1.164   3.611 -0.2931 -0.2560  0.3881
 5485TIP3    H137946   2.910   1.237   3.578  0.6889 -1.1679 -0.1739
 5485TIP3    H237947   2.818   1.126   3.533  0.6791 -1.4014  0.4147
 5486TIP3   OH237948   2.811   1.802  13.977 -0.2470  0.0221 -0.0453
 5486TIP3    H137949   2.854   1.725  13.938  1.5664  0.2664  1.3301
 5486TIP3    H237950   2.883   1.860  14.001 -1.3191  0.4889  2.3439
 5487TIP3   OH237951   4.885   0.711  10.865  0.2010  0.1334  0.0184
 5487TIP3    H137952   4.861   0.801  10.889 -0.0094 -0.6298  3.0450
 5487TIP3    H237953   4.924   0.719  10.778 -0.7081  2.9949 -0.2333
 5488TIP3   OH237954   6.505   0.800   0.985 -0.5427  0.1343  0.2795
 5488TIP3    H137955   6.441   0.827   0.918  0.9718 -0.2867 -1.4077
 5488TIP3    H237956   6.583   0.851   0.965  0.2834 -0.7849  1.0826
 5489TIP3   OH237957   5.025   3.508   3.393  0.7264  0.3947 -0.2510
 5489TIP3    H137958   4.961   3.558   3.444 -0.1159  2.5010 -3.0921
 5489TIP3    H237959   5.109   3.550   3.414  0.3320  1.5350 -0.8261
 5490TIP3   OH237960   3.522   4.879   2.727  0.1700 -0.2750  0.0722
 5490TIP3    H137961   3.505   4.803   2.782 -0.1146 -0.8899 -0.8431
 5490TIP3    H237962   3.570   4.845   2.652  0.4881  0.5315 -0.1048
 5491TIP3   OH237963   4.930   3.204   1.077  0.7737  0.0023 -0.2448
 5491TIP3    H137964   4.898   3.184   0.989  1.2270  0.7142 -0.5834
 5491TIP3    H237965   4.921   3.122   1.125  1.0142 -0.5457 -1.1029
 5492TIP3   OH237966   1.885   4.917   3.924 -0.6564 -0.2994 -0.0964
 5492TIP3    H137967   1.892   4.949   3.834  1.3808  1.9411  0.7227
 5492TIP3    H237968   1.821   4.975   3.965 -0.5214 -0.3829  0.2348
 5493TIP3   OH237969   0.572   0.315   2.290 -0.0272  0.4249  0.4494
 5493TIP3    H137970   0.481   0.330   2.264 -0.1219  1.0064  1.0958
 5493TIP3    H237971   0.610   0.267   2.216 -0.8768  0.1006  0.2125
 5494TIP3   OH237972   1.130   1.727   4.478 -0.0303 -0.7324  0.2940
 5494TIP3    H137973   1.130   1.806   4.424  0.4531 -0.8855  0.0602
 5494TIP3    H237974   1.221   1.697   4.476  0.3405  0.0639  2.3839
 5495TIP3   OH237975   2.607   6.092   0.950 -0.1223 -0.2683  0.1905
 5495TIP3    H137976   2.616   5.998   0.963  0.7164 -0.0209  1.5865
 5495TIP3    H237977   2.521   6.103   0.910 -1.0113 -1.4937  1.6693
 5496TIP3   OH237978   5.087   3.267  17.203  0.1819 -0.0287 -0.1235
 5496TIP3    H137979   5.004   3.308  17.227  0.2462  0.1330 -0.1787
 5496TIP3    H237980   5.130   3.330  17.145  1.1155  0.6599  1.2651
 5497TIP3   OH237981   3.284   0.371   1.891 -0.4722  0.9875  0.0805
 5497TIP3    H137982   3.203   0.321   1.901 -0.5378  0.4253 -2.3825
 5497TIP3    H237983   3.270   0.423   1.812  1.4465  1.1062 -0.2314
 5498TIP3   OH237984   6.643   1.621  15.105 -0.0547 -0.0533  0.0636
 5498TIP3    H137985   6.571   1.667  15.062  0.7094  0.7312 -0.4051
 5498TIP3    H237986   6.719   1.679  15.095  0.8412 -1.2238 -0.1863
 5499TIP3   OH237987   4.066   0.835  13.070 -0.0513  0.5522 -0.0030
 5499TIP3    H137988   3.990   0.864  13.120 -1.4239  0.3266 -1.8641
 5499TIP3    H237989   4.041   0.750  13.035  1.6205 -0.1797  0.4707
 5500TIP3   OH237990   6.077   6.051  16.648  0.3135 -0.1354  0.2099
 5500TIP3    H137991   6.060   6.084  16.560  0.4689 -0.8019 -0.0739
 5500TIP3    H237992   6.166   6.016  16.644  0.9417  1.2693  1.0618
 5501TIP3   OH237993   3.308   2.197  16.486 -0.2731 -0.0082  0.2735
 5501TIP3    H137994   3.404   2.193  16.483 -0.2425  0.5320  0.5125
 5501TIP3    H237995   3.286   2.282  16.449 -0.6200  0.2135  0.9753
 5502TIP3   OH237996   3.366   3.542   0.426  0.6403 -0.1884  0.2211
 5502TIP3    H137997   3.338   3.540   0.517 -0.1321 -0.8917 -0.0147
 5502TIP3    H237998   3.370   3.449   0.401 -0.6816  0.0191 -0.8930
 5503TIP3   OH237999   0.629   1.639  13.326 -0.2176  0.2707  0.5297
 5503TIP3    H138000   0.679   1.688  13.391 -1.3747  1.5628  0.4904
 5503TIP3    H238001   0.639   1.547  13.352  1.1923  0.5730  1.1741
 5504TIP3   OH238002   0.344   4.046   4.821 -0.1329  0.6098 -0.1811
 5504TIP3    H138003   0.347   4.041   4.725  0.4786  0.1306 -0.1411
 5504TIP3    H238004   0.420   4.100   4.845 -0.6127  1.2162  0.0082
 5505TIP3   OH238005   3.666   4.005   4.157  0.1560  0.7529 -0.0177
 5505TIP3    H138006   3.609   4.075   4.125  1.7759  0.6324 -3.6049
 5505TIP3    H238007   3.745   4.051   4.188 -0.3444  0.6867  1.4313
 5506TIP3   OH238008   5.159   6.156  14.824 -0.1788 -0.2943 -0.5782
 5506TIP3    H138009   5.108   6.127  14.748 -0.1241 -2.5515  0.1711
 5506TIP3    H238010   5.104   6.221  14.867 -0.9531 -0.2549 -1.5946
 5507TIP3   OH238011   3.135   1.290  16.411 -0.4883  0.4369  0.1975
 5507TIP3    H138012   3.138   1.242  16.495 -0.6898 -0.0741 -0.0821
 5507TIP3    H238013   3.121   1.222  16.346  0.4028  0.7532 -0.3375
 5508TIP3   OH238014   1.394   5.032  16.051 -0.4048  0.3985  0.4981
 5508TIP3    H138015   1.372   4.952  16.005  1.0490 -0.0895  0.6002
 5508TIP3    H238016   1.486   5.047  16.030 -0.3266  1.3832  1.4464
 5509TIP3   OH238017   6.603   3.937   0.545 -0.0330 -0.1395 -0.3590
 5509TIP3    H138018   6.633   3.978   0.464  0.0445 -0.5291 -0.5323
 5509TIP3    H238019   6.526   3.987   0.571  1.0209  1.1660  0.3355
 5510TIP3   OH238020   3.353   4.044  14.527 -0.5397 -0.9769 -0.7272
 5510TIP3    H138021   3.404   4.065  14.605 -0.8009 -1.3696 -0.4457
 5510TIP3    H238022   3.271   4.093  14.538 -0.6331 -1.1392 -0.6809
 5511TIP3   OH238023   0.042   0.739   0.089  0.0547  0.1538  0.6158
 5511TIP3    H138024   0.051   0.715   0.181  0.2086  1.7933  1.0581
 5511TIP3    H238025   0.010   0.829   0.090  1.7637  0.8470 -0.9156
 5512TIP3   OH238026   3.932   3.590   5.348  0.4728  0.4104  0.7809
 5512TIP3    H138027   3.972   3.651   5.286  0.3696  0.7633  1.0582
 5512TIP3    H238028   3.984   3.599   5.428  0.1991  0.4477  0.9581
 5513TIP3   OH238029   0.566   5.156   6.037  0.2587 -0.1850  0.6658
 5513TIP3    H138030   0.597   5.178   6.125 -0.1321  0.3840  0.6592
 5513TIP3    H238031   0.569   5.238   5.988 -0.7191 -0.2417  0.4992
 5514TIP3   OH238032   0.628   6.236   5.374 -0.2746 -0.2510 -0.1155
 5514TIP3    H138033   0.664   6.257   5.461 -1.2720  1.7989 -0.1285
 5514TIP3    H238034   0.705   6.217   5.321  0.3867 -1.1386  1.0945
 5515TIP3   OH238035   2.196   6.056   4.758 -0.0256  1.2195 -0.0836
 5515TIP3    H138036   2.120   6.112   4.743  0.0357  1.1058 -0.8596
 5515TIP3    H238037   2.183   5.981   4.700 -0.6816 -0.1699  1.7433
 5516TIP3   OH238038   2.206   2.261   4.323 -0.5879 -0.1336 -0.2286
 5516TIP3    H138039   2.226   2.352   4.299 -1.2957 -0.3536 -1.7468
 5516TIP3    H238040   2.229   2.256   4.416  0.9422  1.1668 -0.4749
 5517TIP3   OH238041   1.419   1.323  16.103  0.8317 -0.4404 -0.3167
 5517TIP3    H138042   1.440   1.326  16.197  0.5471 -0.4718 -0.2525
 5517TIP3    H238043   1.395   1.413  16.081  1.8228 -0.2276 -0.5742
 5518TIP3   OH238044   1.383   4.250   0.411 -0.2048  0.0333  0.0854
 5518TIP3    H138045   1.441   4.229   0.337 -1.6681  1.1840 -1.4650
 5518TIP3    H238046   1.389   4.345   0.419 -0.0680 -0.0784  1.4956
 5519TIP3   OH238047   3.986   4.543   5.551  0.1417  0.4711 -0.3352
 5519TIP3    H138048   4.034   4.578   5.476  1.3420  0.7325  0.5258
 5519TIP3    H238049   3.949   4.620   5.593 -0.0540  0.3782 -0.3371
 5520TIP3   OH238050   5.031   4.911  12.170 -0.3534  0.8657 -0.0851
 5520TIP3    H138051   4.977   4.978  12.212  0.9106  1.4613  0.6360
 5520TIP3    H238052   5.049   4.946  12.082 -0.6536  0.9293 -0.1232
 5521TIP3   OH238053   0.508   0.097   4.936 -0.0568 -0.7278  0.0904
 5521TIP3    H138054   0.500   0.092   4.841  0.6617 -1.3857  0.0598
 5521TIP3    H238055   0.543   0.012   4.962 -0.1796 -0.5276  0.9379
 5522TIP3   OH238056   1.769   6.660  13.098 -0.1922  0.1214 -0.3083
 5522TIP3    H138057   1.686   6.670  13.143 -0.9949 -0.5744 -1.5796
 5522TIP3    H238058   1.750   6.680  13.006  0.9625 -0.3243 -0.6678
 5523TIP3   OH238059   6.424   0.816  11.006 -0.2845 -0.0407 -0.8110
 5523TIP3    H138060   6.416   0.787  10.915 -0.6129 -0.3503 -0.6844
 5523TIP3    H238061   6.377   0.750  11.057 -1.5147  0.9782 -0.5763
 5524TIP3   OH238062   4.608   3.217   6.362 -0.3382  0.1069  0.2097
 5524TIP3    H138063   4.556   3.156   6.414  1.3038 -1.3891  0.1856
 5524TIP3    H238064   4.544   3.264   6.309 -1.8015 -0.3316  1.5260
 5525TIP3   OH238065   4.291   6.277  11.943  0.0527 -0.1699 -0.3061
 5525TIP3    H138066   4.313   6.285  11.850  2.5332 -0.4372  0.1745
 5525TIP3    H238067   4.348   6.341  11.986 -1.5271  0.4061  0.9955
 5526TIP3   OH238068   5.954   4.343  12.048 -0.0713  0.1242  0.1308
 5526TIP3    H138069   5.969   4.416  12.107  1.3451  0.1735 -0.2510
 5526TIP3    H238070   6.033   4.289  12.055 -0.7191 -0.9135 -0.2401
 5527TIP3   OH238071   3.603   5.100  11.694  0.0387  0.1181  0.4550
 5527TIP3    H138072   3.673   5.153  11.732 -1.4578  1.1785  1.8487
 5527TIP3    H238073   3.568   5.152  11.622  0.5223 -0.3242 -0.1128
 5528TIP3   OH238074   2.813   5.423   2.920  0.1012  0.8791 -0.0366
 5528TIP3    H138075   2.732   5.462   2.887  0.6711  1.7414 -0.4444
 5528TIP3    H238076   2.882   5.480   2.887  0.9201 -0.1643 -0.1729
 5529TIP3   OH238077   1.567   4.399  15.908  0.4007 -0.0323 -0.4924
 5529TIP3    H138078   1.547   4.493  15.911 -0.8999 -0.2591 -1.0971
 5529TIP3    H238079   1.520   4.368  15.831  0.2236 -1.3234  0.1155
 5530TIP3   OH238080   2.402   3.137  15.669 -0.5478 -0.0902  0.4474
 5530TIP3    H138081   2.381   3.200  15.737  1.0576 -0.5709  1.4375
 5530TIP3    H238082   2.363   3.055  15.699 -1.7553  0.1571 -0.3454
 5531TIP3   OH238083   2.902   0.327  14.056 -0.1550  0.3762 -0.1965
 5531TIP3    H138084   2.962   0.303  14.126 -0.6029  1.5954  0.6358
 5531TIP3    H238085   2.945   0.399  14.011 -0.0332 -0.1664 -0.9847
 5532TIP3   OH238086   5.778   4.770  14.601  0.5097  0.2875  0.3274
 5532TIP3    H138087   5.779   4.779  14.696  0.9899 -0.0768  0.3646
 5532TIP3    H238088   5.766   4.676  14.587 -0.4429  0.4487  0.0171
 5533TIP3   OH238089   1.705   6.825  13.961  0.7123  0.0022  0.2241
 5533TIP3    H138090   1.637   6.844  14.025  0.7678  1.6560 -0.1482
 5533TIP3    H238091   1.657   6.803  13.881  0.6413 -1.3288  0.6205
 5534TIP3   OH238092   5.394   4.850  12.548 -0.2819 -0.5808  0.1838
 5534TIP3    H138093   5.418   4.803  12.469 -0.9764  0.4074 -0.6432
 5534TIP3    H238094   5.450   4.928  12.549 -2.2353  0.9335 -0.9434
 5535TIP3   OH238095   5.905   5.922   3.521 -0.0079  0.3933  0.5825
 5535TIP3    H138096   5.968   5.912   3.449 -0.0322  1.5442  0.3943
 5535TIP3    H238097   5.875   5.832   3.538  1.6898 -0.1842  0.7070
 5536TIP3   OH238098   3.443   1.814  15.109  0.4762  0.3063 -0.6641
 5536TIP3    H138099   3.358   1.779  15.136  0.5214 -0.4121 -1.4164
 5536TIP3    H238100   3.480   1.853  15.189  0.0622 -0.6470  0.0119
 5537TIP3   OH238101   0.891   6.737   1.894 -0.2672  0.1174  0.4478
 5537TIP3    H138102   0.799   6.721   1.914 -0.3340  0.0778  0.1172
 5537TIP3    H238103   0.897   6.727   1.799 -0.1569  1.2667  0.3213
 5538TIP3   OH238104   0.710   2.553   6.169 -0.1655  0.5248  0.0560
 5538TIP3    H138105   0.637   2.606   6.201  0.0087  1.6845 -1.3361
 5538TIP3    H238106   0.778   2.564   6.235 -0.9985 -0.0540  1.0490
 5539TIP3   OH238107   2.808   6.295   2.366  0.1479  0.4938  0.3546
 5539TIP3    H138108   2.819   6.386   2.392 -0.4147  0.8689 -0.6687
 5539TIP3    H238109   2.882   6.249   2.406  1.6340  1.7539 -0.8664
 5540TIP3   OH238110   0.721   0.635   2.721 -0.9747 -0.3198  0.0695
 5540TIP3    H138111   0.810   0.668   2.732 -0.8617  0.0211 -1.7065
 5540TIP3    H238112   0.714   0.611   2.629 -2.0226 -2.4948  0.6448
 5541TIP3   OH238113   6.682   5.967   3.325 -0.7883 -0.1134 -0.2205
 5541TIP3    H138114   6.701   5.924   3.241  1.3686 -1.1224  0.7207
 5541TIP3    H238115   6.676   5.895   3.388  1.5641  0.8222  1.1728
 5542TIP3   OH238116   2.921   2.912  13.011  0.2434 -0.7221  0.2005
 5542TIP3    H138117   3.009   2.886  12.983  0.3182 -0.5473  0.2785
 5542TIP3    H238118   2.903   2.994  12.964 -0.2372 -1.2204 -0.5255
 5543TIP3   OH238119   1.568   4.832   0.581  0.3633  0.1925  0.1315
 5543TIP3    H138120   1.627   4.785   0.522  1.3273 -0.9959  1.9682
 5543TIP3    H238121   1.616   4.911   0.605 -0.2560  0.9636 -1.0193
 5544TIP3   OH238122   3.938   0.955   0.932 -0.0717  0.0920  0.9240
 5544TIP3    H138123   3.889   1.033   0.906 -1.6028 -0.8089  0.9520
 5544TIP3    H238124   3.962   0.970   1.023  3.5660  2.3955 -0.2128
 5545TIP3   OH238125   3.580   4.359   0.798 -0.3872 -0.2877  0.5719
 5545TIP3    H138126   3.504   4.411   0.825 -0.6995 -1.0436  1.2307
 5545TIP3    H238127   3.558   4.328   0.710 -1.2840 -1.2437  1.0973
 5546TIP3   OH238128   1.547   5.294   3.044 -0.1118 -0.2948 -0.1651
 5546TIP3    H138129   1.634   5.332   3.057  0.3200 -1.4351  0.4502
 5546TIP3    H238130   1.544   5.274   2.951 -0.6419  1.8780 -0.6602
 5547TIP3   OH238131   4.721   4.336  15.676 -0.1882 -0.1230 -0.5442
 5547TIP3    H138132   4.675   4.268  15.725  0.5173  0.0923  0.4477
 5547TIP3    H238133   4.748   4.399  15.742  1.2139 -0.0660 -1.1346
 5548TIP3   OH238134   2.836   5.170  13.708 -0.0968 -0.4690 -0.3509
 5548TIP3    H138135   2.818   5.177  13.614 -2.1169  0.8095  0.0478
 5548TIP3    H238136   2.759   5.125  13.743 -0.7892  1.6315  1.0174
 5549TIP3   OH238137   5.311   1.542  15.398  0.0401 -0.2777 -0.1456
 5549TIP3    H138138   5.316   1.509  15.308 -0.4915 -0.0197 -0.2748
 5549TIP3    H238139   5.220   1.526  15.424 -0.9544  3.0478 -1.0037
 5550TIP3   OH238140   3.229   6.065   1.531  0.0855 -0.0391  0.1270
 5550TIP3    H138141   3.167   6.024   1.591  0.6044 -0.5073  0.3506
 5550TIP3    H238142   3.199   6.038   1.444  0.5265 -1.0594  0.2790
 5551TIP3   OH238143   4.369   3.493  14.458  0.0562  0.0603  0.5454
 5551TIP3    H138144   4.408   3.554  14.520 -2.6765  0.0016  2.5117
 5551TIP3    H238145   4.332   3.548  14.389  1.4074  0.2628 -0.0434
 5552TIP3   OH238146   3.346   0.904   3.763  0.1016 -0.1981 -0.5499
 5552TIP3    H138147   3.303   0.841   3.821  0.8070  0.3178  0.5757
 5552TIP3    H238148   3.339   0.865   3.676  2.3853 -2.9099  0.3331
 5553TIP3   OH238149   2.711   1.828   5.838  0.1265  0.0997 -0.0157
 5553TIP3    H138150   2.707   1.739   5.873  2.2554 -0.0881 -0.1205
 5553TIP3    H238151   2.804   1.846   5.830 -0.2048  2.8481  1.2519
 5554TIP3   OH238152   6.461   2.552   3.425  0.1898  0.1874 -0.3686
 5554TIP3    H138153   6.453   2.504   3.508 -1.6742 -0.8634 -1.1030
 5554TIP3    H238154   6.422   2.494   3.360  0.4030  1.5648 -1.7772
 5555TIP3   OH238155   1.140   5.008  15.652 -0.3967 -0.3932  0.6956
 5555TIP3    H138156   1.065   4.963  15.689 -1.4342 -1.6848 -2.5893
 5555TIP3    H238157   1.204   4.938  15.635 -0.0170  0.1030  0.0140
 5556TIP3   OH238158   4.586   2.045  14.912  0.1222 -0.2300 -0.6970
 5556TIP3    H138159   4.501   2.002  14.900  1.1209 -2.6283  0.2223
 5556TIP3    H238160   4.650   1.980  14.884  1.7194  0.8213  0.3578
 5557TIP3   OH238161   3.278   2.383   4.614 -0.2203 -0.1267 -0.0436
 5557TIP3    H138162   3.242   2.337   4.690  0.2694  0.3946  0.5023
 5557TIP3    H238163   3.222   2.355   4.541 -1.8089  0.7239  0.8020
 5558TIP3   OH238164   4.672   0.748  11.808  0.3159  0.3376 -0.3285
 5558TIP3    H138165   4.626   0.681  11.860  0.3517  1.3998  1.1568
 5558TIP3    H238166   4.759   0.752  11.848  0.6429  0.5722 -1.0622
 5559TIP3   OH238167   3.583   0.345  13.961  0.3741 -0.0880  0.0145
 5559TIP3    H138168   3.504   0.386  13.928  0.6003 -1.8389 -3.0541
 5559TIP3    H238169   3.552   0.273  14.017 -0.4170 -1.8626 -2.5194
 5560TIP3   OH238170   2.891   0.413  11.266  0.2710  0.6025 -0.0988
 5560TIP3    H138171   2.834   0.405  11.342  2.4859 -0.7736  1.5476
 5560TIP3    H238172   2.833   0.402  11.191 -1.8763  1.1881  1.3934
 5561TIP3   OH238173   0.852   2.953   1.235  0.0091 -0.1241  0.2301
 5561TIP3    H138174   0.827   2.866   1.265  0.5334 -0.9946 -1.7157
 5561TIP3    H238175   0.780   3.010   1.265 -1.0560 -1.4529  0.3020
 5562TIP3   OH238176   5.994   6.557   2.244  0.3115  0.2849 -0.0744
 5562TIP3    H138177   6.074   6.559   2.192  2.4488  3.1246  2.9323
 5562TIP3    H238178   5.952   6.474   2.221  4.8827 -2.1249 -0.7282
 5563TIP3   OH238179   2.755   1.349   5.909 -0.6096  0.2682  0.2345
 5563TIP3    H138180   2.841   1.318   5.879 -0.2340  0.8721  0.6844
 5563TIP3    H238181   2.735   1.293   5.984 -1.8537 -1.7028 -1.4621
 5564TIP3   OH238182   5.719   5.132  12.942  0.2656  0.5096 -0.3633
 5564TIP3    H138183   5.760   5.094  13.020 -0.2663 -1.8012 -1.1248
 5564TIP3    H238184   5.771   5.100  12.869 -1.9904 -1.4682 -1.2629
 5565TIP3   OH238185   1.102   6.428   5.618  0.8905  0.0174 -0.3396
 5565TIP3    H138186   1.116   6.483   5.541  1.4273 -1.9291 -1.7026
 5565TIP3    H238187   1.190   6.409   5.650  0.7171 -0.2353 -0.0079
 5566TIP3   OH238188   1.261   6.766   3.058  0.3583 -0.1693 -0.0065
 5566TIP3    H138189   1.303   6.852   3.060  2.4589 -1.1396  0.2592
 5566TIP3    H238190   1.219   6.757   3.143  2.5775 -0.4859  1.1355
 5567TIP3   OH238191   6.074   5.255   0.377 -0.4948 -0.4313 -0.3745
 5567TIP3    H138192   6.068   5.198   0.454 -1.9771 -1.3767 -1.1535
 5567TIP3    H238193   5.988   5.296   0.371  0.4022  1.6200 -0.0875
 5568TIP3   OH238194   3.587   2.883  16.933 -0.3505 -0.8206 -0.8149
 5568TIP3    H138195   3.596   2.832  16.852 -0.2338 -0.6198 -0.9304
 5568TIP3    H238196   3.528   2.832  16.987  0.5344 -1.5722 -0.5297
 5569TIP3   OH238197   4.351   0.779   3.797  0.7460  0.0996  0.4043
 5569TIP3    H138198   4.397   0.836   3.859 -0.0072  0.5575  0.5686
 5569TIP3    H238199   4.266   0.823   3.784  1.4075  0.7661 -2.0540
 5570TIP3   OH238200   6.335   0.231   3.447  0.4166  0.4058 -0.3812
 5570TIP3    H138201   6.416   0.181   3.454  0.1292  0.1181  1.4038
 5570TIP3    H238202   6.362   0.322   3.458  0.4275  0.2492  0.9924
 5571TIP3   OH238203   2.459   6.166  11.166  0.0193 -0.2164 -0.3087
 5571TIP3    H138204   2.467   6.071  11.176  0.8165 -0.2203 -0.8658
 5571TIP3    H238205   2.486   6.184  11.076 -0.6139  0.4949 -0.3735
 5572TIP3   OH238206   3.766   0.983  12.365  0.6597  0.4398 -0.0548
 5572TIP3    H138207   3.803   1.028  12.441  0.9900  0.1763 -0.0533
 5572TIP3    H238208   3.687   1.032  12.344 -0.0120 -0.1106  1.1090
 5573TIP3   OH238209   1.620   3.074  16.494  0.9894  0.0156  0.3231
 5573TIP3    H138210   1.559   3.116  16.556  0.6768  0.1215 -0.0445
 5573TIP3    H238211   1.639   2.989  16.532  0.6655  0.0129  0.4869
 5574TIP3   OH238212   0.870   5.233   6.679  0.0226  0.3548 -0.5641
 5574TIP3    H138213   0.876   5.327   6.697  1.4213 -0.0169  1.0974
 5574TIP3    H238214   0.896   5.224   6.588  0.9700  1.4716 -0.4165
 5575TIP3   OH238215   3.330   2.416  13.507 -0.0638 -0.3142 -0.6741
 5575TIP3    H138216   3.253   2.396  13.454 -0.2957  0.7547 -0.7552
 5575TIP3    H238217   3.352   2.332  13.549 -1.3916 -0.5904 -0.4732
 5576TIP3   OH238218   0.081   0.390  14.019 -0.6897 -0.0165 -0.1166
 5576TIP3    H138219   0.149   0.443  14.061  1.0738 -0.9074 -1.6796
 5576TIP3    H238220   0.059   0.323  14.084 -1.6411  1.4884  1.1869
 5577TIP3   OH238221   3.564   0.295   2.793  0.0361 -0.0455 -0.0230
 5577TIP3    H138222   3.650   0.264   2.767 -0.7515 -0.0675 -2.9559
 5577TIP3    H238223   3.541   0.241   2.869  1.8053 -1.3421 -0.3473
 5578TIP3   OH238224   0.945   5.751  14.530  0.1392  0.2201 -0.4842
 5578TIP3    H138225   1.025   5.714  14.494  0.5444 -1.9350  2.3280
 5578TIP3    H238226   0.933   5.706  14.613 -2.3767  2.6572  0.6171
 5579TIP3   OH238227   1.751   4.989  13.163  0.1549 -0.5954  0.1326
 5579TIP3    H138228   1.814   4.924  13.195  2.4180  1.8213  0.9622
 5579TIP3    H238229   1.752   4.980  13.068  2.9397  0.2847  0.0020
 5580TIP3   OH238230   3.507   0.357  11.927 -0.1491  0.3848 -0.3416
 5580TIP3    H138231   3.529   0.276  11.973 -0.2804 -1.3178 -3.0249
 5580TIP3    H238232   3.581   0.373  11.869 -1.3290  0.5520 -1.8759
 5581TIP3   OH238233   3.256   2.471  16.367  0.2432  0.0715 -0.8513
 5581TIP3    H138234   3.302   2.479  16.450 -2.4753 -0.9210  0.9038
 5581TIP3    H238235   3.190   2.541  16.369 -2.4967 -2.3096 -0.1606
 5582TIP3   OH238236   1.891   6.103   4.730 -0.4692  0.6094 -0.4707
 5582TIP3    H138237   1.853   6.023   4.766  0.2860  1.0532  1.4241
 5582TIP3    H238238   1.826   6.171   4.749  0.2755  0.9843  0.8024
 5583TIP3   OH238239   3.135   3.038   5.471 -0.6429  0.1862 -0.2739
 5583TIP3    H138240   3.196   3.068   5.538 -0.4903  0.4590 -0.5340
 5583TIP3    H238241   3.189   2.985   5.412 -0.2409  1.8901 -1.5232
 5584TIP3   OH238242   5.485   2.761   5.342  0.1090 -0.0987  0.0426
 5584TIP3    H138243   5.537   2.681   5.347 -1.0516 -0.8928  0.0019
 5584TIP3    H238244   5.417   2.749   5.409 -1.7669 -0.4522 -1.8150
 5585TIP3   OH238245   1.661   0.270   0.533  0.0061  0.1419  0.3466
 5585TIP3    H138246   1.743   0.307   0.500  0.4066 -1.5092 -0.6194
 5585TIP3    H238247   1.642   0.321   0.612  0.7685  2.0355 -0.6265
 5586TIP3   OH238248   2.587   6.389   4.085  0.3479  0.4563 -0.3850
 5586TIP3    H138249   2.533   6.347   4.152  2.4137 -0.8958  0.5558
 5586TIP3    H238250   2.599   6.321   4.019  2.7420 -0.1634  0.5721
 5587TIP3   OH238251   3.486   3.662  17.024 -0.5059  0.0402 -0.4348
 5587TIP3    H138252   3.575   3.638  16.998 -0.0798  0.1383  0.8830
 5587TIP3    H238253   3.438   3.579  17.023 -0.1281 -0.1872 -0.1091
 5588TIP3   OH238254   1.742   3.874   0.023 -0.2046 -0.2955  0.2124
 5588TIP3    H138255   1.678   3.824  -0.028 -0.3551 -0.6101  0.6985
 5588TIP3    H238256   1.800   3.807   0.060  0.5865  0.0064 -0.4622
 5589TIP3   OH238257   5.539   3.580   5.338 -0.0897  0.1783  0.2726
 5589TIP3    H138258   5.444   3.567   5.338 -0.0196 -0.8425 -2.0998
 5589TIP3    H238259   5.550   3.675   5.331 -1.0039  0.2081 -1.1778
 5590TIP3   OH238260   6.339   5.255  14.945 -0.1285  0.0421 -0.5296
 5590TIP3    H138261   6.260   5.213  14.979  1.2937 -1.3026  1.2751
 5590TIP3    H238262   6.377   5.299  15.021  2.0322 -1.2447 -0.7848
 5591TIP3   OH238263   3.776   1.584  14.466  0.2069  0.0289  0.5505
 5591TIP3    H138264   3.820   1.515  14.416 -1.9206 -1.7277  0.9350
 5591TIP3    H238265   3.740   1.540  14.543 -1.3959  1.5032  0.7293
 5592TIP3   OH238266   3.219   4.279   1.042  0.3933 -0.0877  0.1791
 5592TIP3    H138267   3.254   4.242   1.123  1.0744 -0.5096 -0.2986
 5592TIP3    H238268   3.239   4.372   1.048  1.1455 -0.2416  0.1501
 5593TIP3   OH238269   0.124   3.558  16.182  0.1063 -0.3969  0.0043
 5593TIP3    H138270   0.115   3.473  16.138 -0.1716 -0.1320 -0.4592
 5593TIP3    H238271   0.049   3.561  16.241  1.2919 -1.4143  1.6671
 5594TIP3   OH238272   3.874   5.571   4.022  0.0106 -0.0896  0.0582
 5594TIP3    H138273   3.846   5.565   4.113  1.1991  0.1029  0.4551
 5594TIP3    H238274   3.801   5.612   3.976  0.0836  1.4835  1.2762
 5595TIP3   OH238275   0.248   4.330  16.021 -0.1703  0.0574 -0.0080
 5595TIP3    H138276   0.169   4.374  16.054  0.9872  1.9847  0.3211
 5595TIP3    H238277   0.296   4.305  16.100 -1.0879 -2.4965 -0.1602
 5596TIP3   OH238278   2.837   4.202   3.619 -1.4048  0.1886  0.4205
 5596TIP3    H138279   2.844   4.264   3.691 -0.5114  0.3726  0.1881
 5596TIP3    H238280   2.826   4.116   3.661  2.9741 -0.3213  1.0187
 5597TIP3   OH238281   0.299   0.309   1.603 -0.6759 -0.7612  0.1025
 5597TIP3    H138282   0.383   0.351   1.585 -0.9506  0.3230  1.1780
 5597TIP3    H238283   0.263   0.359   1.676 -2.9695 -0.1930 -1.3248
 5598TIP3   OH238284   3.317   2.731  14.563  0.0586  0.6492 -0.2366
 5598TIP3    H138285   3.237   2.685  14.536 -0.5673  1.6269 -0.1187
 5598TIP3    H238286   3.388   2.681  14.524 -0.6319 -0.0651 -0.6135
 5599TIP3   OH238287   3.901   3.594   1.716 -0.0702  0.1066 -0.2174
 5599TIP3    H138288   3.840   3.588   1.789 -0.0319 -1.3060 -0.2869
 5599TIP3    H238289   3.891   3.684   1.685  1.1423  1.3556  2.5813
 5600TIP3   OH238290   6.431   0.377   2.429 -0.2440  0.0541  0.0035
 5600TIP3    H138291   6.405   0.313   2.495 -0.7294 -1.0872 -1.2334
 5600TIP3    H238292   6.526   0.366   2.421  0.0165  1.0672  1.3410
 5601TIP3   OH238293   2.035   5.649  15.586 -0.4142  0.4435 -0.6000
 5601TIP3    H138294   2.020   5.555  15.590  1.9775 -0.0482 -1.7935
 5601TIP3    H238295   2.045   5.667  15.492  0.1667  1.7207 -0.3063
 5602TIP3   OH238296   3.355   6.630   1.201  0.2825 -0.7438 -0.0352
 5602TIP3    H138297   3.369   6.644   1.294  1.6725  0.7754 -0.4153
 5602TIP3    H238298   3.441   6.606   1.167 -0.0248 -0.4857 -1.0334
 5603TIP3   OH238299   5.677   5.679  14.187 -0.1358  0.1758 -0.1507
 5603TIP3    H138300   5.736   5.751  14.209  2.3014 -1.8024  0.3836
 5603TIP3    H238301   5.713   5.604  14.235 -3.5201 -1.1062  0.7129
 5604TIP3   OH238302   6.740   0.678  13.876 -0.1602 -0.3151  0.0513
 5604TIP3    H138303   6.795   0.740  13.925 -0.2736 -0.7168  0.7025
 5604TIP3    H238304   6.792   0.657  13.798  0.5744 -0.6230  0.6099
 5605TIP3   OH238305   4.393   3.447  10.637 -0.0767 -0.1866  0.7118
 5605TIP3    H138306   4.435   3.432  10.553 -1.6161 -2.0881  0.2245
 5605TIP3    H238307   4.360   3.537  10.632  2.3824  0.7861  0.5026
 5606TIP3   OH238308   3.388   2.312   4.958 -0.4128  0.2561  0.3122
 5606TIP3    H138309   3.420   2.222   4.953  0.6590  0.6806 -1.2144
 5606TIP3    H238310   3.465   2.366   4.941 -1.0838  1.4621  0.9778
 5607TIP3   OH238311   2.232   1.800  16.283 -0.2796  0.0698  0.3082
 5607TIP3    H138312   2.224   1.763  16.370 -2.1639  0.7534  0.4631
 5607TIP3    H238313   2.296   1.870  16.292  0.8084 -0.9446  0.7334
 5608TIP3   OH238314   5.794   0.948  11.566 -0.1600 -0.1978  0.0093
 5608TIP3    H138315   5.726   0.917  11.626 -0.6740  0.5841 -0.1574
 5608TIP3    H238316   5.835   1.021  11.612 -2.2771  2.1400 -1.5591
 5609TIP3   OH238317   0.180   6.477  14.186 -0.6012  0.4421  0.0578
 5609TIP3    H138318   0.123   6.438  14.119 -1.3747  0.4361  0.7124
 5609TIP3    H238319   0.216   6.554  14.143  2.4757 -1.8530 -1.9785
 5610TIP3   OH238320   2.632   3.896  15.143  0.8536 -0.2594  0.5702
 5610TIP3    H138321   2.685   3.821  15.117 -0.7061 -1.3678  0.4359
 5610TIP3    H238322   2.556   3.858  15.186  0.7039  1.3295  1.8037
 5611TIP3   OH238323   0.151   3.576  13.703 -0.2871  0.4423 -0.3252
 5611TIP3    H138324   0.180   3.652  13.653  1.4027  0.2057  0.2290
 5611TIP3    H238325   0.209   3.505  13.676 -0.4655 -0.1166  0.6788
 5612TIP3   OH238326   0.707   1.201   2.535  0.7485 -0.4877  0.1128
 5612TIP3    H138327   0.711   1.145   2.457  0.9261  1.1768 -1.1353
 5612TIP3    H238328   0.797   1.207   2.565  1.0594  0.7561 -0.9952
 5613TIP3   OH238329   0.871   6.423  10.686  0.0843  0.1009  0.1138
 5613TIP3    H138330   0.958   6.385  10.700  0.8752  1.2118 -1.5482
 5613TIP3    H238331   0.814   6.347  10.669  1.2575 -0.4959 -1.3135
 5614TIP3   OH238332   1.895   0.621  14.261  0.3727 -0.0590 -0.4455
 5614TIP3    H138333   1.893   0.712  14.291  1.3710 -0.5638  1.3293
 5614TIP3    H238334   1.988   0.599  14.257  0.2109 -0.5329 -2.4841
 5615TIP3   OH238335   0.974   6.112  11.726  0.0638  0.2316  0.1424
 5615TIP3    H138336   0.956   6.130  11.633 -1.0748 -1.4655 -0.0164
 5615TIP3    H238337   0.888   6.092  11.763  0.4901  1.0540  1.6236
 5616TIP3   OH238338   2.704   2.772   4.656 -0.1850  0.1387  0.1166
 5616TIP3    H138339   2.628   2.791   4.711 -1.4281 -0.1388 -1.4277
 5616TIP3    H238340   2.668   2.724   4.581  1.3852  0.7750 -1.0956
 5617TIP3   OH238341   4.249   0.328  14.237 -0.0490  0.2766  0.4709
 5617TIP3    H138342   4.265   0.292  14.150  0.1626 -0.9078  0.9808
 5617TIP3    H238343   4.235   0.421  14.222  1.0325  0.2766 -0.7157
 5618TIP3   OH238344   6.814   3.020   5.400  0.3229 -0.2982  0.1076
 5618TIP3    H138345   6.756   3.066   5.340  1.0077 -1.9628 -1.9567
 5618TIP3    H238346   6.902   3.038   5.368  0.9285  0.9021  2.2509
 5619TIP3   OH238347   5.230   3.936   3.638 -0.2102  0.2998 -0.1770
 5619TIP3    H138348   5.322   3.923   3.659 -0.1805  2.0508  0.9939
 5619TIP3    H238349   5.226   3.930   3.542  0.6915 -1.9881 -0.1256
 5620TIP3   OH238350   6.582   6.602   6.433 -0.0326  0.1034 -0.3100
 5620TIP3    H138351   6.633   6.573   6.508 -0.7250 -3.0160 -0.9191
 5620TIP3    H238352   6.539   6.682   6.463  1.2116  0.0198  1.9202
 5621TIP3   OH238353   3.518   3.415   5.908  0.5700  0.0817  0.2091
 5621TIP3    H138354   3.513   3.341   5.968 -0.2927  0.3429  0.4749
 5621TIP3    H238355   3.508   3.377   5.821 -0.2540 -0.0819  0.3692
 5622TIP3   OH238356   4.586   2.239  11.123 -0.4357 -0.3712 -0.1102
 5622TIP3    H138357   4.498   2.206  11.144 -0.8333  1.3219  1.0914
 5622TIP3    H238358   4.582   2.259  11.029 -2.8614  3.6951  0.6214
 5623TIP3   OH238359   5.953   5.067   0.011  0.1541 -0.0042 -0.6227
 5623TIP3    H138360   5.983   5.048  -0.078  0.6156  0.9948 -0.7000
 5623TIP3    H238361   6.034   5.086   0.059 -0.2022  1.0464 -0.4054
 5624TIP3   OH238362   4.283   2.493  11.579  0.3233  0.2931 -0.0138
 5624TIP3    H138363   4.250   2.582  11.570  1.5448  0.9025  1.1140
 5624TIP3    H238364   4.366   2.493  11.531  1.1558  0.2686  1.3698
 5625TIP3   OH238365   3.917   6.408   0.214 -0.0453 -0.3336 -0.1692
 5625TIP3    H138366   3.981   6.361   0.160  1.5231  0.7436  0.6881
 5625TIP3    H238367   3.875   6.470   0.153  3.0712  2.2570  0.0494
 5626TIP3   OH238368   6.635   1.512  15.897  0.1025  0.0108 -0.1079
 5626TIP3    H138369   6.662   1.585  15.953  3.0456 -1.4163  0.4968
 5626TIP3    H238370   6.637   1.435  15.955 -1.0363 -0.8731 -1.1843
 5627TIP3   OH238371   2.491   2.717   5.983 -0.0634  0.8345  0.2909
 5627TIP3    H138372   2.536   2.661   5.920 -3.5866 -0.6960 -1.1429
 5627TIP3    H238373   2.464   2.658   6.053 -0.4706  1.5333  0.7377
 5628TIP3   OH238374   0.748   0.781  15.312 -0.4148 -1.0406  0.0266
 5628TIP3    H138375   0.691   0.738  15.377 -0.3257  0.3208  1.0625
 5628TIP3    H238376   0.696   0.783  15.232 -1.5089 -0.6377  0.7148
 5629TIP3   OH238377   0.453   3.011   4.639  0.2159  0.2014  0.0205
 5629TIP3    H138378   0.529   3.065   4.662 -0.2229  0.8761 -0.0989
 5629TIP3    H238379   0.477   2.970   4.556  0.8423 -0.3697  0.4653
 5630TIP3   OH238380   6.377   3.267   1.402 -1.2008  0.3800  0.3451
 5630TIP3    H138381   6.327   3.224   1.472 -0.9224 -3.8855 -1.7043
 5630TIP3    H238382   6.469   3.254   1.427 -1.1103 -0.6905 -0.4481
 5631TIP3   OH238383   5.950   6.520  16.116 -0.1744  0.1267 -0.1603
 5631TIP3    H138384   6.016   6.586  16.140 -1.9390  1.5591  1.0800
 5631TIP3    H238385   5.870   6.551  16.158 -1.2932 -2.3977 -0.2850
 5632TIP3   OH238386   0.338   0.974   4.638 -0.2947 -0.2098  0.3562
 5632TIP3    H138387   0.328   0.892   4.686  0.4616 -0.8186 -0.5138
 5632TIP3    H238388   0.426   0.971   4.601 -0.6190  0.5371 -0.5250
 5633TIP3   OH238389   4.283   2.949  11.644 -0.5834  0.4127  0.6026
 5633TIP3    H138390   4.340   2.873  11.638 -1.3168 -0.0915  0.0663
 5633TIP3    H238391   4.341   3.020  11.674  0.3589 -0.0469 -0.1208
 5634TIP3   OH238392   6.552   1.024  16.565 -0.8300  0.7486  0.3288
 5634TIP3    H138393   6.606   0.946  16.549 -1.2511  0.5362 -0.0927
 5634TIP3    H238394   6.606   1.079  16.622  0.2682  1.0127 -0.9117
 5635TIP3   OH238395   1.107   5.596   4.761  0.4689 -0.1442 -0.0309
 5635TIP3    H138396   1.107   5.652   4.683 -0.4960 -0.5323 -0.3216
 5635TIP3    H238397   1.017   5.567   4.770  0.7007 -0.6203  0.8726
 5636TIP3   OH238398   6.623   0.386   5.181 -0.2631  0.0043  0.1709
 5636TIP3    H138399   6.664   0.302   5.164 -0.7446 -0.0621 -0.7149
 5636TIP3    H238400   6.593   0.381   5.272  0.1650 -0.5733  0.2829
 5637TIP3   OH238401   0.525   0.609  13.490  0.7906  0.0297 -0.1284
 5637TIP3    H138402   0.599   0.670  13.485  0.9576 -0.2152 -0.7354
 5637TIP3    H238403   0.564   0.523  13.475  0.7650 -0.4001  1.9699
 5638TIP3   OH238404   2.455   4.702   4.583 -0.3965  0.1883  0.2709
 5638TIP3    H138405   2.488   4.718   4.672  0.0264 -3.0027  0.7936
 5638TIP3    H238406   2.498   4.621   4.556 -3.6184 -1.1605 -1.2285
 5639TIP3   OH238407   0.063   1.182  15.603  0.5621 -0.1627  0.1125
 5639TIP3    H138408   0.051   1.087  15.604  1.8197 -0.3400  0.2296
 5639TIP3    H238409   0.095   1.204  15.691  1.8367  0.1202 -0.3926
 5640TIP3   OH238410   6.830   6.648   1.847 -0.3420  0.1430  0.2997
 5640TIP3    H138411   6.764   6.697   1.798 -1.0124 -1.1603 -0.1535
 5640TIP3    H238412   6.877   6.714   1.897 -0.9048  1.2926 -0.6380
 5641TIP3   OH238413   1.738   1.819  10.882  1.0320 -0.6606  0.0335
 5641TIP3    H138414   1.749   1.740  10.829  0.8920 -0.7236  0.0992
 5641TIP3    H238415   1.823   1.831  10.924  0.7833 -1.2754  0.7140
 5642TIP3   OH238416   3.019   2.490  16.705 -0.4740 -0.0584  0.1041
 5642TIP3    H138417   3.003   2.531  16.620 -2.0166 -0.1619  0.3180
 5642TIP3    H238418   3.009   2.561  16.768  2.3772  0.4262  0.1685
 5643TIP3   OH238419   5.079   1.931   1.507  0.2553 -0.4062 -0.1517
 5643TIP3    H138420   5.120   1.911   1.591  1.4173 -1.7499 -0.9968
 5643TIP3    H238421   4.989   1.898   1.515  1.0123 -2.6397 -0.1813
 5644TIP3   OH238422   0.250   1.964  12.870 -0.3127  0.2662  0.3090
 5644TIP3    H138423   0.205   1.906  12.809 -1.1428  1.2674 -0.0459
 5644TIP3    H238424   0.200   1.957  12.951 -0.4027  0.4709  0.2714
 5645TIP3   OH238425   2.549   1.365  11.613 -0.1093  0.1142  0.3485
 5645TIP3    H138426   2.610   1.350  11.541 -1.4142  0.9640 -0.9985
 5645TIP3    H238427   2.571   1.452  11.646  1.1037 -0.6491  1.6571
 5646TIP3   OH238428   0.560   1.134  12.936  0.1326 -0.2636  0.1169
 5646TIP3    H138429   0.651   1.155  12.912  0.4810 -0.0908  1.5166
 5646TIP3    H238430   0.533   1.069  12.871  0.7971  0.6633 -1.1297
 5647TIP3   OH238431   4.497   3.104  16.616  0.5833 -0.2103  0.6311
 5647TIP3    H138432   4.564   3.081  16.552  0.7042  1.2756  0.2006
 5647TIP3    H238433   4.528   3.185  16.657 -1.2202  0.8809 -0.0487
 5648TIP3   OH238434   1.507   6.351   6.056  0.4730 -0.0323 -0.2270
 5648TIP3    H138435   1.516   6.425   5.996  1.1450  0.2210  0.1711
 5648TIP3    H238436   1.475   6.389   6.137  2.0855  0.0533  0.4058
 5649TIP3   OH238437   6.210   3.699  16.457 -0.3349 -0.3085  0.3728
 5649TIP3    H138438   6.202   3.621  16.402  0.7954 -0.9898  1.1247
 5649TIP3    H238439   6.297   3.691  16.496 -0.7088  0.6779  1.4548
 5650TIP3   OH238440   2.198   2.499   0.462 -0.5237 -0.1544  0.4107
 5650TIP3    H138441   2.225   2.591   0.457 -1.2303  0.1268  1.4509
 5650TIP3    H238442   2.157   2.481   0.378  1.0906 -0.0143 -0.4409
 5651TIP3   OH238443   4.866   2.336   4.055 -0.3466 -0.5476 -0.0442
 5651TIP3    H138444   4.846   2.337   4.149 -2.2151 -0.2275 -0.4099
 5651TIP3    H238445   4.815   2.407   4.018  0.9704 -0.1666 -1.2302
 5652TIP3   OH238446   1.733   4.076   0.921 -0.2499  0.0749  0.0634
 5652TIP3    H138447   1.748   4.111   0.833  3.1880 -0.4537  0.3132
 5652TIP3    H238448   1.815   4.032   0.944 -1.6562 -1.3591  2.8619
 5653TIP3   OH238449   1.939   6.408   1.986 -0.0697 -0.0058 -0.0437
 5653TIP3    H138450   1.876   6.443   2.050  1.1166  0.6109  0.8230
 5653TIP3    H238451   1.984   6.338   2.033 -0.0898 -0.4392 -0.6590
 5654TIP3   OH238452   6.469   1.627   5.312 -0.5024 -0.4851 -0.3835
 5654TIP3    H138453   6.463   1.719   5.288  2.1243 -0.0363  0.3706
 5654TIP3    H238454   6.550   1.596   5.271 -0.7076 -2.1302  0.3615
 5655TIP3   OH238455   2.894   3.464   6.632  0.2711 -0.3519  0.0821
 5655TIP3    H138456   2.864   3.504   6.713 -0.1018 -0.4963  0.0156
 5655TIP3    H238457   2.814   3.434   6.589  0.4194  0.2463 -0.6185
 5656TIP3   OH238458   4.690   0.295  11.658 -0.1282  0.0560 -0.6526
 5656TIP3    H138459   4.599   0.272  11.641 -0.2391 -1.1256  1.2375
 5656TIP3    H238460   4.694   0.305  11.754  1.6886  0.2572 -0.7222
 5657TIP3   OH238461   0.295   0.027  14.303 -0.0289 -0.2173 -0.3544
 5657TIP3    H138462   0.382   0.057  14.328  0.9461 -1.6846 -1.7686
 5657TIP3    H238463   0.282   0.062  14.215  0.5385 -2.5999 -1.4586
 5658TIP3   OH238464   2.676   0.709  10.733 -0.0575  0.1446 -0.2416
 5658TIP3    H138465   2.588   0.673  10.722 -1.2125  2.2022  1.5765
 5658TIP3    H238466   2.693   0.704  10.827  1.9207 -0.4674 -0.5855
 5659TIP3   OH238467   1.647   5.557  15.822 -0.1138  0.4665  0.1484
 5659TIP3    H138468   1.580   5.496  15.791  1.3135 -1.2089  0.1941
 5659TIP3    H238469   1.598   5.634  15.851 -1.8604  0.0609 -1.5159
 5660TIP3   OH238470   6.234   4.310  14.758 -0.0559  0.3564  0.1369
 5660TIP3    H138471   6.218   4.383  14.698 -1.0020  0.3565  0.3720
 5660TIP3    H238472   6.242   4.233  14.701 -0.9589  0.3536  0.0018
 5661TIP3   OH238473   1.030   1.273  11.721  0.1924  0.6953  0.2724
 5661TIP3    H138474   0.951   1.239  11.763 -0.3723  1.5195 -0.1060
 5661TIP3    H238475   1.056   1.348  11.776  3.3494 -2.1203  3.1298
 5662TIP3   OH238476   0.713   0.166   2.047  0.3094 -0.1783 -0.6033
 5662TIP3    H138477   0.736   0.090   2.101  1.2555  0.7814  0.3792
 5662TIP3    H238478   0.783   0.229   2.062 -0.6593  1.0590 -1.0886
 5663TIP3   OH238479   4.080   5.392   3.432  0.1395 -0.1077  0.2454
 5663TIP3    H138480   3.994   5.418   3.400 -0.4933  0.7100  2.4477
 5663TIP3    H238481   4.111   5.468   3.481 -0.0489 -2.0264  3.5859
 5664TIP3   OH238482   3.162   3.032   6.253  1.0047  0.6539  0.3755
 5664TIP3    H138483   3.200   2.968   6.193 -1.7692 -0.3186 -0.5250
 5664TIP3    H238484   3.120   2.978   6.321  0.4860  1.5864  0.8105
 5665TIP3   OH238485   5.976   5.042  11.539 -0.4516  0.0517 -0.3854
 5665TIP3    H138486   6.008   5.106  11.603 -1.9579 -0.8489  1.3616
 5665TIP3    H238487   6.049   5.032  11.477  0.2853  2.5110 -0.0467
 5666TIP3   OH238488   2.364   5.839  17.108 -0.3302  0.2935  0.2710
 5666TIP3    H138489   2.358   5.865  17.200 -2.7521  1.4947 -0.1320
 5666TIP3    H238490   2.348   5.920  17.059 -1.8561 -0.7930 -1.1502
 5667TIP3   OH238491   4.641   5.586  12.389 -0.1504  0.2775  0.5099
 5667TIP3    H138492   4.598   5.574  12.473 -0.2255  2.0141  0.7538
 5667TIP3    H238493   4.591   5.655  12.345  0.8944  0.5956 -0.2341
 5668TIP3   OH238494   5.377   3.098  11.425 -0.0436  0.9672 -0.3274
 5668TIP3    H138495   5.380   3.048  11.506 -0.8999  0.5988 -0.5031
 5668TIP3    H238496   5.442   3.167  11.436  1.5459 -0.4641 -0.2735
 5669TIP3   OH238497   0.500   3.710  16.715  0.4272  0.7152  0.3085
 5669TIP3    H138498   0.520   3.617  16.698 -0.4059  0.1175  2.3563
 5669TIP3    H238499   0.586   3.750  16.730  0.7494  0.1655 -0.0273
 5670TIP3   OH238500   6.462   6.317  16.855  0.1754 -0.2594  0.1173
 5670TIP3    H138501   6.414   6.260  16.795 -0.4538 -1.1547  1.4145
 5670TIP3    H238502   6.397   6.384  16.880 -0.2337 -1.0838  1.3573
 5671TIP3   OH238503   1.872   3.990  16.530 -0.2680  0.4816 -0.0530
 5671TIP3    H138504   1.785   4.027  16.547 -1.4720 -0.8012 -2.6461
 5671TIP3    H238505   1.853   3.901  16.498  2.2039 -0.8144  1.8000
 5672TIP3   OH238506   0.231   3.085  14.396 -0.5029 -0.4167 -0.5864
 5672TIP3    H138507   0.309   3.036  14.368 -0.0771  1.1827 -2.4057
 5672TIP3    H238508   0.173   3.019  14.433  1.4955 -1.7353  0.3765
 5673TIP3   OH238509   0.834   5.464   1.550 -0.0847 -0.5921 -0.3981
 5673TIP3    H138510   0.777   5.449   1.626 -0.9235 -3.2333 -1.4687
 5673TIP3    H238511   0.912   5.412   1.568  1.5679  1.9735  0.4386
 5674TIP3   OH238512   3.528   2.760   5.289 -0.2415  0.4435  0.1364
 5674TIP3    H138513   3.621   2.785   5.290  0.0063 -0.4445  0.4966
 5674TIP3    H238514   3.528   2.669   5.260 -1.0124  0.4666  0.0424
 5675TIP3   OH238515   0.633   5.461  16.647  0.2305  0.0736  0.3646
 5675TIP3    H138516   0.587   5.535  16.606 -0.0550 -0.4380 -0.2429
 5675TIP3    H238517   0.569   5.390  16.647  0.6569 -0.3120  0.5315
 5676TIP3   OH238518   6.526   5.213   3.743  0.8244  0.3984  0.2449
 5676TIP3    H138519   6.489   5.194   3.829 -1.0040 -0.5012 -0.7035
 5676TIP3    H238520   6.520   5.308   3.735  0.3398  0.4196  0.8128
 5677TIP3   OH238521   0.943   4.649   4.723  0.0460  0.2975 -0.4512
 5677TIP3    H138522   1.006   4.577   4.727 -0.0618  0.0837 -2.0163
 5677TIP3    H238523   0.867   4.616   4.771  0.9286  0.4006  1.0969
 5678TIP3   OH238524   4.499   1.069   5.945 -0.7051  0.2505 -0.4383
 5678TIP3    H138525   4.433   1.025   5.998  1.4640  1.6251  3.9825
 5678TIP3    H238526   4.561   1.000   5.921 -0.7776 -0.1730  0.5399
 5679TIP3   OH238527   5.508   3.014   0.739 -0.3272  0.2605  0.6207
 5679TIP3    H138528   5.446   3.081   0.710 -0.0965  0.0596 -0.3953
 5679TIP3    H238529   5.573   3.010   0.669  0.5802  0.1412  1.4578
 5680TIP3   OH238530   1.040   1.439   2.110 -0.4250 -0.1807 -0.1867
 5680TIP3    H138531   1.095   1.363   2.091  0.8231  0.7063 -0.2044
 5680TIP3    H238532   0.950   1.405   2.108  0.1370 -1.7440  0.2808
 5681TIP3   OH238533   3.816   3.382  12.337 -0.2340  0.0265  0.2919
 5681TIP3    H138534   3.720   3.380  12.336 -0.2181 -0.4475 -1.0685
 5681TIP3    H238535   3.842   3.327  12.264  1.1010 -0.2458  0.9474
 5682TIP3   OH238536   4.943   4.101   5.418 -0.0085  0.1339  0.0703
 5682TIP3    H138537   4.927   4.171   5.481  1.3582 -0.1486  0.7566
 5682TIP3    H238538   4.989   4.144   5.346 -1.9716  0.5557 -1.0345
 5683TIP3   OH238539   5.067   1.139   5.095 -0.0464 -0.0512 -0.5912
 5683TIP3    H138540   5.154   1.098   5.097  0.1748  0.4324 -0.2379
 5683TIP3    H238541   5.058   1.172   5.006 -0.2993 -1.0185 -0.9354
 5684TIP3   OH238542   6.823   1.806   5.965 -0.5956 -0.0568 -0.3784
 5684TIP3    H138543   6.821   1.816   6.060  1.0514 -2.2504 -0.0311
 5684TIP3    H238544   6.898   1.859   5.937  0.2609 -1.1066 -0.1421
 5685TIP3   OH238545   0.627   2.038   2.830  0.2305  0.1830  1.0870
 5685TIP3    H138546   0.563   2.102   2.859  0.2583  0.8397 -0.2114
 5685TIP3    H238547   0.574   1.969   2.788  0.3389  0.5277  0.3747
 5686TIP3   OH238548   1.554   5.851   3.666 -0.1662  0.1854 -0.2042
 5686TIP3    H138549   1.526   5.843   3.757  0.0272  0.2102 -0.1424
 5686TIP3    H238550   1.522   5.772   3.623 -0.9614  0.5475 -0.2996
 5687TIP3   OH238551   2.544   0.531   4.504 -0.8676 -0.0004 -0.0616
 5687TIP3    H138552   2.562   0.575   4.421  0.0549  0.6164  0.4484
 5687TIP3    H238553   2.548   0.601   4.569 -0.7360 -0.6194  0.6010
 5688TIP3   OH238554   2.285   3.908   2.630 -0.0998  0.7241 -0.4326
 5688TIP3    H138555   2.234   3.845   2.681 -0.5800  0.4771 -1.1984
 5688TIP3    H238556   2.252   3.993   2.657 -0.9743  0.5630 -0.9653
 5689TIP3   OH238557   5.004   6.213  15.425  0.4179 -0.5755  0.0728
 5689TIP3    H138558   4.918   6.254  15.411  0.0348 -0.7314  1.7993
 5689TIP3    H238559   5.005   6.140  15.363 -0.1270  0.2057 -0.9126
 5690TIP3   OH238560   4.713   6.732  13.558  0.0073  0.0629  0.0054
 5690TIP3    H138561   4.747   6.798  13.498  0.4970 -0.1002  0.1017
 5690TIP3    H238562   4.639   6.692  13.511  1.9052 -1.8086 -1.5627
 5691TIP3   OH238563   4.302   3.459   0.441  0.2063 -0.2957  0.2273
 5691TIP3    H138564   4.317   3.397   0.369 -0.5819  1.2546 -1.3500
 5691TIP3    H238565   4.351   3.537   0.415  0.8299 -0.0592  1.9704
 5692TIP3   OH238566   5.963   0.793   1.622 -0.6397 -0.1713  0.1608
 5692TIP3    H138567   5.887   0.846   1.599 -0.8375 -1.2581 -1.9430
 5692TIP3    H238568   5.931   0.703   1.621  0.2595 -0.5234  1.1197
 5693TIP3   OH238569   0.836   5.792  10.906 -0.0606  0.4591  0.2698
 5693TIP3    H138570   0.786   5.816  10.827  0.3790  0.8300  0.0996
 5693TIP3    H238571   0.837   5.873  10.958  1.7913  0.9763 -0.4918
 5694TIP3   OH238572   1.761   2.888  11.386  0.2347  0.1797 -0.0756
 5694TIP3    H138573   1.740   2.956  11.450 -0.1891  0.6886 -0.7493
 5694TIP3    H238574   1.800   2.818  11.438 -1.1123  0.1205  0.9011
 5695TIP3   OH238575   4.528   5.005  14.980 -0.6449  0.2705 -0.1072
 5695TIP3    H138576   4.529   4.967  14.892 -0.0527  1.0767 -0.4556
 5695TIP3    H238577   4.573   4.940  15.034 -0.9362 -0.1907 -0.4056
 5696TIP3   OH238578   4.673   5.198  16.555 -0.0725 -0.6529  0.3383
 5696TIP3    H138579   4.632   5.284  16.544  3.1058  0.6693 -3.1965
 5696TIP3    H238580   4.757   5.217  16.598 -0.1395 -2.3178  1.2836
 5697TIP3   OH238581   4.549   0.983  10.803  0.0112  0.1237  0.3145
 5697TIP3    H138582   4.565   0.990  10.897  3.5274  0.5219 -0.1915
 5697TIP3    H238583   4.590   1.060  10.766 -0.5975 -0.4420 -1.6407
 5698TIP3   OH238584   5.695   6.033   1.295  0.2866  0.1818 -0.1520
 5698TIP3    H138585   5.613   5.984   1.300 -0.0409  0.7994  1.2111
 5698TIP3    H238586   5.763   5.969   1.316  0.1168 -0.2189 -0.7957
 5699TIP3   OH238587   0.731   6.186  12.417 -0.5880 -0.6139  0.3184
 5699TIP3    H138588   0.755   6.095  12.432  0.3764 -0.8058 -2.0847
 5699TIP3    H238589   0.639   6.183  12.392 -0.3341 -1.0476 -0.5995
 5700TIP3   OH238590   4.505   4.514   5.249 -0.1765 -0.0144 -0.4136
 5700TIP3    H138591   4.481   4.528   5.157  0.7510 -2.5365 -1.1268
 5700TIP3    H238592   4.437   4.457   5.284  0.4376 -0.5702 -0.0939
 5701TIP3   OH238593   1.521   3.185  13.693  0.3911  0.8421  0.2061
 5701TIP3    H138594   1.544   3.267  13.651  1.4055  1.1407  1.2810
 5701TIP3    H238595   1.573   3.119  13.648 -0.9399  0.6564 -1.1183
 5702TIP3   OH238596   2.809   4.662  12.189  0.3870 -0.2936  0.3184
 5702TIP3    H138597   2.852   4.661  12.104 -1.4943  1.0257 -0.7191
 5702TIP3    H238598   2.873   4.702  12.248  1.4815 -0.6561 -0.5843
 5703TIP3   OH238599   5.686   3.269   5.482  0.0528 -0.1703  0.4153
 5703TIP3    H138600   5.612   3.225   5.440 -0.6607  1.4979 -0.1640
 5703TIP3    H238601   5.697   3.350   5.433  0.4135  0.9705  2.2716
 5704TIP3   OH238602   6.255   3.881  11.762  0.0871 -0.3417  0.1769
 5704TIP3    H138603   6.217   3.968  11.775 -1.4397 -1.1277  1.1820
 5704TIP3    H238604   6.260   3.872  11.666  0.2060  0.8073  0.0580
 5705TIP3   OH238605   3.694   2.387   3.062 -0.7187  0.1116 -0.9571
 5705TIP3    H138606   3.741   2.446   3.121  1.0530 -0.9373 -1.2686
 5705TIP3    H238607   3.602   2.398   3.086 -0.3147  1.9951 -0.1214
 5706TIP3   OH238608   3.180   3.280   2.664  0.1134 -0.1873  0.0018
 5706TIP3    H138609   3.192   3.312   2.574  0.1541 -0.6197 -0.1522
 5706TIP3    H238610   3.168   3.359   2.716 -0.6496  0.0362 -0.4942
 5707TIP3   OH238611   5.799   3.771   0.894  0.1142 -0.2687 -0.3142
 5707TIP3    H138612   5.726   3.738   0.945  1.5039  1.0025  2.7438
 5707TIP3    H238613   5.790   3.866   0.897  1.9885 -0.0611  0.4182
 5708TIP3   OH238614   2.996   0.448  12.708 -0.1134  0.3243  0.5724
 5708TIP3    H138615   3.079   0.434  12.663 -0.6074 -1.2010  0.0886
 5708TIP3    H238616   3.007   0.533  12.751  1.6605  0.2049  0.4569
 5709TIP3   OH238617   1.568   5.402   2.517  0.3107  0.0900  0.4726
 5709TIP3    H138618   1.659   5.375   2.519  0.9152  1.9398 -0.1244
 5709TIP3    H238619   1.533   5.377   2.602  0.9314 -1.9727  0.1696
 5710TIP3   OH238620   5.262   6.474  12.035  0.2428 -0.7781  0.0480
 5710TIP3    H138621   5.307   6.447  11.955 -0.5162 -0.4234 -0.5107
 5710TIP3    H238622   5.272   6.400  12.095  1.5498 -0.7123 -0.0652
 5711TIP3   OH238623   2.440   5.784  15.794 -0.1543 -0.2266  0.0222
 5711TIP3    H138624   2.498   5.766  15.720 -1.6844  0.5993 -1.4688
 5711TIP3    H238625   2.378   5.849  15.760 -1.7050 -0.7794  1.6485
 5712TIP3   OH238626   1.153   6.726  11.467 -0.1318  0.3859 -0.8911
 5712TIP3    H138627   1.178   6.720  11.374 -1.1270 -1.8632 -1.0848
 5712TIP3    H238628   1.224   6.776  11.507  0.7169  0.7745 -2.7354
 5713TIP3   OH238629   6.196   1.213  16.235 -0.1607  0.1192  0.1106
 5713TIP3    H138630   6.207   1.177  16.323  1.0516 -0.4363 -0.2493
 5713TIP3    H238631   6.254   1.289  16.232 -0.3819  0.2819 -0.1376
 5714TIP3   OH238632   1.837   6.379  16.833 -0.0074 -0.1400  0.3519
 5714TIP3    H138633   1.849   6.446  16.901  0.5172 -0.4122  0.5357
 5714TIP3    H238634   1.749   6.345  16.849  0.2444 -0.4585  1.1423
 5715TIP3   OH238635   6.102   5.116   0.619  0.6513 -0.5984 -0.1098
 5715TIP3    H138636   6.031   5.130   0.682  0.7673  1.1983 -0.3328
 5715TIP3    H238637   6.140   5.032   0.645  0.7371  0.0900  2.2903
 5716TIP3   OH238638   0.172   2.020  15.051  0.3137  0.1357  0.3318
 5716TIP3    H138639   0.155   2.076  15.127 -1.5464 -0.9398  0.7759
 5716TIP3    H238640   0.242   1.961  15.079  0.5464  0.5962  0.7367
 5717TIP3   OH238641   0.861   2.249  11.958 -0.2751  0.4011  0.5592
 5717TIP3    H138642   0.900   2.335  11.945 -0.0871  0.0206 -1.7723
 5717TIP3    H238643   0.774   2.268  11.995 -0.4213  1.6530 -0.3414
 5718TIP3   OH238644   1.303   1.274  14.380  0.0367 -0.6322 -0.2288
 5718TIP3    H138645   1.332   1.287  14.289 -0.7800 -0.1936 -0.4388
 5718TIP3    H238646   1.270   1.185  14.382  0.7021 -0.8828 -0.1766
 5719TIP3   OH238647   5.969   4.530  12.705  0.2843 -0.0186 -0.0646
 5719TIP3    H138648   5.929   4.503  12.623  0.4982 -0.5260 -0.0075
 5719TIP3    H238649   6.007   4.616  12.686 -0.9532  0.5495 -0.0700
 5720TIP3   OH238650   4.705   1.473  14.212  0.5551 -0.3553  0.1798
 5720TIP3    H138651   4.741   1.561  14.222  0.6181 -0.2684 -0.7737
 5720TIP3    H238652   4.737   1.425  14.289  0.9657  0.3010  0.4235
 5721TIP3   OH238653   2.592   1.437  16.894 -0.7722  0.1276  0.1294
 5721TIP3    H138654   2.531   1.394  16.954  0.0492  1.0517  1.6879
 5721TIP3    H238655   2.568   1.529  16.897  0.5276  0.4726  0.5923
 5722TIP3   OH238656   0.834   0.131   0.693  0.4979 -0.4212 -0.3538
 5722TIP3    H138657   0.771   0.190   0.651 -1.3745  0.0503  2.7948
 5722TIP3    H238658   0.881   0.186   0.755  2.3089 -1.3034 -0.8880
 5723TIP3   OH238659   2.187   5.645  17.033 -0.7823  0.7393  0.0261
 5723TIP3    H138660   2.133   5.625  17.109 -0.2765 -0.0282  0.1907
 5723TIP3    H238661   2.259   5.697  17.067  0.1520 -0.6908  0.3194
 5724TIP3   OH238662   1.215   5.795   2.302  0.4756  0.1173  0.4151
 5724TIP3    H138663   1.225   5.702   2.282 -1.0821  0.2302 -1.2336
 5724TIP3    H238664   1.157   5.828   2.232  1.2018  2.3805  0.7968
 5725TIP3   OH238665   6.606   5.136  13.124  0.0157 -0.0498 -0.5673
 5725TIP3    H138666   6.625   5.230  13.123  1.0806 -0.2436  0.3856
 5725TIP3    H238667   6.611   5.111  13.216  0.5970 -1.2175 -0.8997
 5726TIP3   OH238668   5.750   1.464  13.983  0.5779  0.6391 -0.6585
 5726TIP3    H138669   5.776   1.551  14.011  1.1490  0.5389 -0.8599
 5726TIP3    H238670   5.677   1.478  13.922 -1.4038  0.8180  1.6090
 5727TIP3   OH238671   2.264   1.174   3.206  0.5329  0.5653 -0.2516
 5727TIP3    H138672   2.206   1.167   3.130  0.9749 -0.6534 -0.4995
 5727TIP3    H238673   2.206   1.168   3.282  0.3074 -0.5019 -0.4971
 5728TIP3   OH238674   2.267   1.699   4.279  0.2172 -0.6967 -0.6311
 5728TIP3    H138675   2.269   1.794   4.280  0.2305 -0.6527 -2.5582
 5728TIP3    H238676   2.174   1.677   4.277  0.2282 -0.6954 -1.2305
 5729TIP3   OH238677   1.331   2.204   1.573 -0.2462  0.2371  0.5936
 5729TIP3    H138678   1.267   2.194   1.644 -0.3379 -0.4626  0.4134
 5729TIP3    H238679   1.366   2.116   1.559 -0.6088  0.2666 -0.5814
 5730TIP3   OH238680   4.869   1.535  13.431  0.0247 -0.2770 -0.1069
 5730TIP3    H138681   4.901   1.502  13.515  1.8443 -0.8734 -0.9722
 5730TIP3    H238682   4.931   1.605  13.408 -1.7208  1.4000  0.0196
 5731TIP3   OH238683   4.371   5.471  15.298 -0.6561 -0.3749 -0.2534
 5731TIP3    H138684   4.445   5.412  15.285  0.3471  0.1196  2.5457
 5731TIP3    H238685   4.294   5.414  15.293  0.0070 -1.2332 -1.2204
 5732TIP3   OH238686   1.994   1.860  16.163  0.5827  0.0073 -0.1984
 5732TIP3    H138687   2.084   1.853  16.192  0.4945 -1.5708 -0.1967
 5732TIP3    H238688   1.951   1.913  16.230  1.3489  0.1596  0.1854
 5733TIP3   OH238689   2.499   4.831  16.879 -0.1494  0.5250  0.0433
 5733TIP3    H138690   2.432   4.779  16.923  0.1751  1.1463  1.3122
 5733TIP3    H238691   2.452   4.907  16.844 -0.4479 -0.0873 -0.9290
 5734TIP3   OH238692   1.765   6.233  13.750  0.7780 -0.8112 -0.8489
 5734TIP3    H138693   1.803   6.320  13.737 -2.6245  0.8923 -0.5934
 5734TIP3    H238694   1.759   6.195  13.663  1.0982 -0.2409 -1.1203
 5735TIP3   OH238695   6.415   3.131   1.872  0.3794 -0.3966  0.0686
 5735TIP3    H138696   6.465   3.187   1.813 -0.2369 -0.8745 -0.9380
 5735TIP3    H238697   6.481   3.080   1.919  0.8638 -0.6317 -0.8433
 5736TIP3   OH238698   3.513   4.332   1.302 -0.2466 -0.0581  0.2793
 5736TIP3    H138699   3.504   4.418   1.260 -0.8949  0.4817  1.4687
 5736TIP3    H238700   3.544   4.352   1.391  1.2321 -1.1791  0.0556
 5737TIP3   OH238701   1.885   3.431   5.569 -0.3694  0.1920 -0.2231
 5737TIP3    H138702   1.938   3.510   5.580  0.1320 -0.3498  1.6086
 5737TIP3    H238703   1.938   3.361   5.608 -1.4894 -0.7549 -0.3437
 5738TIP3   OH238704   3.791   1.464   2.504  0.4494 -0.0826  0.2857
 5738TIP3    H138705   3.795   1.416   2.587 -0.8082 -0.1648  0.3038
 5738TIP3    H238706   3.870   1.437   2.457  1.3437  0.1983  1.5696
 5739TIP3   OH238707   0.330   1.898  16.302 -0.1638 -0.5914 -0.0294
 5739TIP3    H138708   0.321   1.872  16.394 -0.1278 -0.7190 -0.0607
 5739TIP3    H238709   0.400   1.963  16.302  0.7509 -1.5438 -0.1371
 5740TIP3   OH238710   3.558   6.382  14.012  0.4469 -0.0444 -0.1773
 5740TIP3    H138711   3.622   6.406  13.945 -1.0388  0.6558 -1.4178
 5740TIP3    H238712   3.521   6.465  14.041 -0.8675 -0.4999 -0.4909
 5741TIP3   OH238713   4.467   5.511   2.176 -0.3915 -0.5270  0.0965
 5741TIP3    H138714   4.514   5.587   2.141  0.2366  0.5310  2.9675
 5741TIP3    H238715   4.525   5.437   2.161 -0.3710 -0.2276 -1.4482
 5742TIP3   OH238716   5.588   1.481  11.047 -0.0121  0.4791 -0.0317
 5742TIP3    H138717   5.542   1.401  11.019  2.0921 -0.4410 -1.0838
 5742TIP3    H238718   5.606   1.466  11.140  1.1946 -0.7567 -0.4275
 5743TIP3   OH238719   0.929   2.907  12.325  0.3037 -0.2311  0.1877
 5743TIP3    H138720   0.866   2.858  12.379 -0.3709  2.4967  2.0627
 5743TIP3    H238721   1.014   2.889  12.365  0.3253 -1.3044 -0.3067
 5744TIP3   OH238722   5.153   1.102  10.844  0.2361  0.1297 -0.0135
 5744TIP3    H138723   5.193   1.021  10.813  1.5448  0.3000  1.1600
 5744TIP3    H238724   5.170   1.166  10.775 -1.0371 -0.6290 -1.0685
 5745TIP3   OH238725   4.655   3.091  13.368 -0.6564  0.8270  0.0216
 5745TIP3    H138726   4.710   3.043  13.306  0.7041  0.4664  1.4355
 5745TIP3    H238727   4.600   3.147  13.313 -1.5435 -1.5240 -1.6375
 5746TIP3   OH238728   2.805   6.672  16.751  0.2871 -0.2530 -0.6105
 5746TIP3    H138729   2.730   6.727  16.775  1.0033 -0.3062  2.0970
 5746TIP3    H238730   2.766   6.593  16.713 -1.0233 -0.1050  0.3565
 5747TIP3   OH238731   1.581   2.583   0.434  0.0880 -0.2231 -0.1164
 5747TIP3    H138732   1.612   2.665   0.396 -1.9550  2.0673  2.7628
 5747TIP3    H238733   1.655   2.550   0.485  0.0475  1.4444  1.0680
 5748TIP3   OH238734   4.282   4.701   4.681  0.1601 -0.3517  0.2602
 5748TIP3    H138735   4.230   4.641   4.628 -1.2350 -0.6052  1.8456
 5748TIP3    H238736   4.373   4.676   4.663 -0.1232  0.3994 -2.9232
 5749TIP3   OH238737   1.576   2.324   3.703 -0.4430  0.2263  0.3445
 5749TIP3    H138738   1.608   2.247   3.751  1.5981  1.4689  1.1361
 5749TIP3    H238739   1.484   2.306   3.687 -0.2885 -1.8989  1.4681
 5750TIP3   OH238740   5.307   0.734   6.045  0.6631 -0.3846 -0.1410
 5750TIP3    H138741   5.386   0.753   5.995  0.9671 -0.9417  0.1214
 5750TIP3    H238742   5.326   0.653   6.091 -0.3758 -0.9864 -0.7306
 5751TIP3   OH238743   4.807   2.620   1.840  0.3158  0.0032 -0.1208
 5751TIP3    H138744   4.781   2.530   1.862  1.6560 -0.0848  1.2370
 5751TIP3    H238745   4.740   2.675   1.881  1.1188 -0.2931  1.6516
 5752TIP3   OH238746   0.466   1.749  11.401  0.4317  0.2555 -0.0839
 5752TIP3    H138747   0.487   1.706  11.318 -3.5175  1.4208 -1.9541
 5752TIP3    H238748   0.492   1.840  11.388  0.9136  0.2084  0.4928
 5753TIP3   OH238749   0.906   1.001  13.145  0.0042  0.4876 -0.0361
 5753TIP3    H138750   0.873   0.980  13.232  0.6447 -0.1000  0.0751
 5753TIP3    H238751   0.965   0.929  13.124  0.6934  1.1742 -0.5079
 5754TIP3   OH238752   4.350   6.522  11.711 -0.0962  0.3646  0.0013
 5754TIP3    H138753   4.412   6.594  11.719 -0.8882  1.0775 -0.1254
 5754TIP3    H238754   4.404   6.446  11.688  0.8649  0.6826  1.1289
 5755TIP3   OH238755   6.522   3.094   3.899 -0.5383 -0.0508  0.8978
 5755TIP3    H138756   6.456   3.126   3.960 -1.5654  0.3539 -0.3848
 5755TIP3    H238757   6.475   3.032   3.843  0.5682 -1.0317  1.0125
 5756TIP3   OH238758   0.813   5.073  15.089 -0.0946  0.0493  0.2915
 5756TIP3    H138759   0.727   5.094  15.052  0.2023 -3.0786 -2.7739
 5756TIP3    H238760   0.868   5.149  15.067 -1.7038  1.5310  1.1588
 5757TIP3   OH238761   2.837   2.065   4.586  0.2230 -0.1566 -0.3082
 5757TIP3    H138762   2.871   2.121   4.655 -1.9976 -0.8824  1.5011
 5757TIP3    H238763   2.810   2.125   4.517  1.1673  0.7008  0.0533
 5758TIP3   OH238764   0.487   1.792   3.702 -0.2000 -0.2110 -0.1895
 5758TIP3    H138765   0.494   1.875   3.655 -0.3965  0.0107  0.1703
 5758TIP3    H238766   0.525   1.809   3.788  0.9976 -0.8669 -0.5748
 5759TIP3   OH238767   2.232   4.097   2.825 -0.4524  0.0175  0.2662
 5759TIP3    H138768   2.149   4.050   2.830 -1.2787  1.4352  0.4533
 5759TIP3    H238769   2.224   4.167   2.889  1.1916 -0.2329  0.7988
 5760TIP3   OH238770   2.854   3.084  12.791  0.7312  0.2093 -0.2162
 5760TIP3    H138771   2.811   3.051  12.712 -0.7340  0.4648  0.4502
 5760TIP3    H238772   2.791   3.145  12.829  1.6944  0.5974  0.7949
 5761TIP3   OH238773   4.322   2.398   3.476  0.6387 -0.6034 -0.1665
 5761TIP3    H138774   4.337   2.419   3.569 -0.3394  0.6464 -0.2629
 5761TIP3    H238775   4.398   2.435   3.431  0.7578 -0.5711  0.0556
 5762TIP3   OH238776   4.969   0.077   2.074  0.1921 -0.1897  0.0303
 5762TIP3    H138777   4.901   0.141   2.053  0.5361  0.7589  1.6007
 5762TIP3    H238778   5.030   0.125   2.131  2.0957 -1.0460 -1.1545
 5763TIP3   OH238779   1.568   6.795  15.387 -0.3835  0.4159  0.4037
 5763TIP3    H138780   1.663   6.794  15.389 -0.2311 -2.0492 -2.0688
 5763TIP3    H238781   1.546   6.854  15.314 -0.6469 -0.4217 -0.2066
 5764TIP3   OH238782   0.910   6.412  13.143 -0.5267 -0.3713 -0.1056
 5764TIP3    H138783   0.979   6.462  13.101 -0.9263  0.6172  0.3782
 5764TIP3    H238784   0.846   6.395  13.073 -0.0720 -0.7962 -0.4208
 5765TIP3   OH238785   5.282   3.668   5.664  0.1290  0.7222  0.3783
 5765TIP3    H138786   5.286   3.708   5.750  0.4382  0.0933  0.6648
 5765TIP3    H238787   5.190   3.675   5.638  0.0212  0.8396  0.7924
 5766TIP3   OH238788   4.856   3.205   3.856 -0.1993 -0.4914 -0.0270
 5766TIP3    H138789   4.872   3.177   3.766 -0.5311  0.1697 -0.2960
 5766TIP3    H238790   4.775   3.256   3.852 -0.0231 -0.1455  0.5801
 5767TIP3   OH238791   3.721   3.491   1.978 -0.0395 -0.3412 -0.1727
 5767TIP3    H138792   3.758   3.439   1.907 -0.0765 -0.0295 -0.4258
 5767TIP3    H238793   3.647   3.440   2.010 -2.8107  1.3921 -3.2233
 5768TIP3   OH238794   3.216   0.576   2.401  0.0073  0.2089  0.2421
 5768TIP3    H138795   3.141   0.621   2.363 -0.0617 -0.8138 -0.8847
 5768TIP3    H238796   3.178   0.506   2.454  0.1399 -1.0705 -1.2881
 5769TIP3   OH238797   2.167   6.628  15.349 -0.3755 -0.0834 -0.8782
 5769TIP3    H138798   2.174   6.616  15.254  0.4147 -0.3783 -0.7916
 5769TIP3    H238799   2.128   6.547  15.381 -0.5672 -0.0156 -0.9337
 5770TIP3   OH238800   4.201   3.098   1.894 -0.1163 -0.0271 -0.1389
 5770TIP3    H138801   4.151   3.139   1.964 -0.1631 -1.5149  0.7180
 5770TIP3    H238802   4.142   3.099   1.819 -1.0399 -0.7580  0.5581
 5771TIP3   OH238803   5.354   5.874  13.170 -0.1133 -0.6003 -0.0268
 5771TIP3    H138804   5.313   5.961  13.178 -0.1012 -0.0371 -3.9011
 5771TIP3    H238805   5.447   5.890  13.183 -0.1150 -0.0074 -0.6784
 5772TIP3   OH238806   0.777   4.418   0.804  0.4489 -0.3826 -0.0558
 5772TIP3    H138807   0.814   4.494   0.848  0.2920  0.7050 -1.6924
 5772TIP3    H238808   0.735   4.368   0.873  2.2783 -0.0471  1.3735
 5773TIP3   OH238809   5.899   1.717  15.658 -0.1755  0.2637  0.2250
 5773TIP3    H138810   5.820   1.772  15.661  0.5704  1.4505 -0.8026
 5773TIP3    H238811   5.866   1.629  15.644 -1.3818  0.5272  1.2168
 5774TIP3   OH238812   4.025   6.463  14.203 -0.1736  0.9798 -0.7486
 5774TIP3    H138813   3.932   6.480  14.192 -0.3196  0.2041 -0.7391
 5774TIP3    H238814   4.056   6.535  14.258 -0.3014  2.4941 -2.5675
 5775TIP3   OH238815   5.975   5.714   4.262 -0.1507  0.6424 -0.1962
 5775TIP3    H138816   5.978   5.657   4.339  0.0812  1.2539  0.2554
 5775TIP3    H238817   6.053   5.768   4.269  0.2441  0.2200 -1.2515
 5776TIP3   OH238818   6.822   1.912   1.418 -0.8129  0.2533  0.8774
 5776TIP3    H138819   6.870   1.958   1.349 -0.8704 -0.4607  0.3512
 5776TIP3    H238820   6.850   1.821   1.410 -1.0970  0.1009  1.5634
 5777TIP3   OH238821   3.066   2.055   2.637 -0.4946  0.2979 -0.6152
 5777TIP3    H138822   3.079   2.068   2.543 -0.9937 -2.5229 -1.1730
 5777TIP3    H238823   3.154   2.062   2.674 -0.2789  1.3559 -1.2853
 5778TIP3   OH238824   3.627   5.447  10.665  0.2204  0.5292  0.3496
 5778TIP3    H138825   3.551   5.480  10.616  0.6656  0.3407 -0.4710
 5778TIP3    H238826   3.692   5.426  10.598  1.1038  0.9318  1.0650
 5779TIP3   OH238827   3.186   5.631  13.902 -0.4127 -0.1471 -0.0090
 5779TIP3    H138828   3.143   5.716  13.913 -0.0926  0.1344 -0.8528
 5779TIP3    H238829   3.138   5.589  13.830  0.2193 -0.1487 -0.4410
 5780TIP3   OH238830   5.715   3.557  13.964  0.7897 -0.3041 -0.5451
 5780TIP3    H138831   5.631   3.592  13.936  1.4388  2.7789  0.9453
 5780TIP3    H238832   5.693   3.495  14.034 -0.2584  0.5781 -0.0613
 5781TIP3   OH238833   3.946   3.500  10.309  0.1351 -0.1638 -0.1912
 5781TIP3    H138834   3.973   3.545  10.230  0.7224 -0.2278 -0.0296
 5781TIP3    H238835   4.009   3.526  10.376 -0.5373  0.1395  0.3426
 5782TIP3   OH238836   0.386   3.907   3.644  0.2753 -0.2571  0.3283
 5782TIP3    H138837   0.310   3.853   3.625  0.2483 -0.6921  1.6284
 5782TIP3    H238838   0.460   3.846   3.645  0.3562 -0.1511  1.0393
 5783TIP3   OH238839   6.551   6.743  11.410  0.0238 -0.3706  0.5409
 5783TIP3    H138840   6.533   6.668  11.353  0.5585  0.2972 -0.5360
 5783TIP3    H238841   6.504   6.723  11.491  0.0118 -1.7837  0.2142
 5784TIP3   OH238842   4.146   0.251   0.006 -0.5545  0.6605  0.1622
 5784TIP3    H138843   4.086   0.277  -0.065 -1.5790  0.2895  0.8674
 5784TIP3    H238844   4.207   0.324   0.014  0.4487  0.1368 -2.0069
 5785TIP3   OH238845   3.110   2.363  13.351 -0.3624 -0.1803  0.6406
 5785TIP3    H138846   3.064   2.445  13.335 -0.8297 -0.1411  2.0601
 5785TIP3    H238847   3.041   2.300  13.372  0.0772 -0.6351  0.7384
 5786TIP3   OH238848   5.891   6.268  14.061  0.1448  0.1412 -0.2476
 5786TIP3    H138849   5.919   6.335  13.999  0.4838  1.5159  1.3307
 5786TIP3    H238850   5.865   6.194  14.005  1.7000  0.7966 -1.9825
 5787TIP3   OH238851   6.697   2.995   2.917  0.2106 -0.3075 -0.1380
 5787TIP3    H138852   6.759   3.065   2.895 -0.5764  0.2473 -0.6716
 5787TIP3    H238853   6.611   3.035   2.903 -0.2546 -1.2921 -0.1410
 5788TIP3   OH238854   3.068   2.176   0.172 -0.2214 -0.1038 -0.2463
 5788TIP3    H138855   3.071   2.082   0.189  1.1359 -0.2537 -1.1238
 5788TIP3    H238856   2.991   2.188   0.116 -0.8085 -0.5694  0.4380
 5789TIP3   OH238857   4.927   3.153  12.263  0.3069  0.3800  0.7751
 5789TIP3    H138858   4.944   3.125  12.353 -2.5773 -0.0271  1.2993
 5789TIP3    H238859   4.970   3.087  12.208 -0.0321 -0.8025  1.9037
 5790TIP3   OH238860   3.466   3.055  16.199 -0.0955 -0.3388 -0.3271
 5790TIP3    H138861   3.468   3.136  16.148  2.6802 -0.4311 -0.5318
 5790TIP3    H238862   3.429   2.990  16.140 -1.6948  0.5731 -0.4009
 5791TIP3   OH238863   0.556   1.036  16.214 -0.0601 -0.5182 -0.0758
 5791TIP3    H138864   0.561   1.016  16.120 -0.5132 -2.1612  0.2299
 5791TIP3    H238865   0.473   1.081  16.225  0.8816  1.5216 -0.7402
 5792TIP3   OH238866   6.118   4.097  15.733 -0.0789  0.5393 -0.1395
 5792TIP3    H138867   6.124   4.087  15.828 -0.7828 -0.2063 -0.1567
 5792TIP3    H238868   6.114   4.007  15.700 -1.9273  0.7733 -0.7101
 5793TIP3   OH238869   5.137   3.258  13.167  0.0319 -0.2601 -0.1009
 5793TIP3    H138870   5.104   3.201  13.236 -1.1725 -0.5896 -0.9193
 5793TIP3    H238871   5.227   3.229  13.152  0.2937 -0.2022  1.2824
 5794TIP3   OH238872   2.938   5.943  16.727 -0.4759  0.3686  0.0710
 5794TIP3    H138873   2.867   5.976  16.782 -1.2561 -0.1197 -0.6040
 5794TIP3    H238874   2.900   5.866  16.684  0.0427  0.8471 -1.2885
 5795TIP3   OH238875   2.758   1.531   3.375  0.4338  0.3881  0.2623
 5795TIP3    H138876   2.828   1.565   3.431 -0.5531  1.2784  0.9902
 5795TIP3    H238877   2.691   1.500   3.436 -1.2117  2.5068 -0.3485
 5796TIP3   OH238878   5.133   0.428   2.041 -0.0680 -0.2908 -0.5489
 5796TIP3    H138879   5.100   0.389   1.960 -0.3286  1.0920 -1.1240
 5796TIP3    H238880   5.222   0.457   2.018 -0.0153 -0.2050 -0.2331
 5797TIP3   OH238881   5.091   2.499  10.891  0.4293 -0.0664  0.1350
 5797TIP3    H138882   5.183   2.524  10.903  0.4738 -0.4940  0.7300
 5797TIP3    H238883   5.094   2.405  10.874  0.1646  0.0741 -0.7478
 5798TIP3   OH238884   4.601   6.129   3.478 -0.9200  0.9598  0.0029
 5798TIP3    H138885   4.521   6.101   3.523 -2.4087  1.1570 -2.3662
 5798TIP3    H238886   4.598   6.225   3.480 -0.3229  0.9754  0.5566
 5799TIP3   OH238887   1.603   1.714  11.259  0.2235 -0.3182  0.2527
 5799TIP3    H138888   1.531   1.681  11.206 -0.7326 -1.6208  2.2769
 5799TIP3    H238889   1.672   1.648  11.250  0.6196  0.1716 -0.4561
 5800TIP3   OH238890   1.970   4.476  12.905 -0.1433  0.0585  0.0862
 5800TIP3    H138891   1.920   4.412  12.854 -0.2489  1.4892 -1.7045
 5800TIP3    H238892   2.060   4.442  12.903 -0.2241 -0.1415 -0.7082
 5801TIP3   OH238893   4.426   6.324  12.229 -0.1296 -0.6190 -0.2199
 5801TIP3    H138894   4.443   6.232  12.247 -0.0699 -0.4907  0.4234
 5801TIP3    H238895   4.444   6.368  12.312 -1.3924 -0.1912 -0.1490
 5802TIP3   OH238896   2.937   4.267  11.443 -0.2634 -0.3481 -0.0960
 5802TIP3    H138897   2.843   4.277  11.457 -0.2343  0.1094 -0.2279
 5802TIP3    H238898   2.947   4.263  11.348 -0.0393  0.7248 -0.1238
 5803TIP3   OH238899   3.862   1.555   3.072 -0.0471 -0.0358 -0.0190
 5803TIP3    H138900   3.918   1.477   3.065  0.6810  0.5616 -1.0484
 5803TIP3    H238901   3.775   1.524   3.046  0.5900 -0.1549 -2.2018
 5804TIP3   OH238902   6.807   1.131  15.339  0.0027 -0.5940 -0.3630
 5804TIP3    H138903   6.855   1.050  15.358 -2.4548 -2.0066  0.4105
 5804TIP3    H238904   6.803   1.177  15.423 -0.4549 -0.7846 -0.2740
 5805TIP3   OH238905   1.998   3.772   1.887 -0.4548 -0.2543  1.1011
 5805TIP3    H138906   1.964   3.789   1.975  0.8310 -0.1752  1.6104
 5805TIP3    H238907   1.956   3.691   1.860  0.0666 -0.9527  2.3146
 5806TIP3   OH238908   6.591   5.922  15.028 -0.7499 -0.2286 -0.3142
 5806TIP3    H138909   6.602   5.836  14.987 -0.7026  0.4170 -1.7154
 5806TIP3    H238910   6.586   5.983  14.954 -0.9095  0.9611  0.6540
 5807TIP3   OH238911   1.305   2.969  10.709  0.2005 -0.1662  0.0921
 5807TIP3    H138912   1.301   2.992  10.616  2.1932  1.5129  0.3648
 5807TIP3    H238913   1.367   3.030  10.747 -0.2034 -1.1161  2.4776
 5808TIP3   OH238914   6.387   5.375  10.944  0.1104 -0.3440  0.5410
 5808TIP3    H138915   6.442   5.433  10.892 -1.2234 -0.3023 -0.8710
 5808TIP3    H238916   6.420   5.287  10.925 -1.7325 -0.5574 -2.2514
 5809TIP3   OH238917   2.178   0.473  12.063 -0.4760 -0.0901 -0.9846
 5809TIP3    H138918   2.145   0.563  12.069 -0.0391  0.1567 -1.9604
 5809TIP3    H238919   2.260   0.481  12.013  0.3205 -0.8574  0.1471
 5810TIP3   OH238920   2.471   0.775   3.617  0.2988 -0.4049  0.0797
 5810TIP3    H138921   2.424   0.695   3.639 -0.4669 -0.1428 -0.5545
 5810TIP3    H238922   2.559   0.761   3.651  0.9527 -2.5722 -2.1427
 5811TIP3   OH238923   1.727   3.420  15.926 -0.1146  0.1281  0.7770
 5811TIP3    H138924   1.684   3.440  15.842 -0.3496 -0.2597  0.8044
 5811TIP3    H238925   1.738   3.325  15.925  1.9534  0.3182  0.1784
 5812TIP3   OH238926   3.760   3.725   1.072  0.1687 -0.3167  0.4766
 5812TIP3    H138927   3.741   3.690   0.986  0.0563  3.0101 -1.0232
 5812TIP3    H238928   3.856   3.721   1.079  0.1388 -1.1064  0.4411
 5813TIP3   OH238929   4.329   3.511  11.796 -0.0578  0.1886 -0.2109
 5813TIP3    H138930   4.299   3.524  11.706  1.2619  0.1512 -0.6796
 5813TIP3    H238931   4.263   3.455  11.835 -0.6121  0.1348 -1.1811
 5814TIP3   OH238932   3.438   1.270   2.783 -0.7780  0.5659 -0.1213
 5814TIP3    H138933   3.505   1.309   2.727  0.0596 -0.2378  0.2870
 5814TIP3    H238934   3.355   1.295   2.743 -0.2517  1.8322 -0.4776
 5815TIP3   OH238935   4.051   5.461   3.765 -0.4279  0.5317  0.5054
 5815TIP3    H138936   3.977   5.400   3.775 -0.8450  1.1430  1.2621
 5815TIP3    H238937   4.052   5.511   3.846  0.9162  0.4537  0.5592
 5816TIP3   OH238938   5.681   5.058   0.046 -0.9769  0.0640  0.3389
 5816TIP3    H138939   5.776   5.051   0.044 -0.9760  0.2116 -0.2190
 5816TIP3    H238940   5.655   5.067  -0.046 -1.5881 -0.8385  0.4068
 5817TIP3   OH238941   5.784   6.809  16.025 -0.2103  0.0700 -0.2966
 5817TIP3    H138942   5.735   6.728  16.010 -1.4048  0.7913 -0.3666
 5817TIP3    H238943   5.829   6.825  15.942 -1.7763  0.6786 -1.0518
 5818TIP3   OH238944   5.427   6.099  15.729 -0.0876  0.2299 -0.0513
 5818TIP3    H138945   5.340   6.138  15.740 -0.0746  0.0918  0.5519
 5818TIP3    H238946   5.414   6.007  15.751  0.0646  0.0642 -0.6454
 5819TIP3   OH238947   5.067   5.096  13.092  0.3433 -0.3217 -0.2780
 5819TIP3    H138948   5.112   5.180  13.094  1.3302 -0.8079 -0.9653
 5819TIP3    H238949   5.137   5.031  13.091 -0.3907 -1.2512  2.1376
 5820TIP3   OH238950   0.822   1.835   4.342 -0.0125 -0.2568 -0.2496
 5820TIP3    H138951   0.868   1.752   4.329 -0.0980 -0.4154  0.4384
 5820TIP3    H238952   0.794   1.834   4.433 -2.1899 -0.5565 -0.8715
 5821TIP3   OH238953   4.692   0.509   1.763  0.6134 -0.6090  0.2258
 5821TIP3    H138954   4.716   0.447   1.832  0.5249 -0.1801  0.6459
 5821TIP3    H238955   4.706   0.595   1.802 -0.1555 -0.3547 -0.0385
 5822TIP3   OH238956   5.581   5.662  10.968 -0.1170  0.0202  0.7596
 5822TIP3    H138957   5.498   5.660  10.921 -0.2364  0.0011  0.9692
 5822TIP3    H238958   5.620   5.576  10.951 -0.1114  0.0511  0.6115
 5823TIP3   OH238959   3.143   4.823  13.969  0.1495  0.4268  0.4358
 5823TIP3    H138960   3.168   4.827  14.062 -0.9739 -0.7847  0.8357
 5823TIP3    H238961   3.194   4.751  13.934  1.3511  1.5479 -0.1792
 5824TIP3   OH238962   2.507   0.404  12.932 -0.0571 -0.0987 -0.0580
 5824TIP3    H138963   2.423   0.397  12.977  0.1670  1.1121  0.5959
 5824TIP3    H238964   2.521   0.498  12.921  0.9458 -0.2964 -0.6786
 5825TIP3   OH238965   3.182   4.836  11.895  0.2036  0.0754 -0.4093
 5825TIP3    H138966   3.182   4.920  11.941  0.6052 -0.7282  1.1259
 5825TIP3    H238967   3.242   4.848  11.821 -1.1871  1.6936 -1.3499
 5826TIP3   OH238968   3.762   0.768   2.483 -0.2750 -0.1485  0.1371
 5826TIP3    H138969   3.785   0.678   2.459  0.4252  0.3676 -1.2755
 5826TIP3    H238970   3.673   0.762   2.516 -0.6951 -1.2140 -1.0766
 5827TIP3   OH238971   5.471   2.922  12.273 -0.1954 -0.4891 -0.2426
 5827TIP3    H138972   5.397   2.896  12.327 -0.8807  2.2039  0.2660
 5827TIP3    H238973   5.530   2.968  12.333  0.1812  0.4728 -1.3133
 5828TIP3   OH238974   0.384   5.915  11.895 -0.0912 -0.6238  0.4908
 5828TIP3    H138975   0.417   5.860  11.966 -0.1032 -1.1128  0.1242
 5828TIP3    H238976   0.302   5.950  11.928 -0.8371 -2.0034  0.1957
 5829TIP3   OH238977   4.628   0.032  12.104 -0.0122  1.0852  0.0393
 5829TIP3    H138978   4.667   0.078  12.178  0.1216  1.0238  0.0080
 5829TIP3    H238979   4.535   0.027  12.125  0.0886  0.6739  0.4194
 5830TIP3   OH238980   4.375   5.114  11.234  0.2178  0.0024  0.0304
 5830TIP3    H138981   4.288   5.112  11.274  0.6219 -2.2652  0.9632
 5830TIP3    H238982   4.368   5.056  11.158  0.4272  1.3748 -1.0691
 5831TIP3   OH238983   5.342   0.881  14.491  0.6307 -0.2090  0.7059
 5831TIP3    H138984   5.423   0.915  14.455  1.0745 -1.4942  0.4473
 5831TIP3    H238985   5.273   0.919  14.436  1.1388 -0.1804  0.0866
 5832TIP3   OH238986   1.609   2.347  16.635  0.3768  0.0243  0.5262
 5832TIP3    H138987   1.653   2.370  16.553 -1.7421 -1.3717 -1.1162
 5832TIP3    H238988   1.679   2.322  16.694  1.9281  0.3162 -1.1200
 5833TIP3   OH238989   4.630   5.158   0.611  0.2060  0.3636 -0.3052
 5833TIP3    H138990   4.720   5.139   0.585  0.5104 -1.1581  1.5997
 5833TIP3    H238991   4.577   5.092   0.566 -0.0340  1.4217 -1.6342
 5834TIP3   OH238992   4.197   3.265  15.482 -0.5999 -0.1788 -0.1359
 5834TIP3    H138993   4.180   3.180  15.522 -0.5711 -0.4679 -0.7237
 5834TIP3    H238994   4.288   3.259  15.451 -0.0894  0.6044  1.1431
 5835TIP3   OH238995   3.015   6.745  11.379 -0.6625  0.8525  0.2314
 5835TIP3    H138996   3.050   6.834  11.390 -0.0811  0.7684 -0.7800
 5835TIP3    H238997   2.920   6.757  11.376 -0.5677  1.5318 -0.5288
 5836TIP3   OH238998   1.228   5.959  13.472  0.4870  0.0772  0.3702
 5836TIP3    H138999   1.283   6.034  13.496  0.8662  0.1699 -0.7227
 5836TIP3    H239000   1.261   5.932  13.386 -0.2707 -0.7519  0.3258
 5837TIP3   OH239001   2.143   0.114   2.533 -0.0193  0.0678 -0.5392
 5837TIP3    H139002   2.132   0.096   2.439 -2.5449 -1.8588  0.0146
 5837TIP3    H239003   2.066   0.166   2.557 -1.0462 -2.0027  0.9655
 5838TIP3   OH239004   3.216   5.092   3.717 -0.6852 -0.1351 -0.1687
 5838TIP3    H139005   3.225   5.146   3.639  2.9197  0.2793  0.3848
 5838TIP3    H239006   3.265   5.012   3.697  2.1307  0.8173  2.2431
 5839TIP3   OH239007   6.352   5.627  14.953  0.1471  0.0660  0.0372
 5839TIP3    H139008   6.443   5.639  14.924  0.0724 -0.4220 -0.4192
 5839TIP3    H239009   6.312   5.713  14.946  0.9616  0.6138  1.6297
 5840TIP3   OH239010   4.412   3.870   2.901  0.3448 -0.2519 -0.3970
 5840TIP3    H139011   4.323   3.892   2.927  0.0806  0.1851 -1.5910
 5840TIP3    H239012   4.418   3.899   2.810  1.4935 -0.8905 -0.5450
 5841TIP3   OH239013   2.889   4.716   4.699  0.0791  0.1645 -0.4741
 5841TIP3    H139014   2.824   4.683   4.760 -0.4756  0.6044 -0.8077
 5841TIP3    H239015   2.929   4.638   4.661  0.5675 -0.1080  0.5879
 5842TIP3   OH239016   2.924   5.415  13.020 -0.5826 -0.1065 -0.8861
 5842TIP3    H139017   2.898   5.324  13.004 -0.6493 -0.1035 -0.7935
 5842TIP3    H239018   2.889   5.464  12.945 -1.3482 -0.0081 -0.4783
 5843TIP3   OH239019   4.825   0.308  11.100  0.3785  0.0021  0.1148
 5843TIP3    H139020   4.789   0.300  11.012  0.7722  0.9439 -0.1460
 5843TIP3    H239021   4.749   0.321  11.156  0.2377  1.1556 -0.3238
 5844TIP3   OH239022   4.215   3.652   3.355 -0.3397  0.9405 -0.0170
 5844TIP3    H139023   4.197   3.734   3.309 -2.2077 -0.5949 -2.2565
 5844TIP3    H239024   4.139   3.638   3.411  2.4231  3.4247  5.0560
 5845TIP3   OH239025   4.469   5.676  12.212  0.6159 -0.8073 -0.5494
 5845TIP3    H139026   4.468   5.581  12.197 -0.2463 -1.0481  0.8484
 5845TIP3    H239027   4.538   5.708  12.154  0.5891 -2.2202 -1.4173
 5846TIP3   OH239028   1.748   4.122   1.246 -0.4552 -0.0203 -0.6695
 5846TIP3    H139029   1.825   4.065   1.251 -0.4492 -0.8572 -5.4436
 5846TIP3    H239030   1.676   4.062   1.224 -1.0440  1.3853 -2.8331
 5847TIP3   OH239031   0.530   0.449  11.224 -0.5269 -0.5629  0.8124
 5847TIP3    H139032   0.516   0.374  11.167 -1.2294  1.4184 -1.8137
 5847TIP3    H239033   0.615   0.485  11.196 -0.1011 -0.4335  2.1652
 5848TIP3   OH239034   4.986   3.820  15.829 -0.4206 -0.0011 -0.1347
 5848TIP3    H139035   4.909   3.768  15.805 -0.5138 -0.0384  0.2324
 5848TIP3    H239036   5.060   3.772  15.792 -0.5306 -0.2304 -0.0607
 5849TIP3   OH239037   6.367   6.306  14.509 -0.5371  0.2085 -0.0026
 5849TIP3    H139038   6.395   6.216  14.493  0.0799  0.2795  0.6090
 5849TIP3    H239039   6.446   6.351  14.540 -1.1419  0.6190  1.0055
 5850TIP3   OH239040   3.029   1.751   2.573 -0.0542 -0.5922  0.3185
 5850TIP3    H139041   2.989   1.665   2.581 -0.1327 -0.5933 -0.0546
 5850TIP3    H239042   2.996   1.800   2.649 -1.9522 -0.1323 -0.7397
 5851TIP3   OH239043   5.233   1.897   1.720  0.3946 -0.0315 -0.0413
 5851TIP3    H139044   5.229   1.844   1.800  1.8605 -1.2140 -0.6854
 5851TIP3    H239045   5.277   1.978   1.747 -0.9930  0.4777  0.7579
 5852TIP3   OH239046   6.197   5.362   4.288 -0.1991 -0.2936  0.0815
 5852TIP3    H139047   6.138   5.404   4.351 -0.7085 -1.9129  0.7442
 5852TIP3    H239048   6.269   5.424   4.278 -1.6929  1.4688 -0.2889
 5853TIP3   OH239049   2.492   3.107  13.202 -0.7282  0.1532 -0.3610
 5853TIP3    H139050   2.582   3.101  13.236 -0.7533  1.4097 -0.0326
 5853TIP3    H239051   2.501   3.089  13.108  0.2332  2.3972 -0.7730
 5854TIP3   OH239052   5.668   2.585   2.167  0.2179 -0.6726  0.3822
 5854TIP3    H139053   5.717   2.587   2.084  0.5262 -0.8597  0.5566
 5854TIP3    H239054   5.581   2.554   2.143 -0.8543  2.5183 -0.4542
 5855TIP3   OH239055   4.980   2.085   1.281  0.2590 -0.0531 -0.0877
 5855TIP3    H139056   4.984   2.171   1.322 -2.0257 -0.2839  0.7938
 5855TIP3    H239057   5.059   2.040   1.311  1.0192  1.4250  0.1864
 5856TIP3   OH239058   3.294   0.049  12.804  0.6152 -0.1529 -0.1747
 5856TIP3    H139059   3.343  -0.032  12.822 -1.0508 -0.9710  0.8441
 5856TIP3    H239060   3.236   0.060  12.879 -1.7313  0.0444 -1.8940
 5857TIP3   OH239061   4.799   3.401   3.247 -0.1246 -0.5102  0.2062
 5857TIP3    H139062   4.784   3.395   3.342 -0.4001  2.1121  0.4181
 5857TIP3    H239063   4.873   3.461   3.239 -1.5772  1.2279 -1.2235
 5858TIP3   OH239064   3.424   5.200   1.544  0.3475  0.0898 -0.2387
 5858TIP3    H139065   3.511   5.162   1.534 -0.0283 -1.2106  1.0624
 5858TIP3    H239066   3.440   5.292   1.567  1.5076 -0.6496  2.2894
 5859TIP3   OH239067   4.953   4.611  13.935 -0.0600 -0.6824 -0.7554
 5859TIP3    H139068   4.917   4.555  14.004 -0.1860 -0.3722 -0.5673
 5859TIP3    H239069   4.879   4.631  13.879 -0.2414  0.1584 -0.2289
 5860TIP3   OH239070   0.546   0.168   3.609 -0.0878 -0.2503  0.3615
 5860TIP3    H139071   0.555   0.225   3.532 -3.0128 -0.3653 -0.1628
 5860TIP3    H239072   0.496   0.220   3.671 -1.1571 -1.5472  0.6196
 5861TIP3   OH239073   2.619   6.358   3.642 -0.7997 -0.3017  0.3822
 5861TIP3    H139074   2.711   6.356   3.666 -0.8158 -2.4284  0.4492
 5861TIP3    H239075   2.617   6.335   3.549 -1.2890 -0.7960  0.5077
 5862TIP3   OH239076   0.994   6.543   4.104 -0.1765 -0.2433 -0.6341
 5862TIP3    H139077   0.940   6.611   4.063 -1.8762 -1.8559 -1.2169
 5862TIP3    H239078   1.084   6.565   4.079 -0.8264  0.8933 -2.1151
 5863TIP3   OH239079   4.817   2.080   0.812 -0.1212 -0.0934  0.3840
 5863TIP3    H139080   4.843   1.988   0.813 -0.8806 -0.3193 -0.1552
 5863TIP3    H239081   4.796   2.100   0.904  1.5108 -0.0116  0.7720
 5864TIP3   OH239082   4.638   5.970  12.544  0.3236 -0.1256  0.0041
 5864TIP3    H139083   4.555   5.922  12.537  0.7855 -1.1131  1.0484
 5864TIP3    H239084   4.705   5.903  12.550  0.8867  0.5619  2.8047
 5865TIP3   OH239085   4.080   6.700   0.095  0.1064 -0.5575  0.5905
 5865TIP3    H139086   4.136   6.753   0.037 -2.0541  1.3078  0.0641
 5865TIP3    H239087   4.040   6.635   0.038  1.8793 -2.1454  1.0328
 5866TIP3   OH239088   4.196   4.585   0.477  0.4115  0.5475 -0.5192
 5866TIP3    H139089   4.192   4.505   0.425 -0.3852 -0.1545  0.5631
 5866TIP3    H239090   4.213   4.555   0.567  0.0619  1.5784 -0.0871
 5867TIP3   OH239091   4.124   5.558   1.495  0.1916 -0.4031 -0.0015
 5867TIP3    H139092   4.093   5.648   1.507 -4.1470 -1.7202  0.6449
 5867TIP3    H239093   4.135   5.525   1.584  4.0266 -0.0510 -0.1840
 5868TIP3   OH239094   3.029   0.768  14.834 -0.1996 -0.0736 -0.1335
 5868TIP3    H139095   2.959   0.831  14.821 -1.2699 -1.4462 -1.4146
 5868TIP3    H239096   3.000   0.714  14.908  0.2433  0.3004  0.3201
 5869TIP3   OH239097   3.081   1.036   3.232 -0.2210 -0.4327 -0.0623
 5869TIP3    H139098   3.175   1.036   3.212 -0.4266 -2.4133 -1.3201
 5869TIP3    H239099   3.045   1.107   3.180  0.4552 -0.2455 -0.2842
 5870TIP3   OH239100   6.194   2.775  15.983 -0.2091 -0.0409  0.4018
 5870TIP3    H139101   6.278   2.729  15.987  0.0270  0.4618  1.5295
 5870TIP3    H239102   6.136   2.713  15.938  0.1956 -1.3030  1.5268
 5871TIP3   OH239103   2.792   2.221  13.643  0.0493  0.2516 -0.2116
 5871TIP3    H139104   2.730   2.259  13.580 -0.3830 -0.3917 -0.1787
 5871TIP3    H239105   2.795   2.128  13.621 -0.1390  0.0108  0.7532
 5872TIP3   OH239106   0.898   5.892  14.288 -0.2195 -0.6347 -0.0312
 5872TIP3    H139107   0.828   5.850  14.239 -2.0640  1.1312  0.9395
 5872TIP3    H239108   0.905   5.841  14.369 -1.6594  0.1670  0.6420
 5873TIP3   OH239109   0.583   5.584   4.806 -0.2687 -0.1178  0.8836
 5873TIP3    H139110   0.519   5.610   4.741 -2.3561  1.4468  3.3715
 5873TIP3    H239111   0.544   5.508   4.850 -1.1132  1.5627  3.2120
 5874TIP3   OH239112   5.847   1.507   1.983  0.1072  0.0862  0.3363
 5874TIP3    H139113   5.878   1.596   2.001  2.3862 -0.3888 -0.9173
 5874TIP3    H239114   5.911   1.450   2.025 -1.9318 -1.0474  2.1099
 5875TIP3   OH239115   1.524   1.498   2.875 -0.1248 -0.1397  0.4002
 5875TIP3    H139116   1.455   1.563   2.864 -0.8897 -1.1318 -0.9769
 5875TIP3    H239117   1.528   1.483   2.969  0.1301  1.9157  0.7614
 5876TIP3   OH239118   6.527   5.285   2.616  0.4458 -0.5992 -0.1506
 5876TIP3    H139119   6.466   5.256   2.548  0.0164  2.1764 -1.0746
 5876TIP3    H239120   6.596   5.218   2.618 -2.0667 -3.3732  0.2970
 5877TIP3   OH239121   0.827   6.396   0.070 -0.7641  0.2538 -0.0521
 5877TIP3    H139122   0.743   6.405   0.024 -1.1236  0.1284  0.5648
 5877TIP3    H239123   0.885   6.458   0.027 -1.6927  1.7009  0.6862
 5878TIP3   OH239124   3.545   1.581  15.028 -0.0423 -0.4957  0.1374
 5878TIP3    H139125   3.586   1.568  15.114  0.3823  1.3916  0.2645
 5878TIP3    H239126   3.521   1.674  15.027  2.1857  0.1769 -2.7145
 5879TIP3   OH239127   5.131   2.293   2.768 -0.0554 -0.0323  0.4965
 5879TIP3    H139128   5.134   2.235   2.692  0.8469 -1.0428  1.2679
 5879TIP3    H239129   5.171   2.375   2.737 -0.5718 -0.0883 -0.3659
 5880TIP3   OH239130   6.312   2.228   3.047 -0.4399 -0.3261  0.5766
 5880TIP3    H139131   6.311   2.231   2.951  1.6980 -3.0217  0.3576
 5880TIP3    H239132   6.266   2.146   3.069  0.7776 -0.7319  1.7149
 5881TIP3   OH239133   5.660   3.159   1.383  0.1154 -0.5833  0.4990
 5881TIP3    H139134   5.619   3.077   1.356  1.2154 -1.9562  2.7021
 5881TIP3    H239135   5.736   3.132   1.435  1.7318  1.8593 -0.4088
 5882TIP3   OH239136   0.330   2.599   4.481  0.0957  1.1000  0.1373
 5882TIP3    H139137   0.274   2.618   4.556 -0.9373  0.9829 -0.5781
 5882TIP3    H239138   0.297   2.656   4.412  1.2893  1.4931 -0.1289
 5883TIP3   OH239139   4.693   0.518  10.942  0.0513  0.0255 -0.1484
 5883TIP3    H139140   4.680   0.479  10.856  1.6455  0.0239 -0.4065
 5883TIP3    H239141   4.747   0.595  10.926 -0.2762  0.4732  0.7724
 5884TIP3   OH239142   0.586   5.197  15.733 -0.1629  0.0750 -0.1546
 5884TIP3    H139143   0.662   5.162  15.688 -0.4903 -1.1048  0.1630
 5884TIP3    H239144   0.542   5.253  15.669  0.8122  0.5480 -0.4200
 5885TIP3   OH239145   3.383   0.927  14.464  0.4177 -0.0098 -0.0191
 5885TIP3    H139146   3.458   0.953  14.410 -0.4268  1.9633 -0.3242
 5885TIP3    H239147   3.332   0.869  14.408  0.2769  0.8996 -0.8514
 5886TIP3   OH239148   3.412   2.767  12.471  0.0400 -0.0474 -0.3054
 5886TIP3    H139149   3.335   2.778  12.526  0.3592  1.2162 -0.0751
 5886TIP3    H239150   3.392   2.815  12.391  0.0288 -0.9299 -0.8504
 5887TIP3   OH239151   3.817   1.913   1.826  0.2647  0.2551 -0.1892
 5887TIP3    H139152   3.754   1.842   1.836 -0.1305  0.4867 -0.9599
 5887TIP3    H239153   3.766   1.993   1.839  0.2789  0.4628 -1.2992
 5888TIP3   OH239154   6.759   6.093   0.229  0.2391  0.1808 -0.1796
 5888TIP3    H139155   6.852   6.109   0.214  0.1277  0.7952 -0.2531
 5888TIP3    H239156   6.736   6.153   0.300  0.1170 -0.6745  0.5299
 5889TIP3   OH239157   2.583   4.897  12.428 -0.3077 -0.7611 -0.0046
 5889TIP3    H139158   2.647   4.831  12.457 -1.8174 -1.3718  2.1669
 5889TIP3    H239159   2.505   4.847  12.405 -1.4843  0.1876  1.6799
 5890TIP3   OH239160   4.787   2.753  12.054 -0.0367 -0.1444  0.2653
 5890TIP3    H139161   4.859   2.747  11.991  1.0613 -0.9909  1.5594
 5890TIP3    H239162   4.824   2.800  12.129 -0.6508 -1.0649  1.1732
 5891TIP3   OH239163   4.457   2.286   1.988 -0.0149 -0.4539 -0.2401
 5891TIP3    H139164   4.375   2.253   1.952 -1.1356  0.7707  1.0904
 5891TIP3    H239165   4.479   2.360   1.932 -0.4615 -0.0395  0.1330
 5892TIP3   OH239166   6.644   0.927  11.618  0.6030 -0.7175 -0.2911
 5892TIP3    H139167   6.584   0.855  11.598 -0.1334 -0.3766  0.5944
 5892TIP3    H239168   6.729   0.898  11.588 -0.1611 -0.8420 -2.4842
 5893TIP3   OH239169   0.252   4.303   4.552  0.1019  0.3925  0.3533
 5893TIP3    H139170   0.259   4.347   4.637  0.5311  0.5811  0.2243
 5893TIP3    H239171   0.303   4.358   4.492  0.4135 -0.1285  0.1282
 5894TIP3   OH239172   0.421   4.959  16.908  0.1090  0.1934 -0.1357
 5894TIP3    H139173   0.450   4.955  17.000  1.5753 -0.8806 -0.6121
 5894TIP3    H239174   0.496   4.927  16.858 -0.5010  1.2127 -1.7679
 5895TIP3   OH239175   2.478   2.468  13.783 -0.3332  0.2640  0.4509
 5895TIP3    H139176   2.487   2.523  13.861  0.0020  0.6227  0.1660
 5895TIP3    H239177   2.406   2.408  13.804 -0.3395  0.4481  0.9793
 5896TIP3   OH239178   0.931   4.051  14.373 -0.3365 -0.0382 -0.1493
 5896TIP3    H139179   0.907   3.971  14.418 -0.1332  0.2487  0.4899
 5896TIP3    H239180   1.003   4.026  14.315 -0.4628 -0.3759 -0.1566
 5897TIP3   OH239181   3.153   2.213  13.134  0.0392 -0.5005 -0.1128
 5897TIP3    H139182   3.157   2.252  13.046  1.5428  1.4945  0.7477
 5897TIP3    H239183   3.132   2.287  13.191 -0.4712 -1.6764  1.2739
 5898TIP3   OH239184   1.035   2.999   0.032  0.5252 -0.1695 -0.4146
 5898TIP3    H139185   1.068   2.914   0.004  0.1065 -0.0213 -1.3900
 5898TIP3    H239186   0.996   3.037  -0.046  0.9078  1.0202 -0.0505
 5899TIP3   OH239187   5.187   6.462  15.557 -0.7944 -0.1036 -0.8072
 5899TIP3    H139188   5.107   6.488  15.511 -0.4276 -0.4833 -1.6887
 5899TIP3    H239189   5.248   6.438  15.487 -0.5722 -1.7466 -0.1087
 5900TIP3   OH239190   3.209   1.798  14.065 -0.4369 -0.2316 -0.5835
 5900TIP3    H139191   3.187   1.743  14.141 -1.5237 -0.9004 -1.3555
 5900TIP3    H239192   3.196   1.740  13.989  0.8617  0.3593 -1.2730
 5901TIP3   OH239193   1.185   1.269  14.121 -0.3150  0.1987 -0.0393
 5901TIP3    H139194   1.214   1.308  14.039  0.1674 -1.4916 -0.7096
 5901TIP3    H239195   1.253   1.206  14.144 -0.3864  0.7014  1.7351
 5902TIP3   OH239196   2.170   6.114  16.826  0.6631  0.2977 -0.1037
 5902TIP3    H139197   2.122   6.141  16.905 -2.0255 -1.3442 -1.0142
 5902TIP3    H239198   2.219   6.037  16.853  1.8096  1.2125  0.5173
 5903TIP3   OH239199   0.572   5.741   5.774  0.3932  0.0347  0.4928
 5903TIP3    H139200   0.497   5.773   5.723  0.1423 -0.1783  0.7230
 5903TIP3    H239201   0.608   5.820   5.815  2.5570  0.7421 -2.4835
 5904TIP3   OH239202   0.268   4.938  14.324 -0.8299 -0.1886  0.1697
 5904TIP3    H139203   0.222   4.955  14.241 -2.1811  2.1473  1.3059
 5904TIP3    H239204   0.359   4.926  14.298 -1.6533 -2.9856 -1.9674
 5905TIP3   OH239205   0.942   1.810  17.038  0.8925 -0.3632 -0.0237
 5905TIP3    H139206   1.028   1.843  17.064  1.5680 -1.7589 -0.3775
 5905TIP3    H239207   0.948   1.801  16.943  0.4182 -0.6180 -0.0322
 5906TIP3   OH239208   6.104   3.629   2.760 -0.2560  0.1253 -0.7190
 5906TIP3    H139209   6.126   3.698   2.823  0.7051 -1.5121  0.8351
 5906TIP3    H239210   6.059   3.562   2.812 -0.1302 -0.9351 -1.9274
 5907TIP3   OH239211   4.068   6.583  11.652 -0.2396  0.0727  0.0332
 5907TIP3    H139212   4.159   6.579  11.682 -0.4218  0.1032  0.6057
 5907TIP3    H239213   4.071   6.637  11.573  0.4405 -1.0607 -0.7486
 5908TIP3   OH239214   3.077   3.869   2.117 -0.4462 -0.6727  0.0185
 5908TIP3    H139215   3.027   3.896   2.041 -0.2006  0.6861  0.3133
 5908TIP3    H239216   3.110   3.950   2.155 -0.1100 -1.3556  1.2678
 5909TIP3   OH239217   2.954   4.116   5.982 -0.1764  0.2188 -0.0595
 5909TIP3    H139218   2.864   4.123   6.014 -0.2432  0.7153 -0.3569
 5909TIP3    H239219   3.008   4.142   6.056 -0.2552 -0.5491  0.2765
 5910TIP3   OH239220   2.479   2.490   5.815  0.1921  0.4655 -0.6854
 5910TIP3    H139221   2.403   2.452   5.771 -0.7223  0.2277  1.0058
 5910TIP3    H239222   2.550   2.430   5.796  0.2755  1.2858 -3.2440
 5911TIP3   OH239223   1.875   1.466  13.345 -0.3867 -0.0752 -0.3250
 5911TIP3    H139224   1.886   1.520  13.423  0.5316 -0.5656 -0.1099
 5911TIP3    H239225   1.953   1.483  13.293  1.4193 -3.2879  1.0364
 5912TIP3   OH239226   1.899   4.623  16.096 -0.3996 -0.2880  0.3127
 5912TIP3    H139227   1.971   4.680  16.068 -0.3701 -0.0658  0.8239
 5912TIP3    H239228   1.889   4.560  16.025  1.3054 -1.2575  0.8734
 5913TIP3   OH239229   4.860   4.760   5.418  0.9288 -0.0496  0.1313
 5913TIP3    H139230   4.923   4.770   5.347 -0.5403  1.8826 -0.9832
 5913TIP3    H239231   4.848   4.848   5.453 -1.3433 -0.2877  0.0931
 5914TIP3   OH239232   1.442   2.430  13.167 -0.7710 -0.2318  0.7961
 5914TIP3    H139233   1.357   2.392  13.142 -0.0921  0.4805 -3.3323
 5914TIP3    H239234   1.441   2.517  13.128  1.1975  0.5384  2.2942
 5915TIP3   OH239235   4.698   0.443   5.544 -0.1700  0.6449 -0.7755
 5915TIP3    H139236   4.703   0.463   5.451  1.3587  2.3441 -0.3985
 5915TIP3    H239237   4.732   0.354   5.552 -1.4832  0.0023 -1.9402
 5916TIP3   OH239238   3.646   2.639  14.382  0.1326 -0.3013 -0.1722
 5916TIP3    H139239   3.614   2.558  14.421 -0.4866 -0.1389 -0.3314
 5916TIP3    H239240   3.738   2.645  14.411 -0.4124  0.0315  1.6392
 5917TIP3   OH239241   6.816   0.109  11.552  0.0545  0.1023 -0.4304
 5917TIP3    H139242   6.817   0.163  11.473  1.0431 -1.5223 -1.5814
 5917TIP3    H239243   6.762   0.158  11.614  0.0937  1.9097 -1.7507
 5918TIP3   OH239244   1.017   4.412  14.394 -0.3782  0.5052  0.1493
 5918TIP3    H139245   0.954   4.342  14.407 -0.3925  0.7427  1.4349
 5918TIP3    H239246   1.016   4.428  14.299 -0.2942 -1.2907 -0.1894
 5919TIP3   OH239247   1.270   5.274  14.579 -0.1384  0.4373  0.1383
 5919TIP3    H139248   1.317   5.296  14.499  1.0521 -2.2957 -0.0192
 5919TIP3    H239249   1.338   5.266  14.646 -0.7070 -0.5173  0.6324
 5920TIP3   OH239250   5.250   6.584   5.905 -0.1703 -0.2797  0.2077
 5920TIP3    H139251   5.172   6.578   5.960 -0.6491 -1.3402 -0.5485
 5920TIP3    H239252   5.235   6.519   5.836  0.8888  0.2807 -0.5689
 5921TIP3   OH239253   0.100   3.407  13.197 -0.0566 -0.0896 -0.6497
 5921TIP3    H139254   0.155   3.399  13.276 -0.2779  0.9480 -0.3776
 5921TIP3    H239255   0.156   3.453  13.134 -0.5338  0.8137 -0.4304
 5922TIP3   OH239256   2.656   6.303   0.043  0.3968 -0.1636 -0.0029
 5922TIP3    H139257   2.568   6.267   0.056 -0.3094  1.5961  0.4171
 5922TIP3    H239258   2.712   6.249   0.099 -0.5369 -0.8644  0.2831
 5923TIP3   OH239259   5.118   4.418  16.411 -0.4403  0.0831  0.1204
 5923TIP3    H139260   5.188   4.402  16.348 -2.3403 -1.2995 -1.7694
 5923TIP3    H239261   5.126   4.511  16.432  0.9840  0.3161 -1.2257
 5924TIP3   OH239262   0.558   5.997  13.144  0.7539 -0.3235  0.3596
 5924TIP3    H139263   0.629   6.061  13.142  1.1671 -0.7960 -0.2077
 5924TIP3    H239264   0.486   6.043  13.189  1.6874 -0.1367  1.7030
 5925TIP3   OH239265   3.214   2.997  13.860 -0.3851 -0.4652  0.3856
 5925TIP3    H139266   3.174   2.940  13.794  0.6856  0.4616 -1.1039
 5925TIP3    H239267   3.171   3.081  13.849  2.1441  0.6812 -1.5426
 5926TIP3   OH239268   3.522   1.818   6.280 -0.0530 -0.0971  0.0477
 5926TIP3    H139269   3.506   1.809   6.374 -0.4807 -1.4137 -0.1321
 5926TIP3    H239270   3.589   1.752   6.261 -0.0210  0.1134 -0.5894
 5927TIP3   OH239271   2.119   2.724   6.177  0.3396 -0.1723  0.2063
 5927TIP3    H139272   2.184   2.764   6.235 -0.5021  0.1096  0.9808
 5927TIP3    H239273   2.036   2.765   6.202  0.1213  0.9988 -2.1606
 5928TIP3   OH239274   6.385   2.082   4.612  0.8599  0.1236 -0.0086
 5928TIP3    H139275   6.361   2.099   4.703  1.0211 -1.0178  0.2715
 5928TIP3    H239276   6.458   2.142   4.595  0.3407  0.8727  0.3692
 5929TIP3   OH239277   3.955   1.209  17.186 -0.1081 -0.3268 -0.8984
 5929TIP3    H139278   3.868   1.174  17.166 -0.8007  0.8074  0.0465
 5929TIP3    H239279   3.940   1.301  17.207  1.2269 -0.2825 -0.0134
 5930TIP3   OH239280   1.194   3.393  16.821 -0.2587  0.4381 -0.7435
 5930TIP3    H139281   1.137   3.316  16.813  0.4853 -0.1715 -0.2633
 5930TIP3    H239282   1.142   3.456  16.870 -1.0444  0.4209 -1.5208
 5931TIP3   OH239283   6.753   6.015   5.732  0.2126 -0.4286 -0.3166
 5931TIP3    H139284   6.758   6.077   5.659  0.8472  0.3200  0.3403
 5931TIP3    H239285   6.697   6.058   5.796 -0.3466 -1.0865 -0.3510
 5932TIP3   OH239286   2.231   4.939   4.585 -0.4885  0.3427  0.3402
 5932TIP3    H139287   2.223   4.854   4.627  0.5027 -0.1574 -0.4306
 5932TIP3    H239288   2.153   4.947   4.530 -0.5921 -0.0658  0.4264
 5933TIP3   OH239289   0.301   4.472   4.753  0.0152  0.4509  0.9946
 5933TIP3    H139290   0.384   4.472   4.799 -1.4910  0.7822  3.9479
 5933TIP3    H239291   0.266   4.560   4.767 -0.7515  0.3989 -0.3935
 5934TIP3   OH239292   1.345   4.682  13.870  0.5655  0.4951  0.2337
 5934TIP3    H139293   1.351   4.756  13.810  0.5405  0.5954  0.3548
 5934TIP3    H239294   1.340   4.722  13.957  2.4843  0.3012  0.4614
 5935TIP3   OH239295   2.371   2.871  13.755  0.1937  0.6159 -0.1566
 5935TIP3    H139296   2.327   2.955  13.742 -0.7637  0.1922  0.2358
 5935TIP3    H239297   2.314   2.807  13.711  0.3792  0.0461  0.4130
 5936TIP3   OH239298   0.966   2.777   5.720 -0.6704 -0.0416 -0.1543
 5936TIP3    H139299   0.917   2.858   5.710 -0.6819 -0.0907 -0.5062
 5936TIP3    H239300   0.947   2.749   5.810 -2.6051 -0.9078 -0.7772
 5937TIP3   OH239301   3.404   5.967  11.531 -0.3110  0.2359 -0.5443
 5937TIP3    H139302   3.417   5.900  11.464  0.4043 -0.0890 -0.0886
 5937TIP3    H239303   3.388   6.048  11.482 -1.5270 -0.3243 -1.0967
 5938TIP3   OH239304   2.873   2.846  14.656  0.3559 -0.1413  0.4074
 5938TIP3    H139305   2.821   2.780  14.703  1.8157 -1.2382  0.5306
 5938TIP3    H239306   2.904   2.800  14.577 -1.6684  1.5308 -1.4873
 5939TIP3   OH239307   3.812   6.600   2.363 -0.2554 -0.2017  0.6402
 5939TIP3    H139308   3.724   6.627   2.388 -0.9996 -1.0477 -0.9267
 5939TIP3    H239309   3.823   6.633   2.274  1.3589  0.6158  1.1060
 5940TIP3   OH239310   2.356   4.792   3.589  0.8864 -0.3854 -0.1883
 5940TIP3    H139311   2.382   4.813   3.500 -2.7382 -0.4664 -1.4157
 5940TIP3    H239312   2.365   4.697   3.595 -0.4723 -0.5868 -1.0959
 5941TIP3   OH239313   3.941   6.800   5.331  0.1539 -0.5588  0.2231
 5941TIP3    H139314   3.861   6.772   5.286 -0.1834  1.2568 -0.3945
 5941TIP3    H239315   4.006   6.733   5.308 -0.8210 -1.3337 -0.3850
 5942TIP3   OH239316   2.093   5.502   2.231 -0.2507  0.4878  0.3350
 5942TIP3    H139317   2.107   5.410   2.252 -0.1883  0.2643 -0.6586
 5942TIP3    H239318   2.145   5.518   2.153  0.7260  1.6900  1.1927
 5943TIP3   OH239319   6.335   2.353  15.843 -0.0914  0.2009  0.2203
 5943TIP3    H139320   6.266   2.315  15.788  0.5708 -1.0596  0.2308
 5943TIP3    H239321   6.393   2.398  15.781  0.5152 -1.0020 -0.1211
 5944TIP3   OH239322   6.047   1.847   2.592  0.0553  0.0457 -0.2543
 5944TIP3    H139323   6.104   1.858   2.668  0.8970 -1.6143 -0.5897
 5944TIP3    H239324   6.047   1.932   2.549  0.1301  0.8122  1.2027
 5945TIP3   OH239325   2.224   5.780  16.694  0.4226 -0.1407 -0.2637
 5945TIP3    H139326   2.226   5.714  16.624 -0.8929 -0.4003 -0.0785
 5945TIP3    H239327   2.299   5.836  16.676  2.8323 -2.7914  0.6769
 5946TIP3   OH239328   2.718   4.934   0.951 -0.0421 -0.5940  0.2281
 5946TIP3    H139329   2.812   4.940   0.965 -0.0391 -0.9724  0.3887
 5946TIP3    H239330   2.697   5.009   0.895  0.5058 -1.0546 -0.6091
 5947TIP3   OH239331   4.888   4.625  13.549  1.1646 -0.1627  0.0733
 5947TIP3    H139332   4.863   4.681  13.623  0.9713 -0.3188  0.1273
 5947TIP3    H239333   4.976   4.655  13.526  2.4891 -2.0036  2.2511
 5948TIP3   OH239334   5.150   5.362   2.990 -0.0677  0.2954 -0.2243
 5948TIP3    H139335   5.199   5.443   3.005  0.4559 -0.2062  0.8922
 5948TIP3    H239336   5.083   5.386   2.926 -1.8050  2.3755  2.1966
 5949TIP3   OH239337   6.108   0.544  14.954 -0.1005 -0.7330  0.0392
 5949TIP3    H139338   6.117   0.611  15.022 -1.7210 -1.1007  0.6706
 5949TIP3    H239339   6.193   0.541  14.911  0.0949  1.5220  0.1732
 5950TIP3   OH239340   3.107   1.107  11.010 -0.5065 -0.2035 -0.1912
 5950TIP3    H139341   3.114   1.193  11.052  0.1933 -0.0389 -0.6210
 5950TIP3    H239342   3.197   1.072  11.013 -0.0942  0.4576 -2.8586
 5951TIP3   OH239343   1.448   6.625  11.879  0.0218 -0.1131  0.3043
 5951TIP3    H139344   1.392   6.578  11.941 -1.2428 -1.2418 -1.6053
 5951TIP3    H239345   1.386   6.667  11.819  1.2204  0.8963 -0.2710
 5952TIP3   OH239346   4.047   4.859   3.877  0.7582  0.2316  0.3667
 5952TIP3    H139347   3.975   4.797   3.867  1.2129 -0.0907 -1.2371
 5952TIP3    H239348   4.004   4.943   3.890  0.1193 -0.1864  1.0597
 5953TIP3   OH239349   1.342   4.804   1.374  0.2713  0.7447 -0.6475
 5953TIP3    H139350   1.253   4.815   1.341 -1.2507 -1.9684  2.0657
 5953TIP3    H239351   1.347   4.865   1.448 -0.1044 -0.5095  0.4392
 5954TIP3   OH239352   3.477   0.032   4.306 -0.5037  0.5454  0.3607
 5954TIP3    H139353   3.448   0.079   4.228  0.4326  1.4461  0.5394
 5954TIP3    H239354   3.463  -0.060   4.284  1.7676  0.6109 -1.7798
 5955TIP3   OH239355   6.658   2.043  11.872  0.2003 -0.2305  0.3612
 5955TIP3    H139356   6.588   2.108  11.885 -1.3497 -2.0187  1.3777
 5955TIP3    H239357   6.651   2.019  11.779 -0.0918  0.0539  0.3055
 5956TIP3   OH239358   1.495   5.640   3.173 -0.0887 -0.4166 -0.1649
 5956TIP3    H139359   1.462   5.610   3.088  0.0293 -0.9789 -0.0171
 5956TIP3    H239360   1.463   5.730   3.181 -0.8502 -0.6597 -0.4155
 5957TIP3   OH239361   5.592   6.087  14.947  0.2632  0.6832 -0.4308
 5957TIP3    H139362   5.663   6.040  14.990  0.2955  0.7597 -0.4005
 5957TIP3    H239363   5.634   6.163  14.907  0.8710 -1.1276 -3.5456
 5958TIP3   OH239364   6.023   5.777   6.193 -0.3802  0.1673  0.4500
 5958TIP3    H139365   6.059   5.861   6.166 -0.7321 -0.2661 -1.5041
 5958TIP3    H239366   6.032   5.721   6.116 -1.5464 -1.1402  1.2179
 5959TIP3   OH239367   3.990   1.165   3.257 -0.4382  0.3042 -0.1989
 5959TIP3    H139368   3.931   1.090   3.255 -0.2076  0.1180 -0.0253
 5959TIP3    H239369   4.016   1.172   3.349  1.1703 -0.6718 -0.5538
 5960TIP3   OH239370   5.806   1.536  13.466 -0.5494 -0.2061  0.1375
 5960TIP3    H139371   5.723   1.497  13.491 -0.0136 -0.7364  1.1657
 5960TIP3    H239372   5.861   1.529  13.544  0.5493 -0.1114 -0.5946
 5961TIP3   OH239373   5.481   0.043   5.872 -0.5761  0.2045 -0.2019
 5961TIP3    H139374   5.560   0.018   5.920 -0.6569  0.7364  0.2176
 5961TIP3    H239375   5.410   0.001   5.919 -0.5233 -0.5027 -0.7426
 5962TIP3   OH239376   0.343   5.214   1.194  0.0820 -0.3473  0.3030
 5962TIP3    H139377   0.371   5.196   1.284 -0.0915  1.6532  0.8068
 5962TIP3    H239378   0.403   5.164   1.139 -1.4895 -3.8642  1.5079
 5963TIP3   OH239379   1.804   2.530  12.922 -0.5720  0.2497 -0.3690
 5963TIP3    H139380   1.860   2.498  12.851  0.9341 -0.3840  1.0415
 5963TIP3    H239381   1.774   2.451  12.967  0.3354  0.6557  1.0354
 5964TIP3   OH239382   0.372   3.434   2.827 -0.2605 -0.0971 -0.5255
 5964TIP3    H139383   0.451   3.488   2.831 -0.1370 -0.3352  0.6008
 5964TIP3    H239384   0.303   3.491   2.860 -0.8346  0.5296 -2.6665
 5965TIP3   OH239385   0.034   6.168  12.736 -0.5718 -0.2690 -0.4825
 5965TIP3    H139386   0.034   6.128  12.823  0.0663  0.8399  0.0466
 5965TIP3    H239387  -0.007   6.253  12.748  0.7288  0.4642 -0.9736
 5966TIP3   OH239388   1.546   3.246  13.994  0.1984  0.1957 -0.3248
 5966TIP3    H139389   1.503   3.233  13.910 -0.0527  3.0621 -0.7437
 5966TIP3    H239390   1.519   3.334  14.022  0.1228 -0.6970  2.8626
 5967TIP3   OH239391   5.218   0.645  17.181 -0.0281 -0.2335 -0.1185
 5967TIP3    H139392   5.278   0.677  17.114 -0.2774 -1.2079 -0.8285
 5967TIP3    H239393   5.185   0.724  17.223 -0.5983  0.4686 -1.7921
 5968TIP3   OH239394   1.915   5.936   4.069 -0.1085  0.6295 -0.4070
 5968TIP3    H139395   1.866   5.882   4.007  0.1495 -0.4322  0.3044
 5968TIP3    H239396   1.873   5.919   4.153  2.8247 -2.0860  0.6685
 5969TIP3   OH239397   1.857   5.861   4.352  0.6668 -0.2146  0.0601
 5969TIP3    H139398   1.823   5.783   4.308  1.2463 -0.1715 -0.4785
 5969TIP3    H239399   1.948   5.838   4.372  0.2153 -0.5217  1.9184
 5970TIP3   OH239400   3.091   0.403   0.669 -0.7658  0.0884 -0.1023
 5970TIP3    H139401   3.030   0.451   0.613  0.8313  0.5659 -1.5202
 5970TIP3    H239402   3.084   0.312   0.641  0.6509  0.4459 -1.7625
 5971TIP3   OH239403   6.724   4.281  14.632 -0.2575  0.3169 -0.1399
 5971TIP3    H139404   6.689   4.370  14.627 -0.2663  0.3378  0.2313
 5971TIP3    H239405   6.817   4.293  14.653 -0.0112  0.2627 -1.1451
 5972TIP3   OH239406   4.121   2.695   4.095  0.1046  0.0904 -0.1831
 5972TIP3    H139407   4.039   2.744   4.091 -1.1492 -1.6324  1.8395
 5972TIP3    H239408   4.188   2.758   4.070 -1.8790  1.2271 -3.2520
 5973TIP3   OH239409   6.340   5.269  14.021  0.1311 -0.3531  0.2116
 5973TIP3    H139410   6.267   5.278  14.082  2.7686 -0.7184  3.7360
 5973TIP3    H239411   6.358   5.359  13.992 -0.5468 -0.0135  0.8170
 5974TIP3   OH239412   5.916   5.412   3.266 -0.4359 -0.0884 -0.7156
 5974TIP3    H139413   5.827   5.400   3.299  0.3641 -1.3655  1.1855
 5974TIP3    H239414   5.970   5.419   3.345  1.0587  1.6791 -1.8137
 5975TIP3   OH239415   0.244   6.688   1.671 -0.1907  0.2098  0.1038
 5975TIP3    H139416   0.245   6.727   1.758 -0.8548  2.3750 -0.7737
 5975TIP3    H239417   0.158   6.647   1.664 -0.8241  1.5070 -0.0810
 5976TIP3   OH239418   3.727   0.116  16.545 -0.3439 -0.0650 -0.1215
 5976TIP3    H139419   3.752   0.053  16.612 -1.0070 -0.1692  0.0323
 5976TIP3    H239420   3.721   0.199  16.592  0.1916  0.0522 -0.2572
 5977TIP3   OH239421   1.952   3.126  16.549  0.2252 -0.3265 -0.1610
 5977TIP3    H139422   1.987   3.144  16.462  1.8853 -0.3633  0.4728
 5977TIP3    H239423   1.862   3.097  16.533  0.1770  0.5935 -1.7820
 5978TIP3   OH239424   5.301   3.566   4.528  0.1189  0.3158 -0.2594
 5978TIP3    H139425   5.330   3.475   4.533  0.5609  0.5265  1.4677
 5978TIP3    H239426   5.329   3.595   4.441  0.7276 -0.9463 -0.5045
 5979TIP3   OH239427   5.748   0.611  14.790 -0.0758  0.1431 -0.4202
 5979TIP3    H139428   5.714   0.576  14.873  2.4381  0.7423  0.9683
 5979TIP3    H239429   5.709   0.699  14.784 -0.4684  0.0044  0.0088
 5980TIP3   OH239430   1.520   5.197  16.702  0.4850 -0.4399 -0.4705
 5980TIP3    H139431   1.502   5.256  16.628  0.3582 -0.7330 -0.6809
 5980TIP3    H239432   1.611   5.214  16.726  0.2355  0.3425 -0.0645
 5981TIP3   OH239433   4.496   5.946  13.694 -0.4317  0.8836 -0.2008
 5981TIP3    H139434   4.552   5.951  13.771  0.5065  0.6838 -0.8563
 5981TIP3    H239435   4.512   6.028  13.647  0.2045  0.3302 -0.9796
 5982TIP3   OH239436   1.702   1.565  12.143  0.3679  0.2025 -0.0451
 5982TIP3    H139437   1.783   1.515  12.132  0.3480  0.3162 -0.7818
 5982TIP3    H239438   1.712   1.640  12.084 -0.3528  0.1053 -0.3042
 5983TIP3   OH239439   0.569   0.773   5.180  0.6084 -0.3275 -0.1602
 5983TIP3    H139440   0.543   0.735   5.264 -0.5123 -0.5744 -0.5996
 5983TIP3    H239441   0.606   0.699   5.131 -0.3840 -0.6028 -0.5311
 5984TIP3   OH239442   5.904   5.331   5.554 -0.1755  0.1334  0.2974
 5984TIP3    H139443   5.960   5.271   5.505 -0.5008 -0.2673  0.4197
 5984TIP3    H239444   5.949   5.344   5.637  0.4098  0.8615 -0.1181
 5985TIP3   OH239445   4.542   2.235  13.490  0.7706 -0.0355  0.4136
 5985TIP3    H139446   4.486   2.312  13.482 -0.4476 -0.9599 -0.4024
 5985TIP3    H239447   4.557   2.206  13.400  1.6842 -0.4322  0.6790
 5986TIP3   OH239448   5.976   4.814  12.671 -0.1875 -0.0443 -0.0075
 5986TIP3    H139449   5.897   4.764  12.652  0.7930 -1.4310 -0.6024
 5986TIP3    H239450   6.040   4.784  12.607  0.6947  1.4126  0.1359
 5987TIP3   OH239451   2.936   0.109   1.161 -0.2312 -0.0603 -0.7239
 5987TIP3    H139452   2.963   0.181   1.217  0.2496 -0.4977 -0.3940
 5987TIP3    H239453   3.016   0.059   1.145 -0.3023  0.1991 -2.0113
 5988TIP3   OH239454   3.712   4.386  11.662 -0.1572  0.5517 -0.5513
 5988TIP3    H139455   3.726   4.421  11.574 -1.9189  0.1806 -1.0303
 5988TIP3    H239456   3.637   4.435  11.695 -1.7144 -1.6363 -0.6426
 5989TIP3   OH239457   1.288   4.332  11.400 -0.6896  0.3232  0.3930
 5989TIP3    H139458   1.332   4.413  11.374  1.5985 -1.1477 -0.5632
 5989TIP3    H239459   1.311   4.322  11.493  1.2924 -0.5226 -0.1366
 5990TIP3   OH239460   5.309   5.059   1.083  0.3686  0.3482 -0.0575
 5990TIP3    H139461   5.373   5.044   1.014  0.0867 -2.4864  0.1707
 5990TIP3    H239462   5.224   5.047   1.041  0.1834 -0.9305  0.6136
 5991TIP3   OH239463   3.993   0.381   0.980 -0.4067  0.0930  0.6402
 5991TIP3    H139464   4.045   0.427   0.914  1.6663 -0.6290  1.6913
 5991TIP3    H239465   3.905   0.417   0.969  0.4119  1.8723 -0.7749
 5992TIP3   OH239466   5.507   3.169   0.340 -0.4849 -0.5694  0.2011
 5992TIP3    H139467   5.460   3.157   0.257 -1.2398  0.3088  0.4795
 5992TIP3    H239468   5.572   3.236   0.322 -1.4638  0.5126  0.6156
 5993TIP3   OH239469   3.427   2.067  10.987  0.1222 -0.4264  0.4913
 5993TIP3    H139470   3.433   2.007  11.061 -0.3083 -0.2984  0.6343
 5993TIP3    H239471   3.391   2.147  11.025 -0.6720 -0.5608  0.0252
 5994TIP3   OH239472   2.473   4.037  14.980 -0.0778  0.4982 -0.1306
 5994TIP3    H139473   2.539   4.077  14.924 -0.5917  0.6724 -0.6248
 5994TIP3    H239474   2.523   3.998  15.052  0.4084  2.6423  0.7719
 5995TIP3   OH239475   4.392   6.222  13.091 -0.4671 -0.5437 -0.3147
 5995TIP3    H139476   4.464   6.232  13.028 -0.2922  1.7432  0.1632
 5995TIP3    H239477   4.429   6.170  13.162  0.6870  0.4418 -0.1666
 5996TIP3   OH239478   1.022   0.154   2.464  0.2013  0.2241 -0.3321
 5996TIP3    H139479   0.965   0.225   2.493 -1.7427 -0.7734 -1.5070
 5996TIP3    H239480   1.009   0.085   2.530 -0.1868 -0.1141 -0.7602
 5997TIP3   OH239481   0.252   6.463   1.425 -0.1123 -0.1342 -0.8161
 5997TIP3    H139482   0.230   6.468   1.332 -0.6208  3.6387 -0.6649
 5997TIP3    H239483   0.167   6.459   1.470 -0.1849  2.8083 -0.5110
 5998TIP3   OH239484   3.954   2.515  15.183 -0.0971 -0.9135 -0.2882
 5998TIP3    H139485   4.021   2.473  15.129  1.0867  1.4218 -0.7397
 5998TIP3    H239486   3.879   2.456  15.178  1.0174 -2.2808 -1.9596
 5999TIP3   OH239487   4.465   6.626  17.034 -0.1434 -0.9121  0.2782
 5999TIP3    H139488   4.374   6.657  17.031  0.6717  1.6497 -0.1672
 5999TIP3    H239489   4.490   6.615  16.942 -0.1023 -2.1007  0.4074
 6000TIP3   OH239490   1.424   3.964   4.587  0.3483 -0.1515 -0.3738
 6000TIP3    H139491   1.478   3.961   4.666 -0.7835  0.3630  0.4519
 6000TIP3    H239492   1.487   3.961   4.514  1.4968  0.8513  0.5446
 6001TIP3   OH239493   5.199   1.178  13.711 -0.0213  0.5002  0.0396
 6001TIP3    H139494   5.279   1.202  13.759  0.4299 -0.4330 -0.2306
 6001TIP3    H239495   5.136   1.156  13.780  0.1057  0.7691  0.2450
 6002TIP3   OH239496   6.241   3.784  11.484  0.1266 -0.3059  0.1158
 6002TIP3    H139497   6.179   3.712  11.472  0.4520 -0.1659 -3.4815
 6002TIP3    H239498   6.326   3.741  11.490  0.0109 -0.3497  2.4972
 6003TIP3   OH239499   2.560   2.303  11.584  0.2274 -0.4793 -0.2750
 6003TIP3    H139500   2.505   2.337  11.654  2.4454 -0.6611  1.7119
 6003TIP3    H239501   2.582   2.214  11.612 -1.0909 -1.6439 -2.6718
 6004TIP3   OH239502   3.067   6.830   3.135 -0.0807  0.4853  0.1436
 6004TIP3    H139503   3.032   6.823   3.224  0.9638 -0.4621  0.4948
 6004TIP3    H239504   3.161   6.821   3.146  0.0087 -0.3367 -1.1367
 6005TIP3   OH239505   5.308   3.544   0.955 -0.1700 -0.3833 -0.0008
 6005TIP3    H139506   5.270   3.456   0.955  1.4746 -1.1458  1.3331
 6005TIP3    H239507   5.402   3.530   0.949  0.2394  1.1939  1.6853
 6006TIP3   OH239508   2.176   1.641  12.592  0.0534  0.3801  0.1031
 6006TIP3    H139509   2.220   1.698  12.529 -1.1789 -0.8738 -2.0224
 6006TIP3    H239510   2.083   1.663  12.582 -0.1362  0.6323  2.0543
 6007TIP3   OH239511   3.092   6.738   0.520  0.0557  0.6321 -0.1320
 6007TIP3    H139512   3.162   6.700   0.467  0.8394  1.1735  0.5024
 6007TIP3    H239513   3.012   6.702   0.482  0.5995  0.8454 -1.5647
 6008TIP3   OH239514   4.186   3.969   0.363 -0.5428  0.5004  0.1342
 6008TIP3    H139515   4.222   4.003   0.445  1.3837 -0.8412 -0.0876
 6008TIP3    H239516   4.122   3.903   0.391  1.1475 -1.0166  0.6589
 6009TIP3   OH239517   0.761   6.123  14.154 -0.3993  0.2244  0.3047
 6009TIP3    H139518   0.673   6.142  14.186 -0.9564 -2.4332  0.5776
 6009TIP3    H239519   0.782   6.037  14.190  1.3527 -0.2599 -1.6496
 6010TIP3   OH239520   1.333   2.616  14.318 -0.0138 -0.2118  0.5130
 6010TIP3    H139521   1.320   2.522  14.323 -0.8451 -0.0817  0.8867
 6010TIP3    H239522   1.251   2.650  14.284 -0.1383  0.4875  1.4772
 6011TIP3   OH239523   1.526   4.897  16.329 -0.3025 -0.3458  0.0924
 6011TIP3    H139524   1.594   4.964  16.332 -0.9886  0.3398  1.0165
 6011TIP3    H239525   1.452   4.936  16.375 -0.2830 -2.2288  1.8496
 6012TIP3   OH239526   2.826   0.444  15.234 -0.3728  0.4048 -0.7723
 6012TIP3    H139527   2.768   0.400  15.295 -1.7485 -1.6292 -3.3462
 6012TIP3    H239528   2.903   0.468  15.286 -0.8405 -2.4177  1.4296
 6013TIP3   OH239529   5.497   4.251  15.964  0.6443 -0.7146  0.2519
 6013TIP3    H139530   5.433   4.311  16.002 -1.3385 -2.3401 -0.3388
 6013TIP3    H239531   5.581   4.278  16.001 -0.2751  1.8357  0.6466
 6014TIP3   OH239532   5.856   1.838   3.953  0.1839  0.5673 -0.2989
 6014TIP3    H139533   5.798   1.845   4.029  0.5256 -0.2448  0.0481
 6014TIP3    H239534   5.829   1.909   3.896 -1.1160  0.2469 -0.1145
 6015TIP3   OH239535   0.868   2.273   1.869  0.5851  0.2894 -0.2618
 6015TIP3    H139536   0.812   2.213   1.821  0.6472  0.3563 -0.4170
 6015TIP3    H239537   0.812   2.348   1.888 -0.1024 -0.6352  1.6639
 6016TIP3   OH239538   4.733   4.995  11.274 -0.1841  0.1272  0.0649
 6016TIP3    H139539   4.774   5.081  11.277  0.2463 -0.1058  1.2514
 6016TIP3    H239540   4.719   4.971  11.365 -0.7567 -0.8494 -0.2589
 6017TIP3   OH239541   0.615   2.562  17.205 -0.3514  0.0520 -0.2444
 6017TIP3    H139542   0.674   2.541  17.132  1.6612 -0.3996  1.4141
 6017TIP3    H239543   0.669   2.552  17.283 -1.9452  2.2056  1.2524
 6018TIP3   OH239544   0.099   3.510  10.892 -0.5191  0.8206  0.3407
 6018TIP3    H139545   0.136   3.464  10.816 -1.0513 -0.0368  0.5914
 6018TIP3    H239546   0.095   3.601  10.864 -1.7092  0.3813 -1.0838
 6019TIP3   OH239547   6.706   4.196  10.791 -0.7293  0.2755  0.2609
 6019TIP3    H139548   6.733   4.105  10.779  0.9765  0.7531  0.2047
 6019TIP3    H239549   6.627   4.205  10.738 -0.2903 -0.8858 -0.6352
 6020TIP3   OH239550   1.888   4.867  11.244 -0.1879  0.0608 -0.1872
 6020TIP3    H139551   1.941   4.913  11.180 -0.9238  0.2727 -0.6555
 6020TIP3    H239552   1.838   4.803  11.193 -1.2687  0.6735  0.0662
 6021TIP3   OH239553   2.839   1.251  13.336  0.0682 -0.8192 -0.0309
 6021TIP3    H139554   2.769   1.299  13.380  1.0918 -0.6871  1.5354
 6021TIP3    H239555   2.918   1.304  13.350  0.7003 -1.5312 -0.7547
 6022TIP3   OH239556   1.107   3.925   1.044  0.1669 -0.3836  0.3944
 6022TIP3    H139557   1.052   3.999   1.020  0.4822 -0.9438 -2.4628
 6022TIP3    H239558   1.052   3.848   1.030  0.5678 -0.8048  1.0498
 6023TIP3   OH239559   3.153   4.536  12.818 -0.3039 -0.1778  0.7952
 6023TIP3    H139560   3.215   4.476  12.859  0.7475 -0.4965 -1.1716
 6023TIP3    H239561   3.159   4.616  12.871  0.8045 -0.6518  1.4204
 6024TIP3   OH239562   4.241   5.173  14.160 -0.1795 -0.3364 -0.6400
 6024TIP3    H139563   4.305   5.173  14.231  0.0989  0.5595 -0.8710
 6024TIP3    H239564   4.159   5.145  14.202 -0.1325  0.6408  0.1505
 6025TIP3   OH239565   1.327   2.987   4.585 -0.3895 -0.0055  0.1387
 6025TIP3    H139566   1.319   2.894   4.568  1.5031 -1.0612  3.8325
 6025TIP3    H239567   1.236   3.019   4.588 -1.0743 -1.7257 -1.0861
 6026TIP3   OH239568   1.692   0.362  11.920 -0.0558 -0.0426 -0.4466
 6026TIP3    H139569   1.781   0.325  11.915 -0.1292 -0.3484  0.3478
 6026TIP3    H239570   1.681   0.409  11.838  0.5302 -0.7154 -0.9224
 6027TIP3   OH239571   3.661   3.718   2.812 -0.4320  0.0734  0.1504
 6027TIP3    H139572   3.601   3.783   2.849  0.3092  0.8811 -0.0291
 6027TIP3    H239573   3.618   3.634   2.828 -1.2442  0.5766  0.7082
 6028TIP3   OH239574   1.205   2.358   3.183  0.7185 -0.0887  0.2625
 6028TIP3    H139575   1.164   2.355   3.097 -0.9131  2.8111  0.7765
 6028TIP3    H239576   1.296   2.332   3.168  0.3968 -0.0079 -2.2566
 6029TIP3   OH239577   0.253   3.695  11.049 -0.2798  0.3743  0.5257
 6029TIP3    H139578   0.233   3.605  11.025  1.3285  0.2049 -0.2757
 6029TIP3    H239579   0.194   3.747  10.994 -1.6146 -0.1545  1.3936
 6030TIP3   OH239580   1.588   0.912   3.456  0.1465 -0.1083  0.1628
 6030TIP3    H139581   1.632   0.944   3.535 -1.0968 -0.9499  1.2470
 6030TIP3    H239582   1.550   0.990   3.416 -0.1820  0.1830  1.0336
 6031TIP3   OH239583   4.913   2.438   3.240 -0.8634 -0.1688  0.1275
 6031TIP3    H139584   5.001   2.476   3.240 -1.1492  0.5054 -0.0263
 6031TIP3    H239585   4.872   2.472   3.319 -1.4350  0.6102 -0.4816
 6032TIP3   OH239586   2.527   1.699   2.993  0.1436  0.1745  0.2070
 6032TIP3    H139587   2.492   1.728   3.078  0.0966  1.5745 -0.2655
 6032TIP3    H239588   2.507   1.771   2.933 -0.5723 -1.1391 -1.2030
 6033TIP3   OH239589   6.316   1.443  15.566  0.4332 -0.5465 -0.4571
 6033TIP3    H139590   6.401   1.488  15.563 -0.0402  0.4398  0.2360
 6033TIP3    H239591   6.251   1.513  15.555 -0.3519 -0.9029  1.4190
 6034TIP3   OH239592   0.678   4.282   4.155  0.0444 -0.3635  0.3400
 6034TIP3    H139593   0.622   4.238   4.219  0.0067  0.8774  1.1826
 6034TIP3    H239594   0.746   4.324   4.207 -0.2615  1.0747 -0.3604
 6035TIP3   OH239595   2.181   0.190   0.872 -0.0643 -0.7078  0.6130
 6035TIP3    H139596   2.256   0.136   0.898  1.1780  0.9798  0.6899
 6035TIP3    H239597   2.113   0.171   0.937  0.3751 -2.0401  0.7173
 6036TIP3   OH239598   2.751   0.819  13.837  0.2892 -0.7935  0.9561
 6036TIP3    H139599   2.778   0.903  13.875 -0.5585 -0.5363  0.9982
 6036TIP3    H239600   2.749   0.758  13.912  1.6009 -1.0429  0.8127
 6037TIP3   OH239601   4.495   0.508  16.613  0.3266  0.1660 -0.7108
 6037TIP3    H139602   4.414   0.513  16.562  0.2896  0.2033 -0.6485
 6037TIP3    H239603   4.480   0.565  16.688  0.7100  0.8035 -1.1075
 6038TIP3   OH239604   4.492   6.026   2.667  0.6698 -0.7838  0.9833
 6038TIP3    H139605   4.566   5.995   2.719  1.6787  1.8884  1.3242
 6038TIP3    H239606   4.471   6.112   2.704 -1.4446 -0.6733 -0.2841
 6039TIP3   OH239607   0.533   2.652   5.080  0.4516  0.1691  0.5885
 6039TIP3    H139608   0.442   2.627   5.098  0.4699  2.4280  5.0663
 6039TIP3    H239609   0.585   2.576   5.110  0.2048 -1.0411 -1.7916
 6040TIP3   OH239610   0.116   4.266   0.345  0.8293 -0.0992  0.3082
 6040TIP3    H139611   0.091   4.306   0.429 -0.0571  0.0701 -0.0240
 6040TIP3    H239612   0.171   4.192   0.370  0.5668 -0.0622  1.0455
 6041TIP3   OH239613   3.256   4.909  15.410  0.8599  0.3580 -0.2343
 6041TIP3    H139614   3.312   4.871  15.342 -0.2033  2.8929 -2.7116
 6041TIP3    H239615   3.287   4.999  15.419 -0.8755  0.9114  0.5942
 6042TIP3   OH239616   5.675   3.313  13.192 -0.6688  0.4232 -0.1922
 6042TIP3    H139617   5.771   3.315  13.187 -0.5987  2.1014  0.8317
 6042TIP3    H239618   5.648   3.264  13.114  1.0473 -1.5187  0.3327
 6043TIP3   OH239619   4.519   5.897  13.021 -0.6486 -0.1385  0.2516
 6043TIP3    H139620   4.601   5.850  13.006 -1.6094 -1.1994 -1.9509
 6043TIP3    H239621   4.473   5.845  13.086  0.0923  0.0975  0.9897
 6044TIP3   OH239622   0.868   4.124   0.907 -0.0619  0.0020  0.6230
 6044TIP3    H139623   0.783   4.097   0.872  0.4614 -0.0740 -0.6352
 6044TIP3    H239624   0.912   4.168   0.834  1.8189 -1.7890  0.5769
 6045TIP3   OH239625   5.595   6.141   6.430 -0.3646 -0.1505  0.2194
 6045TIP3    H139626   5.591   6.092   6.348  1.7028  0.4300 -0.2894
 6045TIP3    H239627   5.586   6.075   6.498 -1.5202 -0.7186 -0.4666
 6046TIP3   OH239628   4.801   1.198   2.472 -0.0884  0.2148  0.5607
 6046TIP3    H139629   4.768   1.117   2.434 -1.0852 -0.4516  2.6833
 6046TIP3    H239630   4.726   1.257   2.474  0.6314  1.2651 -0.9850
 6047TIP3   OH239631   1.571   2.950   2.697 -0.8026 -0.0044  0.7708
 6047TIP3    H139632   1.490   2.945   2.645 -0.3517 -1.2410  0.1504
 6047TIP3    H239633   1.615   2.867   2.680  0.2686  0.3647  1.6665
 6048TIP3   OH239634   5.752   6.256  14.796 -0.1511  0.3762 -0.1001
 6048TIP3    H139635   5.829   6.266  14.852  0.6100  1.2060 -1.2466
 6048TIP3    H239636   5.787   6.233  14.710 -1.2069  0.4039 -0.5577
 6049TIP3   OH239637   3.456   2.457  13.091  0.1452  0.4743 -0.4937
 6049TIP3    H139638   3.478   2.512  13.016 -1.4665 -0.5942 -1.7927
 6049TIP3    H239639   3.364   2.477  13.110  1.0269  2.3192  2.6286
 6050TIP3   OH239640   4.090   3.260   4.800 -0.0281  0.2686 -0.0997
 6050TIP3    H139641   4.077   3.197   4.728  0.9200 -0.1639  0.1036
 6050TIP3    H239642   4.115   3.341   4.756  1.9538 -0.3694 -0.2114
 6051TIP3   OH239643   3.896   4.084  12.344 -0.0896 -0.3339  0.1038
 6051TIP3    H139644   3.949   4.154  12.306  0.3138 -1.3287 -1.2232
 6051TIP3    H239645   3.806   4.118  12.340  0.2368  0.6894  0.8570
 6052TIP3   OH239646   4.966   5.063  15.214  0.3558 -0.1211 -0.1148
 6052TIP3    H139647   4.993   5.090  15.126 -1.6367 -2.4267 -1.5697
 6052TIP3    H239648   4.875   5.093  15.221 -0.0005 -1.2876  0.5207
 6053TIP3   OH239649   5.114   4.399  13.537  0.4864  0.3430  0.1910
 6053TIP3    H139650   5.094   4.368  13.626  0.4410  1.3601  0.5505
 6053TIP3    H239651   5.151   4.486  13.550 -0.4225  0.9085 -0.8401
 6054TIP3   OH239652   4.480   0.819  14.659  0.1707 -0.3014  0.1875
 6054TIP3    H139653   4.500   0.731  14.691 -1.0500 -0.5804  0.1977
 6054TIP3    H239654   4.533   0.827  14.579 -0.0401 -1.2037 -0.0515
 6055TIP3   OH239655   3.193   0.072   0.788  0.6827  0.0229 -0.3016
 6055TIP3    H139656   3.271   0.019   0.806  1.4755  0.8001 -1.3323
 6055TIP3    H239657   3.138   0.016   0.734  2.6015  0.9727 -3.5033
 6056TIP3   OH239658   0.983   1.310   5.109 -0.4458 -0.3329  0.2475
 6056TIP3    H139659   1.003   1.316   5.015 -2.6724 -2.7432 -0.5251
 6056TIP3    H239660   0.933   1.389   5.128  0.3985  0.3997 -0.4484
 6057TIP3   OH239661   5.271   1.141   1.276  0.3776  0.5956 -0.1669
 6057TIP3    H139662   5.186   1.105   1.250  0.5623 -1.9552  2.3138
 6057TIP3    H239663   5.331   1.067   1.269  1.3647  1.0550  2.6253
 6058TIP3   OH239664   6.028   6.616  14.443  0.3836 -0.4337  0.5972
 6058TIP3    H139665   6.066   6.704  14.446  0.2194 -0.3627  0.6330
 6058TIP3    H239666   6.096   6.562  14.402 -0.5465  0.2511 -2.0315
 6059TIP3   OH239667   5.595   0.869  14.400 -0.0077  0.3677  0.0122
 6059TIP3    H139668   5.610   0.956  14.363 -1.4259  1.6127  2.1408
 6059TIP3    H239669   5.672   0.853  14.455 -0.8690  1.4982  1.6427
 6060TIP3   OH239670   2.247   1.706  12.268 -0.1790 -0.0299 -0.5436
 6060TIP3    H139671   2.234   1.613  12.252  0.4686 -0.1934 -0.1524
 6060TIP3    H239672   2.159   1.742  12.274 -0.4639 -0.9099  0.9631
 6061TIP3   OH239673   5.295   4.052  14.156  0.3347 -0.3130  0.1376
 6061TIP3    H139674   5.342   4.113  14.212 -1.2193 -0.1158  1.2901
 6061TIP3    H239675   5.225   4.103  14.118  1.5551 -0.3541 -2.3591
 6062TIP3   OH239676   0.832   2.169  12.296  0.3403 -0.5968 -0.2120
 6062TIP3    H139677   0.907   2.113  12.275  1.7570  1.2907 -0.5239
 6062TIP3    H239678   0.756   2.112  12.286  1.4598 -1.7900 -3.2381
 6063TIP3   OH239679   3.850   0.869  12.860 -0.0787 -0.2627  0.3407
 6063TIP3    H139680   3.941   0.887  12.835  0.2246  0.0478  1.5504
 6063TIP3    H239681   3.816   0.954  12.888 -0.6336 -0.4410  0.2150
 6064TIP3   OH239682   0.380   2.219  17.106  0.0120  0.1511 -0.1370
 6064TIP3    H139683   0.396   2.248  17.016 -0.7852 -0.8958 -0.6314
 6064TIP3    H239684   0.468   2.211  17.145  0.2973  2.9377 -0.0292
 6065TIP3   OH239685   6.557   6.370  11.857  0.3241  0.0932  0.4556
 6065TIP3    H139686   6.515   6.288  11.881  0.9390 -0.4942 -0.4339
 6065TIP3    H239687   6.486   6.434  11.857 -0.1024 -0.3565  1.4730
 6066TIP3   OH239688   5.844   5.584   5.283 -0.1837  0.1693 -0.0513
 6066TIP3    H139689   5.791   5.505   5.292 -0.2360  0.0982 -0.9120
 6066TIP3    H239690   5.848   5.600   5.189  3.8887 -1.5925 -0.4032
 6067TIP3   OH239691   2.485   2.573  13.299  0.2590  0.0484 -0.7681
 6067TIP3    H139692   2.480   2.520  13.219  0.5412 -1.1931  0.0116
 6067TIP3    H239693   2.542   2.523  13.358  1.2992  1.6866 -0.3276
 6068TIP3   OH239694   2.388   2.937   1.817 -0.2247  0.6291 -0.1828
 6068TIP3    H139695   2.435   2.953   1.735 -0.3101 -2.7565 -1.0449
 6068TIP3    H239696   2.296   2.958   1.796 -0.5787 -2.0197 -1.6883
 6069TIP3   OH239697   3.087   4.661  14.931  0.3661 -0.3646 -0.3243
 6069TIP3    H139698   3.169   4.638  14.886  0.8773 -0.7769  0.7798
 6069TIP3    H239699   3.100   4.631  15.021 -0.6804  0.3302  0.0759
 6070TIP3   OH239700   1.328   4.897  14.060  0.4186 -0.0176  0.2301
 6070TIP3    H139701   1.274   4.919  14.136  1.8732  2.0790  0.7610
 6070TIP3    H239702   1.403   4.957  14.066  0.9207 -0.2365 -2.4968
 6071TIP3   OH239703   6.652   4.959   3.977 -0.2262 -0.1413  0.2427
 6071TIP3    H139704   6.598   4.895   3.930  0.2212  0.1745 -0.7235
 6071TIP3    H239705   6.600   5.039   3.977 -0.5004 -0.3081  0.8725
 6072TIP3   OH239706   6.265   1.724   3.148 -0.4608  0.0466  0.1533
 6072TIP3    H139707   6.322   1.801   3.156 -1.0368  0.4309  0.6232
 6072TIP3    H239708   6.182   1.751   3.187 -0.3504 -1.1585  1.3034
 6073TIP3   OH239709   4.627   3.348  12.305  0.0719  0.2135 -0.1973
 6073TIP3    H139710   4.714   3.372  12.338  0.2115  1.7163 -1.5242
 6073TIP3    H239711   4.626   3.253  12.308  1.7486  0.1684 -0.0969
 6074TIP3   OH239712   6.429   4.469  13.563 -0.0105  0.0584 -0.5484
 6074TIP3    H139713   6.335   4.453  13.554 -0.2347  0.6189  0.6114
 6074TIP3    H239714   6.443   4.552  13.517 -0.3841  0.7948  0.6480
 6075TIP3   OH239715   6.337   2.320   0.225 -0.4218  0.6047  0.1128
 6075TIP3    H139716   6.256   2.321   0.173 -0.6969  2.7874  0.4923
 6075TIP3    H239717   6.393   2.386   0.184  0.6382  0.1056  0.7039
 6076TIP3   OH239718   5.959   0.312  12.930  0.0008 -0.6581  0.3180
 6076TIP3    H139719   6.038   0.319  12.985  0.6809  0.5602 -0.7596
 6076TIP3    H239720   5.991   0.278  12.847 -0.6062 -0.1608 -0.1280
 6077TIP3   OH239721   2.634   1.335  14.891 -0.1904  0.7709  0.1452
 6077TIP3    H139722   2.628   1.248  14.852  0.4237  0.6112  0.3883
 6077TIP3    H239723   2.686   1.386  14.829  0.8926  0.4820  0.7850
 6078TIP3   OH239724   5.360   5.686  14.108 -0.3947 -0.2068  0.3665
 6078TIP3    H139725   5.361   5.770  14.153  0.3484  0.2177 -0.4136
 6078TIP3    H239726   5.452   5.658  14.107 -0.1839  0.4152 -1.9804
 6079TIP3   OH239727   3.675   3.558   6.119 -0.0096  0.3264 -0.0991
 6079TIP3    H139728   3.589   3.544   6.079  0.0857 -1.0191  0.1218
 6079TIP3    H239729   3.730   3.487   6.084  1.0970  1.3048 -0.4376
 6080TIP3   OH239730   1.410   4.601   2.877 -0.1862  0.1926 -0.0928
 6080TIP3    H139731   1.418   4.599   2.973 -1.8786  1.5767  0.1337
 6080TIP3    H239732   1.481   4.546   2.846  0.8841  0.3223  1.9413
 6081TIP3   OH239733   2.074   0.001   3.870  0.4493 -0.2790  0.2301
 6081TIP3    H139734   2.012  -0.065   3.840 -1.5406  1.1623  0.9983
 6081TIP3    H239735   2.097   0.050   3.790 -1.7814  1.0621  0.3459
 6082TIP3   OH239736   5.584   2.436   0.429 -0.0155  0.5924  0.3870
 6082TIP3    H139737   5.557   2.425   0.338 -1.0520  2.1122  0.4849
 6082TIP3    H239738   5.668   2.390   0.435 -1.0108 -1.5073 -0.7395
 6083TIP3   OH239739   2.098   0.339   5.670  0.0143 -0.2423  0.2807
 6083TIP3    H139740   2.031   0.364   5.735 -0.3645 -0.5736  0.0217
 6083TIP3    H239741   2.155   0.416   5.664 -0.2484 -0.0166  0.6278
 6084TIP3   OH239742   1.053   4.413   4.042  0.3089  0.4417 -0.0483
 6084TIP3    H139743   1.134   4.460   4.060  1.6005 -1.2491 -1.1159
 6084TIP3    H239744   1.042   4.353   4.115  1.8583 -1.6169 -1.3984
 6085TIP3   OH239745   5.382   3.377  11.651  0.4608 -0.5192 -0.2218
 6085TIP3    H139746   5.448   3.309  11.664  0.5889 -0.4991 -0.7347
 6085TIP3    H239747   5.393   3.404  11.560  0.4518  0.2387 -0.0027
 6086TIP3   OH239748   1.016   3.423  13.360  0.0298  0.7047 -0.2931
 6086TIP3    H139749   0.940   3.463  13.318  0.0336  0.4204 -0.5734
 6086TIP3    H239750   1.088   3.438  13.298 -0.2879 -1.1252 -1.1781
 6087TIP3   OH239751   1.654   4.534   3.866 -0.2258  0.3114  0.2133
 6087TIP3    H139752   1.659   4.575   3.780  0.5995  0.9354  0.5366
 6087TIP3    H239753   1.653   4.440   3.848 -0.9916  0.4484 -0.5019
 6088TIP3   OH239754   3.775   5.153  15.940 -0.2944  0.1537  0.1909
 6088TIP3    H139755   3.844   5.185  15.999  1.0861  1.2296 -1.8927
 6088TIP3    H239756   3.822   5.100  15.875 -1.2643  1.5495 -1.7442
 6089TIP3   OH239757   6.771   2.432   0.138  0.7558 -0.9056  0.0372
 6089TIP3    H139758   6.754   2.422   0.045  0.4959  0.0368 -0.0329
 6089TIP3    H239759   6.686   2.454   0.176  0.8361 -1.3969  0.5163
 6090TIP3   OH239760   3.670   6.047   3.429  0.2992  0.2891 -0.3441
 6090TIP3    H139761   3.755   6.032   3.470  1.7048  0.2769 -3.0448
 6090TIP3    H239762   3.651   5.965   3.384 -1.5511  0.0474  0.7523
 6091TIP3   OH239763   5.391   1.066  16.849 -0.6273  0.2794 -0.2663
 6091TIP3    H139764   5.321   1.039  16.909 -0.0658  0.0298  0.2825
 6091TIP3    H239765   5.401   0.992  16.790 -0.8070  0.3047 -0.3308
 6092TIP3   OH239766   0.163   5.371   5.102 -0.4534 -0.2223  0.1267
 6092TIP3    H139767   0.258   5.382   5.107 -0.3274 -1.3849  0.6373
 6092TIP3    H239768   0.134   5.373   5.193 -1.2942  2.7074 -0.0875
 6093TIP3   OH239769   2.953   4.939  16.542 -0.4537  0.4403  0.3572
 6093TIP3    H139770   2.986   4.861  16.587 -0.0380  0.9298  0.9204
 6093TIP3    H239771   3.013   5.009  16.569 -0.5754  0.8746 -0.4715
 6094TIP3   OH239772   6.804   5.374  12.307  0.5672  0.6183 -0.5563
 6094TIP3    H139773   6.867   5.421  12.361  1.1264  1.2353 -1.7170
 6094TIP3    H239774   6.784   5.434  12.234  0.5670 -0.5496 -1.5570
 6095TIP3   OH239775   3.305   1.510  16.783 -0.0480  0.2619 -0.2065
 6095TIP3    H139776   3.344   1.579  16.729 -1.7160  0.8342 -0.7529
 6095TIP3    H239777   3.215   1.503  16.751 -1.0203  0.3740  2.2397
 6096TIP3   OH239778   3.477   5.769  14.933 -0.1920  0.5109  0.1044
 6096TIP3    H139779   3.491   5.750  14.841  1.1065 -2.0096  0.7372
 6096TIP3    H239780   3.391   5.812  14.936 -1.2377 -1.2590 -2.0822
 6097TIP3   OH239781   1.502   0.331  11.695 -0.0257 -0.1837  0.4789
 6097TIP3    H139782   1.489   0.425  11.706  1.4893 -0.1143  2.2724
 6097TIP3    H239783   1.483   0.314  11.603 -0.5874  1.8203  0.1801
 6098TIP3   OH239784   1.367   4.255   6.104 -0.0865 -0.0322  0.3093
 6098TIP3    H139785   1.439   4.314   6.125 -1.5464  1.2599  2.1476
 6098TIP3    H239786   1.289   4.300   6.138 -1.7906 -1.2775 -1.6988
 6099TIP3   OH239787   3.721   0.791  14.519 -0.0419 -0.1128 -0.2824
 6099TIP3    H139788   3.684   0.718  14.567  0.1978 -0.4531 -0.6057
 6099TIP3    H239789   3.761   0.847  14.586  1.2267 -1.1187 -0.1540
 6100TIP3   OH239790   0.595   3.763   3.732  0.2714 -0.8883  0.1223
 6100TIP3    H139791   0.639   3.696   3.678 -1.4694 -1.5471 -0.5562
 6100TIP3    H239792   0.593   3.725   3.820  1.2789 -0.7278  0.2252
 6101TIP3   OH239793   5.570   4.461  16.234 -0.5440  0.7271  0.5464
 6101TIP3    H139794   5.641   4.503  16.187 -1.6939  0.9907 -1.0239
 6101TIP3    H239795   5.528   4.532  16.283 -0.3165  0.7453  0.7156
 6102TIP3   OH239796   1.960   2.421  10.722 -0.0088 -0.3594 -0.1959
 6102TIP3    H139797   1.927   2.473  10.649 -0.5027  1.4387  1.2259
 6102TIP3    H239798   2.034   2.373  10.685  0.1680  0.9958 -1.7359
 6103TIP3   OH239799   4.172   2.802  16.049 -0.6572 -0.2417  0.4138
 6103TIP3    H139800   4.186   2.846  15.966 -2.6194 -2.0771 -0.9871
 6103TIP3    H239801   4.078   2.786  16.053 -0.2936 -2.5837  1.7093
 6104TIP3   OH239802   0.953   5.745  13.425 -0.2584  0.8976  0.6718
 6104TIP3    H139803   0.881   5.730  13.363 -0.2293  1.5392  0.4758
 6104TIP3    H239804   0.909   5.769  13.507 -0.3467 -1.1251  1.2811
 6105TIP3   OH239805   1.602   6.323  13.961 -0.2997  0.4328 -0.2183
 6105TIP3    H139806   1.657   6.260  13.914  0.4824  0.3609  0.7619
 6105TIP3    H239807   1.532   6.344  13.900 -0.3196 -1.0410 -0.7343
 6106TIP3   OH239808   1.931   6.545   4.587  0.0540 -0.2411 -0.0866
 6106TIP3    H139809   1.958   6.458   4.617 -0.1903 -0.3988 -0.3284
 6106TIP3    H239810   2.013   6.595   4.583  0.1833 -0.4345  0.1313
 6107TIP3   OH239811   3.095   4.283   5.125 -0.2627  0.1536 -0.3980
 6107TIP3    H139812   3.139   4.325   5.199  0.4703  0.8080 -1.1877
 6107TIP3    H239813   3.026   4.344   5.100  0.5393  0.7159 -1.2847
 6108TIP3   OH239814   3.970   0.877   2.312 -0.1926 -0.4630  0.2955
 6108TIP3    H139815   3.970   0.843   2.223  0.4329  2.2403 -0.8421
 6108TIP3    H239816   3.901   0.828   2.356  0.4273 -2.8639 -1.2261
 6109TIP3   OH239817   1.084   4.298  12.415 -0.6856  0.1162 -0.0201
 6109TIP3    H139818   1.124   4.212  12.401 -2.4140 -0.9941  1.3808
 6109TIP3    H239819   1.157   4.359  12.413  0.8176 -1.5652  0.5210
 6110TIP3   OH239820   6.508   2.899   5.315 -0.3343 -0.2871  0.0819
 6110TIP3    H139821   6.434   2.865   5.367  0.7347 -1.3172  0.9833
 6110TIP3    H239822   6.545   2.968   5.370  0.4247 -0.9615  0.4312
 6111TIP3   OH239823   6.476   5.027  15.526 -0.2417 -0.2131  0.8495
 6111TIP3    H139824   6.381   5.043  15.525 -0.0033  1.5092 -0.9223
 6111TIP3    H239825   6.488   4.947  15.475 -0.6896  0.1760  0.1151
 6112TIP3   OH239826   0.354   3.173   2.801 -0.0678  0.8949 -0.3574
 6112TIP3    H139827   0.390   3.139   2.883 -0.4843  0.9788 -0.1359
 6112TIP3    H239828   0.323   3.261   2.824  0.0689  1.0255 -0.6747
 6113TIP3   OH239829   1.043   3.862   2.006 -0.0854  0.3857 -0.3030
 6113TIP3    H139830   1.114   3.819   1.959 -1.0518 -1.2662 -0.3275
 6113TIP3    H239831   1.066   3.955   2.005  0.8028  0.2100 -2.5187
 6114TIP3   OH239832   5.999   2.582   5.152  0.2439 -0.3257  0.1583
 6114TIP3    H139833   5.980   2.574   5.245 -0.0995 -0.8294  0.0497
 6114TIP3    H239834   5.913   2.590   5.110  0.3771 -0.4453 -0.1432
 6115TIP3   OH239835   1.389   5.286  13.061 -0.0036 -0.0456  0.2555
 6115TIP3    H139836   1.302   5.265  13.028  0.0699  0.1038 -0.0428
 6115TIP3    H239837   1.412   5.214  13.120 -0.4911  0.1140  0.6420
 6116TIP3   OH239838   3.220   0.775   1.331  0.4667 -0.5104  0.4168
 6116TIP3    H139839   3.246   0.861   1.363  0.5326 -0.0938 -0.7266
 6116TIP3    H239840   3.275   0.760   1.255 -1.4203 -0.3451 -1.0353
 6117TIP3   OH239841   2.953   3.520  10.816 -0.7210 -0.0206  0.2058
 6117TIP3    H139842   3.000   3.457  10.760  1.5992  0.1997  1.7473
 6117TIP3    H239843   2.975   3.605  10.778 -1.8359 -0.0070 -0.4325
 6118TIP3   OH239844   2.584   3.004  16.889 -0.5368 -0.2376 -0.1532
 6118TIP3    H139845   2.569   3.012  16.984 -1.4120 -2.5382 -0.0329
 6118TIP3    H239846   2.534   3.076  16.851 -1.9473 -0.5264  1.0333
 6119TIP3   OH239847   5.714   6.102   1.760 -0.0560  0.2355  0.2976
 6119TIP3    H139848   5.706   6.108   1.664 -1.6169 -1.7354  0.2326
 6119TIP3    H239849   5.776   6.171   1.783  0.0607  1.0362 -2.0883
 6120TIP3   OH239850   2.581   2.402  13.531 -0.5320  0.2984  0.3950
 6120TIP3    H139851   2.496   2.368  13.503 -1.1894  0.8212  1.6375
 6120TIP3    H239852   2.564   2.436  13.619  1.6741 -2.4401  2.0193
 6121TIP3   OH239853   3.820   6.065   4.905 -0.6156  0.4259  0.6325
 6121TIP3    H139854   3.788   6.023   4.985 -0.5906  1.8731  1.4312
 6121TIP3    H239855   3.743   6.108   4.868 -0.7586 -0.7059 -0.4725
 6122TIP3   OH239856   2.148   1.210  15.896 -0.3587 -0.3344 -0.4751
 6122TIP3    H139857   2.139   1.115  15.889 -0.9990 -0.1936 -2.2053
 6122TIP3    H239858   2.216   1.223  15.962 -0.6991 -1.9721  0.2485
 6123TIP3   OH239859   1.831   6.669  11.707 -0.1890 -0.2989  0.1153
 6123TIP3    H139860   1.844   6.576  11.687  0.3077 -0.2167  0.0614
 6123TIP3    H239861   1.774   6.701  11.637 -0.2570 -0.5301  0.0633
 6124TIP3   OH239862   0.091   0.954   1.018 -0.4180  0.1640 -0.4002
 6124TIP3    H139863   0.083   0.918   1.106  1.5519 -0.4720 -0.4255
 6124TIP3    H239864   0.001   0.974   0.991 -1.0690  0.1063  1.6225
 6125TIP3   OH239865   4.771   6.146  14.433  0.2507 -0.1500  0.6306
 6125TIP3    H139866   4.759   6.058  14.469 -1.3865 -0.7835 -1.2349
 6125TIP3    H239867   4.839   6.135  14.367  0.2294  0.0437  0.5788
 6126TIP3   OH239868   6.619   1.098  11.856  0.1145 -0.4889  0.0845
 6126TIP3    H139869   6.631   1.076  11.764 -1.1503  0.6953 -0.3929
 6126TIP3    H239870   6.541   1.153  11.858  1.2130  1.1246  1.6237
 6127TIP3   OH239871   3.534   3.339   5.588 -0.2339  0.1177  0.8235
 6127TIP3    H139872   3.579   3.256   5.569 -0.5831  0.1736 -0.2826
 6127TIP3    H239873   3.454   3.336   5.536  0.3310  1.6754 -0.1940
 6128TIP3   OH239874   2.473   4.214  15.511  0.2455 -0.5902 -0.0550
 6128TIP3    H139875   2.398   4.188  15.565  0.5248  0.7929  1.0372
 6128TIP3    H239876   2.548   4.201  15.568  0.5493  0.9178 -0.0972
 6129TIP3   OH239877   2.572   3.598   0.181  0.2394  0.8806 -0.4402
 6129TIP3    H139878   2.637   3.659   0.216 -0.9101  1.8203  0.1318
 6129TIP3    H239879   2.493   3.615   0.232 -0.3110 -0.6440 -0.7226
 6130TIP3   OH239880   5.005   6.007  15.251 -0.3409  0.1235  0.3404
 6130TIP3    H139881   5.005   5.924  15.204 -1.8143  0.5031 -0.3724
 6130TIP3    H239882   5.098   6.029  15.260  0.0432 -1.2335 -0.0963
 6131TIP3   OH239883   5.093   1.009  14.443  0.4215 -0.0457 -0.2134
 6131TIP3    H139884   5.012   1.033  14.488  1.1939 -0.7614  1.6319
 6131TIP3    H239885   5.072   0.927  14.398 -0.1775  0.3490 -0.6764
 6132TIP3   OH239886   2.727   4.058  11.673 -0.6656 -0.1297 -0.1810
 6132TIP3    H139887   2.657   4.046  11.738  0.3563  0.2779  1.0252
 6132TIP3    H239888   2.800   4.094  11.723  0.2601 -0.1070 -1.5141
 6133TIP3   OH239889   6.610   3.208   4.854  0.4918  0.4149 -0.2239
 6133TIP3    H139890   6.586   3.118   4.874 -1.0567  1.4058  3.0314
 6133TIP3    H239891   6.697   3.219   4.892 -0.7866  1.1487  2.8085
 6134TIP3   OH239892   4.330   4.409   6.065 -0.3292  0.1376  0.5138
 6134TIP3    H139893   4.304   4.337   6.122  2.8135 -2.0117 -0.5227
 6134TIP3    H239894   4.363   4.476   6.125  0.0192 -0.7769  1.3600
 6135TIP3   OH239895   5.040   0.745  15.522 -0.1209  0.1483 -0.1821
 6135TIP3    H139896   5.102   0.775  15.589 -2.0957 -0.6425  2.1759
 6135TIP3    H239897   5.049   0.649  15.523  1.1806  0.1874 -2.5469
 6136TIP3   OH239898   0.617   0.926   0.523 -0.0064 -0.0715 -0.0080
 6136TIP3    H139899   0.709   0.934   0.498 -0.2237  0.7861 -0.5909
 6136TIP3    H239900   0.580   0.866   0.458  0.2565 -0.8613  0.5634
 6137TIP3   OH239901   3.400   5.854   1.013  0.3512  0.2449 -0.2422
 6137TIP3    H139902   3.313   5.892   1.000  0.2375 -0.4903 -1.8515
 6137TIP3    H239903   3.460   5.916   0.973  0.5839  0.6752  0.7330
 6138TIP3   OH239904   0.010   1.215   2.103 -0.1786  0.5125 -0.2946
 6138TIP3    H139905   0.095   1.218   2.148 -0.1218  0.3953 -0.3927
 6138TIP3    H239906   0.028   1.168   2.021 -0.2856  0.7026 -0.4282
 6139TIP3   OH239907   3.383   0.440   0.712  0.1163 -0.6455 -0.5900
 6139TIP3    H139908   3.386   0.428   0.807  0.7000  1.7564 -0.2269
 6139TIP3    H239909   3.293   0.420   0.688 -1.1655  2.3673  1.1581
 6140TIP3   OH239910   4.362   5.405  16.738 -0.3463  0.5283 -0.4775
 6140TIP3    H139911   4.394   5.435  16.823  0.8525  0.8473 -1.0320
 6140TIP3    H239912   4.437   5.413  16.679 -0.9314 -0.4394 -1.3923
 6141TIP3   OH239913   4.609   2.147   2.185  0.1967 -0.5791 -0.1333
 6141TIP3    H139914   4.559   2.187   2.113  1.2985  0.0301 -0.5805
 6141TIP3    H239915   4.601   2.053   2.170  1.7117 -0.4663 -2.0193
 6142TIP3   OH239916   3.561   1.861   1.428 -0.1355 -0.7988  0.1459
 6142TIP3    H139917   3.477   1.898   1.455  0.3919 -0.1536  0.9704
 6142TIP3    H239918   3.620   1.936   1.423 -0.5355 -0.5249 -4.6124
 6143TIP3   OH239919   1.808   5.617   3.653 -0.7532 -0.1854  0.1221
 6143TIP3    H139920   1.739   5.586   3.594  1.0725 -0.8959 -1.7572
 6143TIP3    H239921   1.804   5.558   3.727 -1.2973 -1.0699 -0.5848
 6144TIP3   OH239922   2.908   6.226  14.483 -0.2412 -0.0300 -0.3237
 6144TIP3    H139923   2.879   6.311  14.519  0.1316 -0.3210  0.7039
 6144TIP3    H239924   2.856   6.215  14.404  0.8692  1.9380 -1.3946
 6145TIP3   OH239925   2.848   0.274  12.928 -0.3210 -0.3420 -0.7075
 6145TIP3    H139926   2.830   0.319  12.846 -0.5523 -0.7116 -0.8612
 6145TIP3    H239927   2.876   0.187  12.902  1.9299  0.2602 -0.4937
 6146TIP3   OH239928   0.927   3.006  16.469  0.1860 -0.1338 -0.5610
 6146TIP3    H139929   0.966   2.921  16.448  0.6388 -0.2582  0.7160
 6146TIP3    H239930   0.989   3.047  16.529 -0.4095  0.7804 -0.5462
 6147TIP3   OH239931   4.058   4.728   1.743 -0.5836  0.0686  0.0938
 6147TIP3    H139932   4.108   4.786   1.800  0.0328 -0.0102 -0.3611
 6147TIP3    H239933   4.092   4.640   1.762  0.0790  0.1099 -0.8429
 6148TIP3   OH239934   0.666   1.860  14.881  0.2476  0.1715  0.0327
 6148TIP3    H139935   0.741   1.916  14.863  0.2648  0.1510  0.0419
 6148TIP3    H239936   0.659   1.859  14.976 -0.0237  0.5230  0.0232
 6149TIP3   OH239937   0.833   2.604  16.432  0.1482  0.1592  0.2348
 6149TIP3    H139938   0.825   2.661  16.355  0.6057 -0.1401 -0.0383
 6149TIP3    H239939   0.912   2.552  16.416  0.5876  0.5137  1.1832
 6150TIP3   OH239940   1.885   5.149  13.318 -0.2832  0.5816  0.8086
 6150TIP3    H139941   1.928   5.172  13.235  2.2409  2.3085  2.4360
 6150TIP3    H239942   1.821   5.083  13.294  1.4967 -0.2369 -2.2789
 6151TIP3   OH239943   2.400   1.177  14.001 -0.1009 -0.1916  0.9489
 6151TIP3    H139944   2.485   1.164  14.044  0.4429 -0.9988 -0.3248
 6151TIP3    H239945   2.388   1.272  13.999  1.8309  0.0812 -0.8118
 6152TIP3   OH239946   6.346   2.658  13.173 -0.5929 -1.2961 -0.1886
 6152TIP3    H139947   6.420   2.635  13.230 -0.7356 -0.8761  0.1694
 6152TIP3    H239948   6.286   2.583  13.181 -0.1983 -1.6513 -0.5029
 6153TIP3   OH239949   5.447   0.297  16.528 -0.2056 -0.1542 -0.0044
 6153TIP3    H139950   5.505   0.222  16.517 -1.2839 -0.7255 -2.7860
 6153TIP3    H239951   5.503   0.367  16.562  0.9967 -1.9547  1.8990
 6154TIP3   OH239952   3.167   1.226   5.054 -0.0548  0.2255  0.0185
 6154TIP3    H139953   3.232   1.222   5.124 -0.7030  0.6052  0.6483
 6154TIP3    H239954   3.178   1.143   5.007  1.0318  0.3742 -0.0247
 6155TIP3   OH239955   5.202   0.571  10.410  0.1092  0.6048 -0.5119
 6155TIP3    H139956   5.197   0.494  10.467  2.3713  0.9549  0.2719
 6155TIP3    H239957   5.136   0.631  10.445  3.0781  1.9289  3.7450
 6156TIP3   OH239958   2.045   0.207  16.398  0.3098  0.0713 -0.1236
 6156TIP3    H139959   2.074   0.121  16.430 -0.0763  0.5074  1.4694
 6156TIP3    H239960   1.986   0.186  16.326  1.4189 -0.9409 -0.7898
 6157TIP3   OH239961   2.670   4.356  11.304 -0.1382 -0.3096  0.5741
 6157TIP3    H139962   2.733   4.371  11.234 -0.7102 -0.1315  0.0893
 6157TIP3    H239963   2.656   4.442  11.343  0.5824 -0.4927  1.2732
 6158TIP3   OH239964   1.317   3.228  14.897  0.0772 -0.0975  0.0989
 6158TIP3    H139965   1.295   3.205  14.988  0.8763  0.5826  0.4797
 6158TIP3    H239966   1.407   3.260  14.902 -0.2549  1.0200 -0.7556
 6159TIP3   OH239967   0.623   4.245  13.738 -0.7562  0.5950  0.5333
 6159TIP3    H139968   0.573   4.174  13.779 -0.5515  0.1077 -0.0475
 6159TIP3    H239969   0.556   4.299  13.695 -0.8146  0.0723 -0.0485
 6160TIP3   OH239970   1.290   6.396   1.347 -0.4262  0.0151 -0.3871
 6160TIP3    H139971   1.300   6.490   1.329 -0.6119  0.0209 -0.4660
 6160TIP3    H239972   1.379   6.365   1.366 -0.5802  0.5477  1.3241
 6161TIP3   OH239973   6.416   5.854  11.550 -0.6000  0.3067 -0.1912
 6161TIP3    H139974   6.416   5.799  11.628  0.3905 -0.0540 -0.4275
 6161TIP3    H239975   6.373   5.800  11.483 -1.6377  0.6945  0.1355
 6162TIP3   OH239976   2.373   5.333   5.711 -0.3972 -0.1418  0.1693
 6162TIP3    H139977   2.412   5.367   5.792 -0.5216  0.6008 -0.0682
 6162TIP3    H239978   2.283   5.311   5.735 -0.5319  0.3815  0.1670
 6163TIP3   OH239979   3.500   0.375  14.384 -0.0138 -0.8599 -0.3933
 6163TIP3    H139980   3.497   0.395  14.477  1.2409  0.9848 -0.7064
 6163TIP3    H239981   3.412   0.343  14.364 -0.1796 -1.6764  1.4778
 6164TIP3   OH239982   2.693   0.663  11.554 -0.3444 -0.2786  0.5164
 6164TIP3    H139983   2.655   0.751  11.558 -1.4263 -0.6394 -0.9027
 6164TIP3    H239984   2.781   0.673  11.591 -0.3742  1.4471  0.2107
 6165TIP3   OH239985   1.193   4.587   5.713  0.3589  0.6762 -0.3653
 6165TIP3    H139986   1.161   4.608   5.801 -2.1326  0.6729 -1.1722
 6165TIP3    H239987   1.246   4.509   5.725  0.0639  0.6661  1.1278
 6166TIP3   OH239988   3.131   1.089  15.763 -0.1033 -0.2871  0.1369
 6166TIP3    H139989   3.214   1.044  15.772 -0.0980  0.0187  2.0247
 6166TIP3    H239990   3.068   1.021  15.739  0.6745 -0.5004 -1.3929
 6167TIP3   OH239991   4.255   2.416  11.860 -0.0361  0.2070 -0.7278
 6167TIP3    H139992   4.231   2.326  11.837  1.1171 -0.0414 -1.0053
 6167TIP3    H239993   4.245   2.465  11.779 -0.0182  0.1980 -0.7355
 6168TIP3   OH239994   3.372   6.345   3.728  0.4837  0.5242 -0.2434
 6168TIP3    H139995   3.276   6.344   3.718  0.4184 -0.0239  0.3623
 6168TIP3    H239996   3.394   6.255   3.753  1.4905 -0.2231 -3.3018
 6169TIP3   OH239997   2.954   0.801   0.470  0.6022 -0.3956 -0.2090
 6169TIP3    H139998   2.932   0.709   0.488 -0.5356  0.1119  1.2032
 6169TIP3    H239999   2.873   0.849   0.490  0.9993  0.8614 -1.5069
 6170TIP3   OH240000   0.853   0.120  15.290  0.2095 -0.0143  0.1215
 6170TIP3    H140001   0.889   0.122  15.201 -0.0295 -0.9469 -0.0125
 6170TIP3    H240002   0.928   0.103  15.346  0.5596  1.7733  0.2398
 6171TIP3   OH240003   3.621   1.084   0.540  0.4550  0.3375  0.3286
 6171TIP3    H140004   3.660   1.167   0.567 -0.9901  0.5397  1.9931
 6171TIP3    H240005   3.627   1.028   0.618 -1.6197  0.0560  0.3422
 6172TIP3   OH240006   1.901   1.188  12.329  0.3182  0.5197 -0.4610
 6172TIP3    H140007   1.917   1.281  12.345  0.2475  0.1665  1.9322
 6172TIP3    H240008   1.822   1.187  12.275  0.0210  1.8415 -0.0913
 6173TIP3   OH240009   1.395   5.113   0.834 -0.4074 -0.0497  0.2429
 6173TIP3    H140010   1.491   5.106   0.829 -0.2952  1.3170 -0.1468
 6173TIP3    H240011   1.378   5.145   0.922 -0.2669  2.1444 -0.4535
 6174TIP3   OH240012   0.560   2.994  15.015  0.0157  0.3361  0.0761
 6174TIP3    H140013   0.594   3.001  15.104 -0.1456 -1.5079  0.3120
 6174TIP3    H240014   0.563   3.084  14.982  2.4044  0.6968  1.0511
 6175TIP3   OH240015   5.363   4.051  15.159 -0.5192 -0.0472 -0.1175
 6175TIP3    H140016   5.399   4.059  15.071  1.3040  0.6491  0.6310
 6175TIP3    H240017   5.291   3.988  15.151 -0.7230  0.3975 -2.1703
 6176TIP3   OH240018   1.465   0.359   2.914  0.5884  0.0170 -0.0447
 6176TIP3    H140019   1.486   0.422   2.845  1.0258  0.9998  0.9494
 6176TIP3    H240020   1.402   0.300   2.874  1.3723  0.1112 -1.5106
 6177TIP3   OH240021   6.186   0.871   1.245 -0.2383  0.0678  0.0098
 6177TIP3    H140022   6.152   0.905   1.328  0.1887  0.5572 -0.0087
 6177TIP3    H240023   6.241   0.942   1.211  0.0720 -0.3633 -0.3981
 6178TIP3   OH240024   5.655   1.471   1.807  0.0337 -0.0015  0.1013
 6178TIP3    H140025   5.720   1.481   1.877  0.6602  0.3257 -0.5082
 6178TIP3    H240026   5.588   1.537   1.826  0.3420  0.2736  0.2420
 6179TIP3   OH240027   4.637   1.597  15.531  0.3557 -0.2654 -0.2118
 6179TIP3    H140028   4.669   1.511  15.503 -0.6776 -0.3525 -1.1942
 6179TIP3    H240029   4.542   1.590  15.524  0.1310  0.2483  1.8309
 6180TIP3   OH240030   5.305   6.428   5.694  0.0604  0.3262  0.2824
 6180TIP3    H140031   5.378   6.378   5.730 -1.9622 -1.1423  2.7770
 6180TIP3    H240032   5.297   6.397   5.604  2.1534  0.1501  0.1199
 6181TIP3   OH240033   2.961   5.240   2.001  0.2187 -0.0149 -0.0729
 6181TIP3    H140034   2.966   5.193   1.918 -1.1567  0.1138 -0.2452
 6181TIP3    H240035   3.011   5.186   2.062 -0.3715 -1.1132 -0.5370
 6182TIP3   OH240036   2.627   3.416  11.824  0.3476  0.0388 -0.7598
 6182TIP3    H140037   2.708   3.426  11.774  0.8758  1.0318  0.2666
 6182TIP3    H240038   2.564   3.382  11.760  1.5579 -0.7709 -1.5697
 6183TIP3   OH240039   2.502   5.446   3.112 -0.4943  0.0002 -0.4765
 6183TIP3    H140040   2.415   5.408   3.120 -0.4578 -0.3722 -1.6775
 6183TIP3    H240041   2.547   5.390   3.049  0.5790  0.2576  0.0345
 6184TIP3   OH240042   4.456   0.072   1.535 -0.0996  0.5441  0.2608
 6184TIP3    H140043   4.538   0.095   1.491 -1.1779  0.9796 -1.6355
 6184TIP3    H240044   4.479   0.069   1.628  2.3299 -0.5381 -0.2859
 6185TIP3   OH240045   3.457   3.240   0.768 -0.3483 -0.2410 -0.4768
 6185TIP3    H140046   3.414   3.208   0.847 -0.6858 -3.0601 -1.7076
 6185TIP3    H240047   3.390   3.293   0.724 -0.3843  0.7594  0.7363
 6186TIP3   OH240048   1.761   0.065  15.869 -0.2769  0.3063 -0.0810
 6186TIP3    H140049   1.821   0.081  15.942  0.3171 -0.2946 -0.4162
 6186TIP3    H240050   1.702  -0.003  15.900  0.2889 -0.3081 -0.3093
 6187TIP3   OH240051   2.016   6.422  11.646  0.2235  0.5654  0.5435
 6187TIP3    H140052   2.087   6.473  11.687  1.1519 -0.8767  0.7821
 6187TIP3    H240053   2.036   6.424  11.553  0.1892  0.7390  0.5393
 6188TIP3   OH240054   2.707   0.910  12.021  0.3625  0.2427  0.3051
 6188TIP3    H140055   2.661   0.926  11.938  1.9195  1.1391 -0.4402
 6188TIP3    H240056   2.689   0.988  12.073  0.2464  0.1624  0.3839
 6189TIP3   OH240057   2.512   3.297   3.967  0.1869  0.0877 -0.8084
 6189TIP3    H140058   2.448   3.320   4.035 -0.0727 -1.0852 -0.6490
 6189TIP3    H240059   2.506   3.370   3.905 -0.5874  0.4836 -0.2995
 6190TIP3   OH240060   2.723   2.468   1.543 -0.7923  0.2059 -0.5555
 6190TIP3    H140061   2.818   2.477   1.551 -0.8969  1.2260 -0.3415
 6190TIP3    H240062   2.695   2.433   1.627 -0.7897  1.6213  0.0683
 6191TIP3   OH240063   2.747   5.450   5.656 -0.0066 -0.3625  0.1809
 6191TIP3    H140064   2.836   5.425   5.633  0.4085  1.8578 -0.8889
 6191TIP3    H240065   2.737   5.425   5.747  2.1373  0.4233  0.6817
 6192TIP3   OH240066   3.544   0.804  14.895  0.0320 -0.3471  0.0279
 6192TIP3    H140067   3.467   0.824  14.842 -0.4772 -0.6098  0.6417
 6192TIP3    H240068   3.543   0.870  14.965  1.0782  0.4143 -0.6562
 6193TIP3   OH240069   1.871   3.249  15.273 -0.0793  0.3299 -0.1851
 6193TIP3    H140070   1.894   3.303  15.348  1.2609  0.7720 -0.8732
 6193TIP3    H240071   1.791   3.204  15.299  0.9827 -0.4542  1.9582
 6194TIP3   OH240072   5.442   0.554  13.410  0.1526  0.0924  0.2425
 6194TIP3    H140073   5.438   0.621  13.342  0.9932  1.8067  1.7814
 6194TIP3    H240074   5.352   0.546  13.442 -0.6632 -2.1387 -2.2334
 6195TIP3   OH240075   1.595   2.029   3.077  0.2631 -0.3106  0.2232
 6195TIP3    H140076   1.629   2.064   3.160  0.6584  1.3951 -0.6061
 6195TIP3    H240077   1.531   2.094   3.048 -0.0417 -0.9989 -0.7035
 6196TIP3   OH240078   3.759   6.058  14.420  0.8512 -0.1668 -0.2903
 6196TIP3    H140079   3.711   6.117  14.362  0.2881 -0.8543 -0.5331
 6196TIP3    H240080   3.708   5.977  14.421  2.9258 -1.6350 -2.0357
 6197TIP3   OH240081   5.298   3.943   1.826 -0.0074 -0.1320 -0.5438
 6197TIP3    H140082   5.205   3.949   1.845 -0.3790 -1.9568 -1.5477
 6197TIP3    H240083   5.330   3.876   1.887  0.7568  0.7664  0.0762
 6198TIP3   OH240084   1.539   2.208  17.002 -0.3343  0.5438 -0.5347
 6198TIP3    H140085   1.515   2.289  17.047  1.4321  0.3257  0.9081
 6198TIP3    H240086   1.514   2.223  16.911 -2.0938  1.8205  0.1016
 6199TIP3   OH240087   5.754   5.868  13.689  0.0675  0.2277 -0.0123
 6199TIP3    H140088   5.743   5.794  13.629  0.4513  1.3027 -1.4665
 6199TIP3    H240089   5.699   5.846  13.764 -1.5510 -0.5377 -1.3429
 6200TIP3   OH240090   0.131   1.627   3.953  0.1054 -0.4194  1.1935
 6200TIP3    H140091   0.212   1.626   4.004  0.6968  1.4865  0.4080
 6200TIP3    H240092   0.156   1.588   3.869  0.5495  1.0466  0.5925
 6201TIP3   OH240093   0.735   3.090  17.183 -0.2411  0.2613 -0.1858
 6201TIP3    H140094   0.744   3.116  17.091 -2.8531  0.4006 -0.4602
 6201TIP3    H240095   0.642   3.068  17.193  0.0489 -0.0599  2.3571
 6202TIP3   OH240096   2.595   4.831  11.159  0.0176  0.4708  0.0315
 6202TIP3    H140097   2.610   4.917  11.197 -2.1049  1.4286 -1.1125
 6202TIP3    H240098   2.500   4.825  11.151 -0.0292 -2.6513  1.5108
 6203TIP3   OH240099   5.811   6.044  12.080 -0.2352  0.1420  0.2643
 6203TIP3    H140100   5.867   5.990  12.136 -0.7683  0.3193  0.9948
 6203TIP3    H240101   5.770   5.981  12.021 -0.3589 -0.1772  0.6799
 6204TIP3   OH240102   4.866   5.756  12.221  0.1353 -0.2880 -0.1289
 6204TIP3    H140103   4.846   5.773  12.313 -0.2381  1.2046 -0.4558
 6204TIP3    H240104   4.784   5.773  12.175 -0.1206 -2.5308 -0.6154
 6205TIP3   OH240105   4.159   1.335  12.191 -0.4799 -0.6428 -0.6440
 6205TIP3    H140106   4.075   1.381  12.190 -0.6631 -0.9578 -1.5297
 6205TIP3    H240107   4.136   1.243  12.173  0.3004 -0.1513 -5.6212
 6206TIP3   OH240108   1.229   5.081  15.235 -0.8080 -0.3568 -1.0231
 6206TIP3    H140109   1.261   5.027  15.308 -0.6720  1.2197  0.1329
 6206TIP3    H240110   1.209   5.018  15.166 -0.1227 -1.8350  0.0653
 6207TIP3   OH240111   1.126   2.142   1.737  0.0165 -0.4051  0.0554
 6207TIP3    H140112   1.055   2.100   1.689 -0.7452  0.3563  0.5069
 6207TIP3    H240113   1.175   2.069   1.775 -1.5731 -0.9082  1.2322
 6208TIP3   OH240114   2.306   1.748  14.278  0.0437  0.7791 -0.4534
 6208TIP3    H140115   2.289   1.827  14.227 -1.2637  1.1624  0.5337
 6208TIP3    H240116   2.399   1.754  14.300 -0.3590  2.9059  0.9640
 6209TIP3   OH240117   1.219   6.436   2.627 -0.2647 -0.3447  0.4192
 6209TIP3    H140118   1.191   6.519   2.589 -0.5782 -0.4654  0.3751
 6209TIP3    H240119   1.139   6.399   2.665 -0.7887 -1.8696 -1.9009
 6210TIP3   OH240120   5.866   1.434   4.282 -1.0810  0.1800 -0.0536
 6210TIP3    H140121   5.820   1.428   4.366 -2.6084 -0.0346 -0.8757
 6210TIP3    H240122   5.812   1.384   4.221 -0.4280  1.0060 -1.3553
 6211TIP3   OH240123   5.522   1.384   4.341 -0.1732 -0.5647 -0.4176
 6211TIP3    H140124   5.492   1.471   4.367  0.1079 -0.2009 -1.2884
 6211TIP3    H240125   5.441   1.333   4.331 -0.3938 -0.1185 -0.9119
 6212TIP3   OH240126   5.994   5.440   3.026 -0.3516 -0.2974  0.3301
 6212TIP3    H140127   5.970   5.441   3.119 -0.0772 -2.1717  0.4664
 6212TIP3    H240128   6.089   5.447   3.025 -0.4090  0.5793  0.1275
 6213TIP3   OH240129   6.174   0.594   0.718  0.7387 -0.0782 -0.1121
 6213TIP3    H140130   6.215   0.638   0.793  2.6986 -1.3878 -0.3345
 6213TIP3    H240131   6.152   0.507   0.751 -0.2192  0.0078 -0.5178
 6214TIP3   OH240132   3.123   3.485  14.762  0.2232  0.0759 -0.1747
 6214TIP3    H140133   3.162   3.487  14.849  1.2484 -1.7624 -0.5440
 6214TIP3    H240134   3.153   3.565  14.719  0.9736  0.2336  0.6355
 6215TIP3   OH240135   1.257   3.969   4.312  0.4344 -0.3975 -0.3965
 6215TIP3    H140136   1.202   3.986   4.389 -0.0650 -1.1159 -0.5819
 6215TIP3    H240137   1.345   3.962   4.348  0.0844 -1.7299  0.2880
 6216TIP3   OH240138   3.455   6.536  14.468  0.3582 -0.2636 -0.1219
 6216TIP3    H140139   3.434   6.472  14.535 -0.5192 -0.1596 -0.2755
 6216TIP3    H240140   3.543   6.514  14.439  0.3244 -0.9700  0.3049
 6217TIP3   OH240141   6.187   6.315   0.648 -0.2810  0.5873 -0.4291
 6217TIP3    H140142   6.133   6.394   0.654  0.3138  1.0284 -0.7472
 6217TIP3    H240143   6.159   6.273   0.566 -0.3475  0.6628 -0.4452
 6218TIP3   OH240144   0.980   4.691   3.423  0.1080  0.2436  0.7263
 6218TIP3    H140145   0.949   4.601   3.413 -0.3204  0.3534  0.9992
 6218TIP3    H240146   0.902   4.744   3.406  0.7194  0.6314 -0.9988
 6219TIP3   OH240147   3.872   0.830   0.413 -0.3018 -0.4825 -0.5863
 6219TIP3    H140148   3.831   0.910   0.380  0.2319  0.2943  0.5519
 6219TIP3    H240149   3.822   0.759   0.373 -0.0674  0.3863 -2.5401
 6220TIP3   OH240150   1.113   2.843   4.302 -0.1678  0.0205 -0.4667
 6220TIP3    H140151   1.152   2.795   4.375  0.3365  0.0857 -0.6850
 6220TIP3    H240152   1.022   2.814   4.300 -0.2379  0.1635  0.3011
 6221TIP3   OH240153   3.480   5.393   6.250 -0.0273 -0.8844  0.0195
 6221TIP3    H140154   3.384   5.397   6.246 -0.1047  1.6516  1.7784
 6221TIP3    H240155   3.499   5.373   6.342  1.1723 -2.3787 -0.5219
 6222TIP3   OH240156   3.528   1.978  15.314  0.1292  0.4147  0.2140
 6222TIP3    H140157   3.497   1.945  15.399 -1.6554  3.6222  0.9621
 6222TIP3    H240158   3.621   1.995  15.328  0.0580  0.0595  1.2525
 6223TIP3   OH240159   2.182   5.532   3.905 -0.0115  0.9363  0.2169
 6223TIP3    H140160   2.168   5.586   3.828 -0.1044  0.8503  0.1730
 6223TIP3    H240161   2.179   5.593   3.979 -2.8130  0.6956  0.4261
 6224TIP3   OH240162   3.127   6.295   2.230 -0.1800  0.1924  0.1738
 6224TIP3    H140163   3.151   6.287   2.138  0.9396  1.3562  0.3282
 6224TIP3    H240164   3.142   6.387   2.250  2.3085 -0.5407  2.2070
 6225TIP3   OH240165   6.437   2.842  15.555  0.0922 -0.2477 -0.1259
 6225TIP3    H140166   6.357   2.871  15.600  1.1026  1.0173  0.9914
 6225TIP3    H240167   6.445   2.749  15.577 -1.0112 -0.3606 -0.1632
 6226TIP3   OH240168   5.733   3.185  13.487  0.7676 -0.2779 -0.1986
 6226TIP3    H140169   5.705   3.120  13.422 -0.3398 -0.3587  0.3293
 6226TIP3    H240170   5.819   3.156  13.515  1.8809  0.4986 -2.5865
 6227TIP3   OH240171   6.021   0.283   0.608  0.5765 -0.5102  0.0989
 6227TIP3    H140172   5.995   0.366   0.569 -1.0590 -1.0047  0.0936
 6227TIP3    H240173   6.045   0.306   0.698 -0.7784 -0.1655  0.3816
 6228TIP3   OH240174   2.379   4.947   4.177 -0.4096 -0.0987 -0.0114
 6228TIP3    H140175   2.352   4.926   4.088 -2.3932 -3.6821  1.2511
 6228TIP3    H240176   2.460   4.898   4.190  1.8330  3.1067 -0.7495
 6229TIP3   OH240177   4.569   4.621  16.002 -0.1968  0.3681  0.1324
 6229TIP3    H140178   4.645   4.595  16.053 -0.4156  0.1513  0.3502
 6229TIP3    H240179   4.533   4.696  16.049  1.0721  1.8173 -1.0838
 6230TIP3   OH240180   4.974   2.012  12.486  0.2736 -0.3116  0.2100
 6230TIP3    H140181   4.897   1.994  12.539 -0.3767 -0.9510 -0.8984
 6230TIP3    H240182   4.941   2.009  12.396  2.0641 -3.5391 -0.5150
 6231TIP3   OH240183   0.594   3.465   3.115  0.1596 -0.1365 -0.6975
 6231TIP3    H140184   0.673   3.414   3.097  0.2235 -1.3549  2.4103
 6231TIP3    H240185   0.611   3.506   3.200 -3.0156 -1.5671  0.7698
 6232TIP3   OH240186   5.705   3.179   0.043  0.0618  0.0661 -0.0848
 6232TIP3    H140187   5.641   3.229  -0.007  0.7445  1.1518  0.0849
 6232TIP3    H240188   5.662   3.096   0.062 -0.5439 -0.0267 -1.7014
 6233TIP3   OH240189   5.390   5.108   4.582  0.3386 -0.4926 -0.1202
 6233TIP3    H140190   5.319   5.114   4.518  1.1071  2.5274 -0.8570
 6233TIP3    H240191   5.403   5.014   4.596 -3.2646 -1.1703 -0.4812
 6234TIP3   OH240192   2.424   3.648  13.343 -0.7179 -0.3864  0.4972
 6234TIP3    H140193   2.333   3.630  13.369 -0.8365 -0.3754  0.1037
 6234TIP3    H240194   2.418   3.667  13.249 -0.4435  0.6821  0.6938
 6235TIP3   OH240195   0.736   5.160  11.600  0.4246 -0.2678 -0.0588
 6235TIP3    H140196   0.772   5.248  11.608 -1.4899  0.4198  2.0905
 6235TIP3    H240197   0.785   5.108  11.664  1.7291 -0.8927 -1.5037
 6236TIP3   OH240198   2.154   3.239   4.705  0.3630  0.5399 -0.3717
 6236TIP3    H140199   2.061   3.216   4.706  0.5020 -0.0446  0.2760
 6236TIP3    H240200   2.156   3.330   4.678 -0.4136  0.6217 -0.1813
 6237TIP3   OH240201   4.581   5.830  11.363  0.6278  0.2529  0.5468
 6237TIP3    H140202   4.584   5.922  11.338  1.9984 -0.2111 -1.2117
 6237TIP3    H240203   4.588   5.782  11.281  0.2841 -1.4422  1.4477
 6238TIP3   OH240204   0.396   5.703   2.409  0.1866  0.6420  0.0944
 6238TIP3    H140205   0.444   5.779   2.441 -0.5633 -0.3917  4.1925
 6238TIP3    H240206   0.463   5.648   2.369  1.2868  1.9522  0.0573
 6239TIP3   OH240207   4.387   0.848   1.227  0.0276  0.0743  0.0115
 6239TIP3    H140208   4.320   0.786   1.254 -1.9562  2.2241  0.3305
 6239TIP3    H240209   4.367   0.868   1.136  0.7024  0.1743 -0.1235
 6240TIP3   OH240210   3.289   1.005  13.561  0.1333 -0.0275 -0.2762
 6240TIP3    H140211   3.245   1.003  13.476  0.3138  1.3838 -0.4281
 6240TIP3    H240212   3.218   0.995  13.624 -0.0919 -0.3262 -0.5675
 6241TIP3   OH240213   2.313   1.955   5.734  0.4129 -0.1383  0.4381
 6241TIP3    H140214   2.305   1.860   5.736  1.0305 -0.2368 -0.8478
 6241TIP3    H240215   2.240   1.984   5.680 -0.5985  0.2515  1.9679
 6242TIP3   OH240216   0.736   4.743  11.245  0.0630 -0.2140  0.0445
 6242TIP3    H140217   0.800   4.803  11.207 -0.7981 -0.0656 -1.2241
 6242TIP3    H240218   0.714   4.782  11.330 -0.9279  1.6305 -0.9993
 6243TIP3   OH240219   2.004   6.430  13.481  0.0222  0.1912 -0.2487
 6243TIP3    H140220   2.018   6.467  13.394 -1.4436 -1.9028 -1.4943
 6243TIP3    H240221   2.048   6.345  13.477  0.4431  0.3192  1.2907
 6244TIP3   OH240222   0.181   3.149   3.662  0.1735  0.2761 -0.1099
 6244TIP3    H140223   0.194   3.193   3.747 -1.0336  1.2901 -0.4195
 6244TIP3    H240224   0.092   3.116   3.666  0.8326 -1.6214 -0.1684
 6245TIP3   OH240225   6.833   6.397  12.457 -0.0444 -0.3510  0.1718
 6245TIP3    H140226   6.928   6.391  12.453  0.0917  0.5175  1.4869
 6245TIP3    H240227   6.815   6.491  12.466 -1.1225 -0.3391 -1.5241
 6246TIP3   OH240228   3.025   1.887  12.355 -0.3282  0.2804  0.4078
 6246TIP3    H140229   2.935   1.891  12.322  0.0674 -1.8287 -1.1346
 6246TIP3    H240230   3.034   1.964  12.411 -1.7338  2.9104 -2.7344
 6247TIP3   OH240231   3.391   0.733  11.417  0.8851 -0.0833  0.4100
 6247TIP3    H140232   3.367   0.822  11.441  0.2687  0.6827 -2.6713
 6247TIP3    H240233   3.395   0.733  11.321  1.7253 -3.1586  0.3172
 6248TIP3   OH240234   3.298   2.919   6.546  0.0343  0.5334  0.1841
 6248TIP3    H140235   3.266   2.838   6.587  1.2273 -0.0841 -0.0400
 6248TIP3    H240236   3.334   2.890   6.462  1.1555  1.1737  0.4329
 6249TIP3   OH240237   6.780   1.879  15.196 -0.6277 -0.0828 -0.2263
 6249TIP3    H140238   6.729   1.927  15.130 -0.6931 -1.1017 -0.9454
 6249TIP3    H240239   6.871   1.901  15.176 -0.6554 -0.2737 -0.5831
 6250TIP3   OH240240   4.109   0.768  12.081 -0.3094 -0.3300 -0.5169
 6250TIP3    H140241   4.188   0.752  12.133 -0.8896 -1.9252 -0.0620
 6250TIP3    H240242   4.048   0.808  12.143  0.6779  2.6396 -1.3128
 6251TIP3   OH240243   2.634   6.079  12.590  0.0742 -0.4227  0.2003
 6251TIP3    H140244   2.647   6.130  12.510 -0.1731  0.7369  0.8788
 6251TIP3    H240245   2.548   6.106  12.623  1.1389  0.8982  2.0887
 6252TIP3   OH240246   0.076   3.921   1.661  0.4910  0.4248 -0.1303
 6252TIP3    H140247   0.009   3.902   1.596  0.3791  3.7284 -1.1659
 6252TIP3    H240248   0.047   4.003   1.703  2.4139  0.3722  1.4647
 6253TIP3   OH240249   3.567   6.570   0.210  0.1941 -0.3964  0.1639
 6253TIP3    H140250   3.527   6.616   0.136 -0.8817 -0.2296  0.8211
 6253TIP3    H240251   3.585   6.482   0.177  0.4855 -0.0748 -0.5372
 6254TIP3   OH240252   0.564   6.346   4.527 -0.6739 -0.3959 -0.3751
 6254TIP3    H140253   0.545   6.381   4.440  1.8813 -0.5473 -1.0733
 6254TIP3    H240254   0.658   6.329   4.526 -0.7713 -1.4957  2.0471
 6255TIP3   OH240255   1.477   6.780  15.962  0.3896 -0.8363 -0.3747
 6255TIP3    H140256   1.409   6.748  16.022  0.0888 -0.7542 -0.6708
 6255TIP3    H240257   1.429   6.831  15.896  0.5920 -1.9135 -1.3718
 6256TIP3   OH240258   3.572   4.150  16.056  0.2782  0.2431  0.3474
 6256TIP3    H140259   3.529   4.095  16.122  2.4307 -2.1404 -0.1262
 6256TIP3    H240260   3.635   4.202  16.106  0.8744 -0.4841  0.3605
 6257TIP3   OH240261   6.719   0.045  12.088  0.3385 -0.2194  0.3721
 6257TIP3    H140262   6.778   0.119  12.079  0.6281 -0.2385  1.8718
 6257TIP3    H240263   6.674   0.060  12.172 -0.7616 -0.9244 -0.0612
 6258TIP3   OH240264   6.745   4.139  14.369  0.0650  0.2517 -0.2457
 6258TIP3    H140265   6.779   4.217  14.326  1.5540 -0.0333  0.3400
 6258TIP3    H240266   6.720   4.169  14.457 -0.9575  0.3878 -0.5603
 6259TIP3   OH240267   2.898   6.512  15.773  0.2155  0.6239 -0.2585
 6259TIP3    H140268   2.941   6.488  15.855  0.9669 -0.2307 -0.8884
 6259TIP3    H240269   2.811   6.473  15.779  0.2285  0.6579  0.1743
 6260TIP3   OH240270   2.325   2.350   1.824  0.1236 -0.4653  0.6377
 6260TIP3    H140271   2.297   2.288   1.756  2.5335  1.3638 -2.2614
 6260TIP3    H240272   2.249   2.406   1.838 -0.7505 -1.5068  0.2753
 6261TIP3   OH240273   5.517   0.665  14.573  0.1179  0.1283  0.0803
 6261TIP3    H140274   5.536   0.732  14.507  0.2164 -0.0909 -0.1169
 6261TIP3    H240275   5.441   0.698  14.621  0.9763  1.0044  0.8552
 6262TIP3   OH240276   0.275   3.815  13.612  0.0839 -0.5075  0.3380
 6262TIP3    H140277   0.257   3.906  13.637 -0.5415  0.7102 -3.6846
 6262TIP3    H240278   0.370   3.809  13.613  0.1763  0.5185 -0.0772
 6263TIP3   OH240279   4.131   1.257   4.869 -0.6911  0.0222 -0.0541
 6263TIP3    H140280   4.174   1.241   4.953  0.0810 -1.3776 -0.6677
 6263TIP3    H240281   4.113   1.351   4.868  0.0539  0.2054  1.3173
 6264TIP3   OH240282   0.611   4.006   1.837  0.1077  0.5471 -0.1452
 6264TIP3    H140283   0.612   4.071   1.908  0.5294  0.0816  0.2835
 6264TIP3    H240284   0.656   3.930   1.874 -1.5359 -0.4984 -0.1651
 6265TIP3   OH240285   4.065   3.875  12.173 -0.0739  0.1090  0.0027
 6265TIP3    H140286   3.990   3.921  12.209 -0.3994  1.2306 -1.9435
 6265TIP3    H240287   4.057   3.786  12.206 -2.1840  0.2404 -0.0282
 6266TIP3   OH240288   4.994   2.287   0.577 -0.0239 -0.1718  1.2052
 6266TIP3    H140289   4.999   2.344   0.501 -0.7240 -2.1688 -0.4206
 6266TIP3    H240290   5.073   2.308   0.628  0.6818  0.9312 -0.2731
 6267TIP3   OH240291   1.353   1.444  11.751  0.3677 -0.2175 -0.2213
 6267TIP3    H140292   1.409   1.446  11.829 -0.1727 -2.3166  0.2797
 6267TIP3    H240293   1.355   1.352  11.723  0.1357  0.3965 -2.3950
 6268TIP3   OH240294   5.862   0.252   1.360 -0.3722  0.2142 -0.1273
 6268TIP3    H140295   5.897   0.268   1.448 -0.7118  0.1098  0.0308
 6268TIP3    H240296   5.771   0.280   1.366  0.0254  1.7830 -0.9053
 6269TIP3   OH240297   4.854   4.950   5.178  0.1150  0.6408 -0.1003
 6269TIP3    H140298   4.884   4.926   5.090  0.2317 -0.5987  0.2682
 6269TIP3    H240299   4.794   5.024   5.163 -0.7468 -0.2577 -1.3364
 6270TIP3   OH240300   1.570   4.309   1.880 -0.1242  0.3112  0.0161
 6270TIP3    H140301   1.651   4.274   1.843 -0.2143 -0.3815  0.4426
 6270TIP3    H240302   1.515   4.327   1.804  1.0391  2.4318 -0.3956
 6271TIP3   OH240303   1.507   4.676  15.932 -0.0072 -0.0141 -0.0607
 6271TIP3    H140304   1.436   4.738  15.949  1.3734  1.2495  1.3985
 6271TIP3    H240305   1.564   4.684  16.008  1.1274 -1.8300 -0.6623
 6272TIP3   OH240306   4.318   4.205   3.030  0.3358  0.3087 -0.2992
 6272TIP3    H140307   4.350   4.251   3.107 -0.0790  0.7893 -0.4046
 6272TIP3    H240308   4.397   4.177   2.984  0.5937  0.7954 -0.1576
 6273TIP3   OH240309   6.076   5.716  15.197 -0.4288  0.1495  0.5408
 6273TIP3    H140310   6.160   5.759  15.183 -0.4498 -0.2406 -1.0776
 6273TIP3    H240311   6.096   5.643  15.255  0.6067 -0.5791 -0.6581
 6274TIP3   OH240312   3.513   4.507   2.660  0.3425 -0.0796 -0.1986
 6274TIP3    H140313   3.503   4.485   2.753 -0.9816 -0.0044 -0.3027
 6274TIP3    H240314   3.426   4.492   2.623  0.4588  1.3542 -1.1195
 6275TIP3   OH240315   6.751   3.451   2.962  0.0473 -0.4786 -0.2749
 6275TIP3    H140316   6.668   3.412   2.992 -1.3592  1.3108 -1.5681
 6275TIP3    H240317   6.733   3.476   2.871  2.9048 -2.3786 -1.4911
 6276TIP3   OH240318   1.987   4.957   0.723  0.2443 -0.3026 -0.1731
 6276TIP3    H140319   1.952   4.869   0.705  1.1195 -0.4249 -1.3979
 6276TIP3    H240320   2.074   4.957   0.683 -0.2282  1.5269 -1.3241
 6277TIP3   OH240321   6.819   4.413   0.592  0.3972 -0.2971  0.0880
 6277TIP3    H140322   6.732   4.377   0.612  0.2184  0.1951  0.2253
 6277TIP3    H240323   6.802   4.504   0.567  0.8976 -0.1136  0.3866
 6278TIP3   OH240324   2.957   1.573   6.107  0.1727  0.9022  0.0874
 6278TIP3    H140325   2.897   1.502   6.130  0.3153  0.5933 -0.4944
 6278TIP3    H240326   3.012   1.538   6.037 -1.4126  2.3934 -2.0377
 6279TIP3   OH240327   3.778   4.948  17.105  0.4993 -0.1718 -0.2392
 6279TIP3    H140328   3.867   4.973  17.080  0.2235  0.6811 -0.4097
 6279TIP3    H240329   3.783   4.929  17.199  1.1941 -1.7633 -0.5597
 6280TIP3   OH240330   6.657   3.550   1.936  0.1605  0.2770  0.2409
 6280TIP3    H140331   6.737   3.596   1.911  0.0521  1.2997  1.6857
 6280TIP3    H240332   6.668   3.530   2.028 -1.2100  0.3792  0.4515
 6281TIP3   OH240333   3.000   5.221  14.405  0.3264 -0.4403 -0.6081
 6281TIP3    H140334   3.051   5.271  14.469  0.8840  0.0798 -1.4435
 6281TIP3    H240335   2.946   5.162  14.458 -0.6035  1.2583  0.4417
 6282TIP3   OH240336   1.752   5.142  14.199  0.3269 -0.2468  0.3121
 6282TIP3    H140337   1.681   5.130  14.136  0.2617 -0.5297  0.4420
 6282TIP3    H240338   1.708   5.157  14.283  0.4184 -1.5935  0.6225
 6283TIP3   OH240339   2.564   3.037  14.796  0.7317  0.9090 -0.4671
 6283TIP3    H140340   2.638   3.066  14.743  1.0694 -0.3364 -0.7099
 6283TIP3    H240341   2.566   2.942  14.790 -0.2043  0.8096  0.4709
 6284TIP3   OH240342   3.834   1.057   4.968 -0.2939 -0.5103  0.0016
 6284TIP3    H140343   3.801   1.134   4.921 -1.0597 -0.0800  1.1659
 6284TIP3    H240344   3.926   1.077   4.985  0.4110 -1.3072 -2.4769
 6285TIP3   OH240345   0.775   6.699  12.798  0.1778 -0.2435 -0.5733
 6285TIP3    H140346   0.755   6.669  12.709 -0.7246  1.0484 -0.8387
 6285TIP3    H240347   0.791   6.793  12.788  3.7468 -0.6379  0.0873
 6286TIP3   OH240348   5.346   4.607  13.611 -0.0341 -0.1332 -0.2915
 6286TIP3    H140349   5.316   4.664  13.682 -0.4552 -1.6539  0.7820
 6286TIP3    H240350   5.423   4.563  13.646  0.7019  0.2570 -1.3620
 6287TIP3   OH240351   4.618   2.713  17.083 -0.0285  0.0452 -0.0113
 6287TIP3    H140352   4.602   2.654  17.157  0.8326  1.4659  1.3774
 6287TIP3    H240353   4.634   2.654  17.009 -0.9846 -1.4311  0.8968
 6288TIP3   OH240354   4.901   2.950   5.506 -0.2765  0.5565  0.3328
 6288TIP3    H140355   4.872   3.005   5.580 -0.8757 -0.7360  1.0952
 6288TIP3    H240356   4.821   2.906   5.477 -0.0170  0.9553 -1.0424
 6289TIP3   OH240357   6.276   0.102  15.766 -0.6099  0.0556 -0.1692
 6289TIP3    H140358   6.227   0.173  15.808  0.1210  0.4629  0.0264
 6289TIP3    H240359   6.355   0.145  15.733 -0.3333 -0.6044 -0.3784
 6290TIP3   OH240360   1.506   0.170  12.466 -0.1086 -0.1121 -0.4590
 6290TIP3    H140361   1.524   0.227  12.390 -2.6035 -0.5228 -1.4817
 6290TIP3    H240362   1.555   0.090  12.448  0.1306  0.1731 -1.1345
 6291TIP3   OH240363   3.119   3.484   2.469 -0.2810 -0.0961  0.1752
 6291TIP3    H140364   3.031   3.467   2.434 -0.7842  1.7710  0.4609
 6291TIP3    H240365   3.108   3.558   2.528  1.3289 -0.4711  1.0056
 6292TIP3   OH240366   1.886   1.781   4.983 -0.5234 -0.6077  0.3303
 6292TIP3    H140367   1.955   1.820   5.036 -1.4194  0.2793  0.8944
 6292TIP3    H240368   1.902   1.687   4.987  1.1722 -0.3665 -0.3148
 6293TIP3   OH240369   1.366   0.895   3.939 -0.3326 -0.4280  0.2752
 6293TIP3    H140370   1.364   0.926   4.029 -2.8042  0.1478  0.0966
 6293TIP3    H240371   1.395   0.971   3.888 -1.4673  0.0984  0.3693
 6294TIP3   OH240372   6.679   4.647  13.284 -0.6348  0.2330 -0.2394
 6294TIP3    H140373   6.730   4.636  13.364 -0.5739 -0.1187 -0.3248
 6294TIP3    H240374   6.608   4.706  13.309  0.8652  2.3220 -0.5852
 6295TIP3   OH240375   6.224   2.435   4.462 -0.2125  0.6572 -0.5393
 6295TIP3    H140376   6.222   2.401   4.551 -1.7232  0.8554 -0.4711
 6295TIP3    H240377   6.176   2.370   4.411  2.4522 -0.5864 -1.6763
 6296TIP3   OH240378   4.403   6.333  13.938  0.1766 -0.0872  0.3449
 6296TIP3    H140379   4.422   6.265  14.003 -0.1625 -0.5847 -0.0680
 6296TIP3    H240380   4.489   6.371  13.918  0.7132 -1.9248 -1.0890
 6297TIP3   OH240381   6.643   2.867   4.020 -0.1051  0.2109  0.8577
 6297TIP3    H140382   6.579   2.805   3.984 -0.7882  0.9424  0.7952
 6297TIP3    H240383   6.591   2.930   4.070  0.3750  1.7857 -0.5473
 6298TIP3   OH240384   1.868   4.667   4.397  0.1500  0.0188 -0.4494
 6298TIP3    H140385   1.948   4.647   4.348  1.8156  1.7920  1.3686
 6298TIP3    H240386   1.797   4.638   4.339  2.0609 -1.3366 -2.2725
 6299TIP3   OH240387   0.627   2.388   5.071  0.6280 -0.5287 -0.5564
 6299TIP3    H140388   0.613   2.310   5.125 -0.0934 -1.9590 -2.6834
 6299TIP3    H240389   0.545   2.401   5.025  1.4293  0.1944 -1.8567
 6300TIP3   OH240390   2.924   0.704  14.332 -0.2968 -0.3712  0.1067
 6300TIP3    H140391   2.885   0.786  14.301 -0.7718 -0.5256  0.2818
 6300TIP3    H240392   2.863   0.636  14.303  0.1869 -0.6784 -0.1885
 6301TIP3   OH240393   0.364   5.415  14.372 -0.0133 -0.2446  0.4678
 6301TIP3    H140394   0.301   5.346  14.393  0.3215 -0.7822 -0.2714
 6301TIP3    H240395   0.361   5.474  14.447 -2.0788  0.2417  0.0774
 6302TIP3   OH240396   2.930   5.928   2.176  0.0912  0.5762 -0.4308
 6302TIP3    H140397   2.970   5.968   2.252 -0.6900  2.5032 -0.9765
 6302TIP3    H240398   2.866   5.992   2.146 -0.0484 -0.3921 -2.3529
 6303TIP3   OH240399   4.723   5.833  17.097  0.3967  0.0106  0.2376
 6303TIP3    H140400   4.736   5.739  17.100 -0.2369 -0.0662  0.7714
 6303TIP3    H240401   4.717   5.859  17.189  4.0334  1.0763  0.3371
 6304TIP3   OH240402   3.146   4.942   4.127 -0.4355 -0.2997  0.0038
 6304TIP3    H140403   3.202   5.010   4.090 -1.4061  0.7450  0.4060
 6304TIP3    H240404   3.191   4.860   4.106  2.8200  0.5561  2.8751
 6305TIP3   OH240405   6.304   6.218  16.266  0.3926 -0.0257  0.3411
 6305TIP3    H140406   6.386   6.169  16.255  1.6030  2.0630 -0.6086
 6305TIP3    H240407   6.324   6.282  16.333  0.2407  1.8089 -1.2784
 6306TIP3   OH240408   3.291   6.618   1.842  0.4471 -0.6075  0.0907
 6306TIP3    H140409   3.314   6.525   1.837 -1.0440 -1.0668  1.0663
 6306TIP3    H240410   3.363   6.658   1.891  2.4106 -0.7049 -2.4938
 6307TIP3   OH240411   4.118   4.659  15.877  0.5013  0.3404 -1.0660
 6307TIP3    H140412   4.040   4.634  15.828  0.7376 -0.6687 -0.9429
 6307TIP3    H240413   4.092   4.656  15.969  0.6655  0.0774 -1.0287
 6308TIP3   OH240414   5.906   5.667  12.169 -0.5002 -0.1836 -0.2857
 6308TIP3    H140415   5.987   5.644  12.124 -0.7372 -2.6259  0.3990
 6308TIP3    H240416   5.929   5.672  12.261 -0.8676  0.5322 -0.2207
 6309TIP3   OH240417   3.781   5.037   0.727 -0.0110 -0.5106 -0.2563
 6309TIP3    H140418   3.797   5.008   0.817  2.3316 -0.0833 -0.4661
 6309TIP3    H240419   3.783   4.957   0.675 -1.9106 -0.8222  0.0910
 6310TIP3   OH240420   6.034   5.507  12.402  0.5688 -0.0721  0.3194
 6310TIP3    H140421   6.118   5.551  12.414  1.0626 -1.1608  1.0397
 6310TIP3    H240422   6.019   5.462  12.485 -1.2107  0.8825  0.5653
 6311TIP3   OH240423   1.173   4.980  16.222 -0.6646 -0.1398  0.1383
 6311TIP3    H140424   1.255   4.986  16.173  0.9002 -0.6630  2.5249
 6311TIP3    H240425   1.156   4.886  16.229 -1.3857 -0.0416 -0.1529
 6312TIP3   OH240426   1.705   6.708  12.810  0.6779 -0.3864 -0.4565
 6312TIP3    H140427   1.663   6.790  12.785 -2.2965 -1.4150  0.7110
 6312TIP3    H240428   1.695   6.651  12.733  0.7193 -0.3766 -0.4699
 6313TIP3   OH240429   6.380   6.416  13.681 -0.3800 -0.1270  0.2816
 6313TIP3    H140430   6.298   6.439  13.636 -0.2433 -0.8617 -0.3830
 6313TIP3    H240431   6.381   6.320  13.680  0.5921 -0.1305  0.0707
 6314TIP3   OH240432   4.683   3.718   0.794  0.2539 -0.3679 -0.1556
 6314TIP3    H140433   4.702   3.672   0.713  0.6309  1.0411 -0.8992
 6314TIP3    H240434   4.590   3.705   0.809  0.6155 -2.5723  0.4544
 6315TIP3   OH240435   4.384   5.191   1.978  0.2967 -0.3321 -0.6779
 6315TIP3    H140436   4.433   5.172   2.057  0.5792  1.3703 -0.4126
 6315TIP3    H240437   4.345   5.277   1.994  0.0194 -0.1436 -2.2199
 6316TIP3   OH240438   3.492   4.491  14.264  0.5065 -0.3158 -0.4297
 6316TIP3    H140439   3.433   4.436  14.315  0.7914  0.3679  0.6686
 6316TIP3    H240440   3.513   4.438  14.187 -0.0478 -1.3161  0.0859
 6317TIP3   OH240441   5.661   5.284   3.942 -0.7861  0.0230  0.3842
 6317TIP3    H140442   5.635   5.237   3.863  0.8205 -0.4160  0.0834
 6317TIP3    H240443   5.656   5.218   4.012  0.0952 -0.2463  0.2093
 6318TIP3   OH240444   3.946   3.563  13.845  0.6112  0.1454 -0.1432
 6318TIP3    H140445   3.969   3.578  13.937  0.0840  0.5506 -0.0682
 6318TIP3    H240446   3.873   3.623  13.829  0.7546  0.1397 -0.8516
 6319TIP3   OH240447   0.062   3.591  17.171 -0.0952  0.6833 -0.2598
 6319TIP3    H140448   0.039   3.662  17.112 -2.0275 -0.0018 -0.3873
 6319TIP3    H240449  -0.015   3.579  17.226 -0.0797 -1.6930 -0.6414
 6320TIP3   OH240450   3.371   1.877  11.788 -0.1102  0.6067 -0.3179
 6320TIP3    H140451   3.388   1.952  11.844  0.3069  0.4438 -0.2272
 6320TIP3    H240452   3.300   1.906  11.731 -0.0363  1.0246 -0.1999
 6321TIP3   OH240453   4.605   1.529   2.692  0.0545  0.2164  0.4721
 6321TIP3    H140454   4.598   1.536   2.787  1.0954 -0.3936  0.6022
 6321TIP3    H240455   4.515   1.542   2.661 -0.1278  1.5581  1.4476
 6322TIP3   OH240456   4.515   3.729  14.810 -0.2484  0.9444  0.0668
 6322TIP3    H140457   4.420   3.730  14.806 -0.2854 -1.1888 -1.5600
 6322TIP3    H240458   4.536   3.665  14.878  0.1667  3.8739  2.9536
 6323TIP3   OH240459   6.644   2.214  13.275  0.2585  0.2681  0.3470
 6323TIP3    H140460   6.634   2.210  13.180 -0.2366  3.0632  0.1780
 6323TIP3    H240461   6.738   2.204  13.289  0.5404  1.2922 -0.6149
 6324TIP3   OH240462   3.184   5.602   1.712 -0.2638  0.3208  0.2772
 6324TIP3    H140463   3.161   5.621   1.621 -0.5960  0.3251  0.3629
 6324TIP3    H240464   3.179   5.506   1.718 -1.4855  0.3997  0.6232
 6325TIP3   OH240465   6.294   3.137   5.412  0.5749  0.1861 -0.0427
 6325TIP3    H140466   6.264   3.061   5.361  0.7441  0.4702 -0.5800
 6325TIP3    H240467   6.360   3.102   5.471  0.1673 -0.2031  0.1882
 6326TIP3   OH240468   4.588   6.305  12.930  0.0118  0.0268 -0.3084
 6326TIP3    H140469   4.619   6.392  12.954  0.7964 -0.0344 -1.0440
 6326TIP3    H240470   4.664   6.248  12.942 -0.3539 -0.4705 -0.3173
 6327TIP3   OH240471   1.427   5.339   5.402  0.0962  0.4360 -0.3470
 6327TIP3    H140472   1.433   5.304   5.313  0.5961  1.1942 -0.6245
 6327TIP3    H240473   1.416   5.433   5.390 -0.9644  0.4206  0.3853
 6328TIP3   OH240474   4.518   5.230  12.271 -0.3381  0.0830 -0.1697
 6328TIP3    H140475   4.599   5.236  12.321 -0.2394  1.3514 -0.4436
 6328TIP3    H240476   4.458   5.291  12.314 -0.6737  0.2192 -0.8057
 6329TIP3   OH240477   6.378   0.275  12.989  0.1786 -0.2184 -0.0179
 6329TIP3    H140478   6.400   0.356  13.034  1.9700 -0.4389 -0.4243
 6329TIP3    H240479   6.292   0.251  13.023 -0.0006  1.3902  0.7389
 6330TIP3   OH240480   0.627   0.585   1.508  0.4629  0.0632  0.7094
 6330TIP3    H140481   0.548   0.608   1.458  1.2472  0.0036 -0.5990
 6330TIP3    H240482   0.602   0.508   1.558 -0.5904  0.5945  1.0403
 6331TIP3   OH240483   1.312   6.760   1.757  0.1285 -0.0433  0.4372
 6331TIP3    H140484   1.291   6.679   1.711 -0.9342 -0.8524  2.2307
 6331TIP3    H240485   1.402   6.749   1.787 -0.2792 -0.9765  1.3993
 6332TIP3   OH240486   3.501   4.894  16.884  0.1583 -0.2273 -0.4105
 6332TIP3    H140487   3.408   4.878  16.867 -0.0243  0.1714  0.1913
 6332TIP3    H240488   3.542   4.890  16.798 -0.4918  0.0888 -0.7406
 6333TIP3   OH240489   2.898   3.350  12.998 -0.4225  0.5842  0.5551
 6333TIP3    H140490   2.987   3.315  13.005 -0.7386 -0.3645  0.0488
 6333TIP3    H240491   2.909   3.445  13.003  0.8172  0.5803 -1.2290
 6334TIP3   OH240492   5.176   6.233  11.471 -0.3946 -0.7037 -0.1272
 6334TIP3    H140493   5.263   6.262  11.444  0.2046  0.3560  2.6795
 6334TIP3    H240494   5.123   6.312  11.469 -0.2895 -0.5435  1.7593
 6335TIP3   OH240495   2.514   1.262   4.616 -0.7341  0.2384 -0.1098
 6335TIP3    H140496   2.520   1.352   4.584  0.9495 -0.5161 -2.1756
 6335TIP3    H240497   2.429   1.231   4.587  0.3774 -0.1290 -3.3673
 6336TIP3   OH240498   6.100   6.028  15.489  0.5681  0.0424 -0.1526
 6336TIP3    H140499   6.076   5.992  15.575  1.1833  0.6017  0.2621
 6336TIP3    H240500   6.016   6.045  15.447  0.1874  1.5084  1.0856
 6337TIP3   OH240501   1.832   5.303  11.328 -0.3714 -0.1203 -0.0235
 6337TIP3    H140502   1.785   5.224  11.299 -0.1014 -0.7642  1.2233
 6337TIP3    H240503   1.924   5.278  11.322 -0.2958 -0.8817  2.8172
 6338TIP3   OH240504   6.725   4.700  11.997  0.5803 -0.2544 -0.5309
 6338TIP3    H140505   6.728   4.776  12.056 -1.9812  0.5677 -1.3456
 6338TIP3    H240506   6.654   4.646  12.031  1.1319 -1.3572 -1.0777
 6339TIP3   OH240507   4.750   4.094  12.296  0.0466 -0.0206  0.0969
 6339TIP3    H140508   4.811   4.084  12.369 -0.4934  1.3600  0.7764
 6339TIP3    H240509   4.767   4.018  12.240  1.3864 -0.4120  0.9808
 6340TIP3   OH240510   3.543   2.548  11.919  0.2600 -0.1603 -0.0518
 6340TIP3    H140511   3.621   2.492  11.921  0.5385  0.2421  1.6413
 6340TIP3    H240512   3.474   2.494  11.958  0.0660  0.0271 -0.1371
 6341TIP3   OH240513   5.473   5.005  11.661 -0.2461  0.7257  0.2774
 6341TIP3    H140514   5.532   5.079  11.673  0.7401  0.0622 -0.3056
 6341TIP3    H240515   5.504   4.940  11.724 -0.6625  0.5498  0.3017
 6342TIP3   OH240516   6.426   5.744   0.711 -0.5438 -0.7282 -0.2273
 6342TIP3    H140517   6.491   5.746   0.782  1.1295  2.4508 -1.6682
 6342TIP3    H240518   6.385   5.830   0.714  0.1254 -0.1761 -3.4978
 6343TIP3   OH240519   2.179   6.384   0.435 -0.2888 -0.2959 -0.0217
 6343TIP3    H140520   2.223   6.459   0.394  1.4692 -1.2672 -0.0286
 6343TIP3    H240521   2.086   6.399   0.419 -0.2365  2.9700  1.7755
 6344TIP3   OH240522   3.613   1.351  14.891  0.0920  0.0178 -0.0851
 6344TIP3    H140523   3.596   1.401  14.971 -0.3612 -0.3566  0.0564
 6344TIP3    H240524   3.703   1.374  14.867  0.8622 -1.1701  1.4919
 6345TIP3   OH240525   2.981   3.162   4.103  0.0872  0.0152 -0.7047
 6345TIP3    H140526   2.907   3.203   4.057  0.2021  2.1749  0.8887
 6345TIP3    H240527   2.941   3.115   4.176  0.2594  1.7944  0.5932
 6346TIP3   OH240528   3.793   6.448   4.173 -0.4685  0.1596  0.4309
 6346TIP3    H140529   3.795   6.541   4.149  0.2365 -0.2114 -1.0853
 6346TIP3    H240530   3.869   6.437   4.229 -1.1814  0.7080  1.5362
 6347TIP3   OH240531   2.858   3.572   0.607 -0.5080 -0.6708 -0.2721
 6347TIP3    H140532   2.783   3.584   0.664 -0.2601  0.1771 -0.1106
 6347TIP3    H240533   2.824   3.524   0.531 -1.4093  0.4371 -0.6034
 6348TIP3   OH240534   6.602   5.659   2.678  0.4690 -0.6272  0.5569
 6348TIP3    H140535   6.509   5.639   2.664  0.3552  0.0212  0.3500
 6348TIP3    H240536   6.602   5.739   2.730  0.9133 -0.4642  0.3119
 6349TIP3   OH240537   2.117   3.602  13.130 -0.2278  0.0083 -0.0478
 6349TIP3    H140538   2.105   3.640  13.217  0.0515 -0.4115  0.1752
 6349TIP3    H240539   2.207   3.625  13.106  0.1024 -0.8943  0.2840
 6350TIP3   OH240540   3.051   0.996  14.041 -0.2468 -0.3812 -0.5903
 6350TIP3    H140541   3.127   0.949  14.074 -0.6405 -0.6583 -0.0663
 6350TIP3    H240542   3.081   1.036  13.959  0.0951 -1.5525 -1.0603
 6351TIP3   OH240543   2.496   1.680   6.446  0.1507  0.9771  0.1866
 6351TIP3    H140544   2.551   1.643   6.377  0.4362  0.7081  0.5547
 6351TIP3    H240545   2.418   1.625   6.447  0.2461  0.8420  0.2291
 6352TIP3   OH240546   2.539   2.163   1.908 -0.1497  0.0773  0.0191
 6352TIP3    H140547   2.482   2.213   1.850  1.7123  2.0511 -0.1896
 6352TIP3    H240548   2.545   2.216   1.988  2.2442  0.5274 -0.3871
 6353TIP3   OH240549   4.151   0.544   2.869 -0.4370  0.9829 -0.6129
 6353TIP3    H140550   4.213   0.521   2.800 -0.9355  1.2616 -1.1615
 6353TIP3    H240551   4.067   0.508   2.840 -0.1194 -1.5376  1.2685
 6354TIP3   OH240552   3.547   0.523   3.919 -0.3180  0.3299  0.0200
 6354TIP3    H140553   3.559   0.523   4.014 -1.3763 -1.2299  0.1860
 6354TIP3    H240554   3.550   0.431   3.894 -3.1921  0.4134 -0.9943
 6355TIP3   OH240555   6.159   0.052   1.791 -0.1649 -0.2684  0.0597
 6355TIP3    H140556   6.187   0.026   1.703  1.3062  1.5997 -0.0754
 6355TIP3    H240557   6.175  -0.026   1.845  1.5579 -0.5517 -0.8002
 6356TIP3   OH240558   2.823   0.279  14.376  0.6178  0.2668 -0.2483
 6356TIP3    H140559   2.863   0.201  14.337  1.1074  0.4238 -0.0739
 6356TIP3    H240560   2.732   0.255  14.390  0.4362  0.2110 -1.4792
 6357TIP3   OH240561   2.038   1.001  12.167 -0.4922  0.1555  0.0037
 6357TIP3    H140562   1.997   1.085  12.145 -0.7465 -0.5767 -2.7173
 6357TIP3    H240563   2.049   1.004  12.262  0.6656  3.7645 -0.0833
 6358TIP3   OH240564   1.143   2.102   3.754  0.3355  0.0867  0.1307
 6358TIP3    H140565   1.058   2.124   3.792  0.0847 -0.1694 -0.2755
 6358TIP3    H240566   1.195   2.182   3.761  0.0707  0.2323  0.4073
 6359TIP3   OH240567   3.851   2.988  14.002  0.2022 -0.0701 -0.2401
 6359TIP3    H140568   3.846   3.029  13.916 -0.7547 -2.3532 -1.3475
 6359TIP3    H240569   3.773   3.019  14.048 -0.1546 -0.1145 -0.8082
 6360TIP3   OH240570   0.185   2.085   2.175  0.1024 -0.0066  0.0749
 6360TIP3    H140571   0.278   2.074   2.192  0.3952  1.2233 -0.6049
 6360TIP3    H240572   0.166   2.026   2.102  0.2036 -0.7192  0.6207
 6361TIP3   OH240573   5.989   6.531   5.915 -0.7655 -0.1898  0.5601
 6361TIP3    H140574   5.971   6.498   5.827 -0.4093  0.5544  0.2039
 6361TIP3    H240575   5.977   6.626   5.909  1.3121  0.1341  0.7761
 6362TIP3   OH240576   6.248   3.389  14.827 -0.7516 -0.6409 -0.1148
 6362TIP3    H140577   6.153   3.377  14.827 -0.6277 -1.8696  0.9105
 6362TIP3    H240578   6.282   3.310  14.869  0.7384 -0.2655 -0.5534
 6363TIP3   OH240579   5.330   3.897   3.007  0.1750  0.4183 -0.0642
 6363TIP3    H140580   5.254   3.871   3.059  0.1140 -1.4279 -0.9814
 6363TIP3    H240581   5.322   3.992   2.999 -2.5393  0.2151 -0.8815
 6364TIP3   OH240582   5.269   5.112   2.040 -0.3262 -0.1210 -0.6347
 6364TIP3    H140583   5.288   5.019   2.032  1.4762  0.1831 -0.3054
 6364TIP3    H240584   5.175   5.116   2.056 -0.4468 -1.8709 -0.7366
 6365TIP3   OH240585   4.322   2.177  17.029  0.4694 -0.0364 -0.2790
 6365TIP3    H140586   4.340   2.084  17.020  0.7351  0.1687 -2.2379
 6365TIP3    H240587   4.227   2.185  17.019  0.5515 -0.0217 -1.1604
 6366TIP3   OH240588   1.979   4.475  13.714 -0.1756  0.3473 -0.8264
 6366TIP3    H140589   1.913   4.485  13.782  0.6638 -3.4458  0.7694
 6366TIP3    H240590   2.052   4.530  13.742 -1.0534  1.3485 -0.4511
 6367TIP3   OH240591   6.235   0.848  14.674  0.3522  0.4131  0.4980
 6367TIP3    H140592   6.161   0.789  14.686 -0.5629  1.7095  1.3469
 6367TIP3    H240593   6.224   0.882  14.585  2.2890 -2.5027 -1.0491
 6368TIP3   OH240594   2.609   3.655   2.112 -0.1312 -0.4693 -0.0177
 6368TIP3    H140595   2.701   3.676   2.128 -1.0327  3.6353  0.8195
 6368TIP3    H240596   2.582   3.605   2.189  1.5770 -3.0486 -0.9201
 6369TIP3   OH240597   2.157   3.649   3.385  0.7001 -0.1410 -0.1389
 6369TIP3    H140598   2.221   3.580   3.401 -1.6711 -2.3682  0.5455
 6369TIP3    H240599   2.116   3.665   3.470 -0.0148  0.8174 -0.6311
 6370TIP3   OH240600   2.223   2.619  11.782 -0.2986 -0.2146 -0.4579
 6370TIP3    H140601   2.196   2.711  11.789 -0.2067 -0.2720  0.8397
 6370TIP3    H240602   2.141   2.570  11.778 -0.5587 -0.3807  3.3899
 6371TIP3   OH240603   2.654   0.564   3.311 -0.0085  0.6624 -0.3109
 6371TIP3    H140604   2.724   0.537   3.251 -0.1012 -1.5832  0.5058
 6371TIP3    H240605   2.698   0.578   3.394 -0.3702  0.4338 -0.0816
 6372TIP3   OH240606   5.773   0.605  14.289 -0.0119 -0.4593  0.3005
 6372TIP3    H140607   5.710   0.538  14.317  0.7307 -1.1028  0.4452
 6372TIP3    H240608   5.771   0.670  14.359  1.7021 -1.9643  1.8510
 6373TIP3   OH240609   3.835   2.073  16.448  0.1951  0.2717  0.0866
 6373TIP3    H140610   3.770   2.006  16.428  0.1848 -0.2678  1.7470
 6373TIP3    H240611   3.820   2.094  16.540  1.4886  1.1270  0.1279
 6374TIP3   OH240612   3.109   2.156   4.099  0.0205 -0.0110  0.1454
 6374TIP3    H140613   3.034   2.097   4.109  0.8525 -0.8310  2.0250
 6374TIP3    H240614   3.086   2.211   4.024 -1.9548 -0.9663 -0.0245
 6375TIP3   OH240615   5.054   3.595  15.267  0.4446 -0.2415  0.6600
 6375TIP3    H140616   5.066   3.603  15.362  0.2266 -0.9627  0.7529
 6375TIP3    H240617   4.988   3.526  15.257  0.8197 -0.5069 -0.0326
 6376TIP3   OH240618   6.824   5.695  15.451 -0.3905 -0.2889  0.4875
 6376TIP3    H140619   6.846   5.688  15.544 -1.3682 -0.5949  0.7088
 6376TIP3    H240620   6.751   5.634  15.439 -0.8187  0.3614 -0.3056
 6377TIP3   OH240621   1.291   3.517   2.265  0.1597 -0.1137  0.2307
 6377TIP3    H140622   1.357   3.568   2.218 -0.5979  1.4441  0.8013
 6377TIP3    H240623   1.341   3.447   2.308  1.1352 -0.2660 -1.1070
 6378TIP3   OH240624   2.722   2.169  16.899 -0.0713  0.1945 -0.4659
 6378TIP3    H140625   2.799   2.147  16.847 -1.0391 -0.5422 -1.6391
 6378TIP3    H240626   2.650   2.169  16.836 -1.2255 -0.3286  0.8133
 6379TIP3   OH240627   2.644   1.844   4.652 -0.5047  0.3723  0.2102
 6379TIP3    H140628   2.687   1.929   4.646  1.2642 -0.5564 -1.3605
 6379TIP3    H240629   2.629   1.818   4.561 -0.6735 -1.1623  0.6406
 6380TIP3   OH240630   1.772   5.858  10.765 -0.4062 -0.3851 -0.3365
 6380TIP3    H140631   1.865   5.879  10.766 -0.3291 -0.7198 -0.0343
 6380TIP3    H240632   1.738   5.899  10.686  0.6978 -3.3113 -2.5413
 6381TIP3   OH240633   1.916   6.294  13.140  0.2268  0.5013  0.5163
 6381TIP3    H140634   1.943   6.369  13.193  2.1385 -1.1280  1.9990
 6381TIP3    H240635   1.942   6.317  13.051  0.3334  1.7862  0.8611
 6382TIP3   OH240636   3.503   4.488   4.740 -0.3384  0.4692  0.0526
 6382TIP3    H140637   3.447   4.524   4.671  0.4973 -0.7211 -1.3173
 6382TIP3    H240638   3.460   4.407   4.766 -0.0933  0.3644  0.1373
 6383TIP3   OH240639   4.132   5.995   3.963  0.0832  0.6895 -0.0121
 6383TIP3    H140640   4.163   6.078   3.926  0.7381  0.8595  0.8935
 6383TIP3    H240641   4.072   6.020   4.033 -1.4497  0.3628 -1.1671
 6384TIP3   OH240642   2.535   2.864   6.230 -0.3793 -0.2034  0.1003
 6384TIP3    H140643   2.472   2.813   6.282 -0.8281 -0.1783 -0.4182
 6384TIP3    H240644   2.540   2.818   6.146 -0.9233  0.6962 -0.4429
 6385TIP3   OH240645   3.060   1.303   6.023  0.0446  0.4038  0.4238
 6385TIP3    H140646   3.151   1.313   5.995 -0.2758 -0.0585 -0.8463
 6385TIP3    H240647   3.064   1.309   6.119  1.2193  1.7889  0.3258
 6386TIP3   OH240648   3.072   0.344   1.275 -0.1770  0.3118  0.1384
 6386TIP3    H140649   3.047   0.426   1.319  0.7819  1.6222 -1.6195
 6386TIP3    H240650   3.150   0.315   1.322  0.5793  1.4437 -0.3867
 6387TIP3   OH240651   0.131   2.125   4.793  0.0885  0.4633  0.5208
 6387TIP3    H140652   0.065   2.169   4.740 -1.2217 -0.9482  0.9113
 6387TIP3    H240653   0.143   2.182   4.869 -2.1231 -0.1205  1.3903
 6388TIP3   OH240654   1.291   6.662   1.321  0.3167  0.5376 -0.5143
 6388TIP3    H140655   1.339   6.719   1.261 -0.3297  0.6281 -0.9518
 6388TIP3    H240656   1.223   6.718   1.359 -1.1244 -0.2175 -1.8749
 6389TIP3   OH240657   5.933   5.279   4.828 -0.2202 -0.3164 -0.0004
 6389TIP3    H140658   5.864   5.316   4.884  0.3343  0.2822  0.3040
 6389TIP3    H240659   5.889   5.210   4.779 -1.4192  1.0334 -0.9203
 6390TIP3   OH240660   4.937   6.435   5.385  0.1921 -0.0985  0.5730
 6390TIP3    H140661   4.961   6.423   5.293 -0.0181  1.8393  0.2170
 6390TIP3    H240662   4.843   6.452   5.383  0.1421 -0.2611  1.1858
 6391TIP3   OH240663   3.351   2.787  10.700 -0.2218  0.3223 -0.2892
 6391TIP3    H140664   3.420   2.720  10.699  0.4211  0.9717 -0.0111
 6391TIP3    H240665   3.379   2.851  10.635 -2.0525 -0.8365 -2.3960
 6392TIP3   OH240666   0.680   5.285   0.261  0.8311  0.0636  0.2341
 6392TIP3    H140667   0.716   5.312   0.176  1.4352 -1.0932  0.0917
 6392TIP3    H240668   0.679   5.189   0.256 -1.7088  0.0100  0.4811
 6393TIP3   OH240669   5.880   5.380   2.769  0.3120 -0.5213 -0.0489
 6393TIP3    H140670   5.930   5.424   2.700 -0.6081 -1.4314 -1.3398
 6393TIP3    H240671   5.916   5.416   2.851  3.2742 -1.3411 -0.8544
 6394TIP3   OH240672   2.694   1.888   1.457  0.1244  0.3993  0.4056
 6394TIP3    H140673   2.703   1.974   1.497  0.1499  2.0838 -2.8664
 6394TIP3    H240674   2.746   1.893   1.377 -0.9936 -2.1775 -0.6090
 6395TIP3   OH240675   1.266   2.509  16.179 -0.3405 -0.5637  1.0050
 6395TIP3    H140676   1.318   2.449  16.125  0.7084 -0.0751  1.4441
 6395TIP3    H240677   1.177   2.500  16.145 -0.1019 -1.8875  0.6410
 6396TIP3   OH240678   3.274   2.681  13.439  0.2826  0.0855  0.1703
 6396TIP3    H140679   3.350   2.626  13.454  1.1556  1.0127 -0.7440
 6396TIP3    H240680   3.208   2.622  13.402  1.0555 -0.4269 -0.4026
 6397TIP3   OH240681   2.768   1.248   1.423 -0.2084  0.1815 -0.3525
 6397TIP3    H140682   2.764   1.333   1.378 -1.6129  0.2690 -0.1170
 6397TIP3    H240683   2.753   1.184   1.354  1.6736  0.0274 -0.6821
 6398TIP3   OH240684   1.311   0.021  14.606 -0.3712  0.2956  0.1986
 6398TIP3    H140685   1.379   0.049  14.545  2.5036 -2.6014  1.7907
 6398TIP3    H240686   1.328   0.070  14.686 -0.7378  0.1854  0.3458
 6399TIP3   OH240687   0.906   4.677   1.206 -0.5128  0.1485 -0.0484
 6399TIP3    H140688   0.851   4.693   1.129  1.1430 -0.5707 -1.4365
 6399TIP3    H240689   0.901   4.582   1.219 -1.8011  0.3953  1.5694
 6400TIP3   OH240690   1.487   1.019  11.464 -0.1002  0.0947  0.3404
 6400TIP3    H140691   1.559   0.959  11.443 -0.7433 -0.5200 -0.1827
 6400TIP3    H240692   1.444   0.979  11.540 -0.3713  0.0186  0.1509
 6401TIP3   OH240693   0.677   3.207  14.446  1.1507 -0.6149 -0.3386
 6401TIP3    H140694   0.722   3.278  14.491  2.4502  0.4916 -3.1844
 6401TIP3    H240695   0.593   3.244  14.420 -0.0208 -1.5588  1.8579
 6402TIP3   OH240696   2.554   5.223  11.723 -0.6370 -0.7077  0.1078
 6402TIP3    H140697   2.505   5.280  11.664  1.3297  0.5586 -0.4094
 6402TIP3    H240698   2.523   5.135  11.702 -2.0177 -0.0461 -0.7849
 6403TIP3   OH240699   6.588   4.393  14.331  0.4970  0.2005  0.4233
 6403TIP3    H140700   6.536   4.410  14.252 -0.4913 -1.4528  0.6709
 6403TIP3    H240701   6.526   4.353  14.391  1.7245 -0.3984  1.3065
 6404TIP3   OH240702   1.714   6.308   3.414  0.0679 -0.4509 -0.0644
 6404TIP3    H140703   1.639   6.337   3.361 -0.4330 -1.3168  0.1474
 6404TIP3    H240704   1.679   6.237   3.468  0.4334  0.7240  1.8008
 6405TIP3   OH240705   4.763   3.688  11.592  0.4276  0.1830  0.1786
 6405TIP3    H140706   4.738   3.778  11.570 -0.1887  0.3620  1.4723
 6405TIP3    H240707   4.721   3.634  11.525  1.5166  0.8986 -1.1247
 6406TIP3   OH240708   4.176   4.890  15.765  0.6545 -0.1027 -0.3291
 6406TIP3    H140709   4.182   4.944  15.844 -0.1665  1.5919 -1.3706
 6406TIP3    H240710   4.184   4.800  15.797 -0.2929  0.4983  1.7712
 6407TIP3   OH240711   1.949   3.192  11.978  0.0418  0.5095  0.0201
 6407TIP3    H140712   2.000   3.255  12.030 -0.9452  0.9571  0.4741
 6407TIP3    H240713   1.992   3.108  11.994  0.2638  0.7797  0.8979
 6408TIP3   OH240714   2.439   6.487  15.394  0.2216  0.1641 -0.3182
 6408TIP3    H140715   2.363   6.539  15.367 -0.0046 -0.2998 -0.5752
 6408TIP3    H240716   2.402   6.410  15.436  0.5706  0.6158  0.8486
 6409TIP3   OH240717   5.523   0.422   6.607 -0.0758 -0.7617 -0.1683
 6409TIP3    H140718   5.616   0.420   6.585  0.5441  1.2193  1.8970
 6409TIP3    H240719   5.514   0.358   6.678 -0.2492 -0.7728 -0.2006
 6410TIP3   OH240720   3.856   2.000   3.982 -0.0732 -0.3259  0.3168
 6410TIP3    H140721   3.827   1.954   3.903  1.6930 -0.7372 -0.1272
 6410TIP3    H240722   3.779   2.050   4.010 -0.8155 -0.3732 -1.5153
 6411TIP3   OH240723   2.641   5.527  13.149  0.2117  0.1833  0.1267
 6411TIP3    H140724   2.601   5.501  13.066 -0.7592  2.1501 -0.0879
 6411TIP3    H240725   2.667   5.444  13.190 -1.5400 -1.0089 -1.0194
 6412TIP3   OH240726   2.205   4.766   1.987  0.1548  0.3178  0.2688
 6412TIP3    H140727   2.220   4.715   1.907  0.8090  0.1448  0.4951
 6412TIP3    H240728   2.111   4.786   1.986 -0.0134 -0.4604 -0.0777
 6413TIP3   OH240729   1.745   3.934   5.258 -0.6065 -0.0899 -0.6213
 6413TIP3    H140730   1.699   3.852   5.243 -0.2486 -0.3823 -0.1599
 6413TIP3    H240731   1.769   3.931   5.351  0.2663  0.0939 -0.8391
 6414TIP3   OH240732   3.266   2.371  15.886 -0.3502 -0.3183  0.3333
 6414TIP3    H140733   3.341   2.384  15.827 -0.1806 -0.3739  0.5372
 6414TIP3    H240734   3.305   2.367  15.973 -0.5754 -0.5239  0.4220
 6415TIP3   OH240735   2.482   3.673  12.254  0.0108  0.2269 -0.1571
 6415TIP3    H140736   2.475   3.729  12.332  0.0968  0.1799 -0.1158
 6415TIP3    H240737   2.406   3.697  12.201  0.4152  0.8804 -0.4619
 6416TIP3   OH240738   2.319   2.608  16.132 -0.4164 -0.2048  0.0807
 6416TIP3    H140739   2.293   2.693  16.166 -0.0127 -1.1087  2.8498
 6416TIP3    H240740   2.412   2.601  16.152 -0.1220 -0.7705 -1.3635
 6417TIP3   OH240741   1.488   1.881  10.975 -0.0061 -0.2928 -0.5772
 6417TIP3    H140742   1.462   1.800  11.019  0.4384  0.3123  0.8493
 6417TIP3    H240743   1.554   1.855  10.911  1.2706 -0.8874  0.9306
 6418TIP3   OH240744   5.516   5.779   0.257  0.3162  0.3572  0.5473
 6418TIP3    H140745   5.571   5.857   0.255  0.0861  0.5156 -1.2271
 6418TIP3    H240746   5.541   5.734   0.337 -0.8734  3.1644  2.6665
 6419TIP3   OH240747   2.979   4.142  16.185 -0.3383 -0.4402 -0.5718
 6419TIP3    H140748   2.979   4.070  16.248 -0.0476 -0.4586 -0.5920
 6419TIP3    H240749   3.072   4.166  16.176 -0.5739  1.5265  1.2795
 6420TIP3   OH240750   1.050   6.583   6.063  0.6367  0.5241  0.0310
 6420TIP3    H140751   1.086   6.575   6.151 -1.3381  2.8258  1.1825
 6420TIP3    H240752   0.977   6.521   6.062  1.4780 -0.4903 -0.5205
 6421TIP3   OH240753   3.269   4.539   1.161  0.0837  0.4283  0.6426
 6421TIP3    H140754   3.186   4.585   1.146  0.5932  0.7825 -1.4116
 6421TIP3    H240755   3.332   4.608   1.179  0.4495  0.3965 -0.4564
 6422TIP3   OH240756   0.424   0.292  14.145  0.1808  0.1418  0.0309
 6422TIP3    H140757   0.375   0.374  14.154  1.0588  0.5141  1.7855
 6422TIP3    H240758   0.482   0.290  14.221 -0.4603 -2.5581  0.5659
 6423TIP3   OH240759   4.258   0.099  13.696  0.4262  0.4088 -0.2737
 6423TIP3    H140760   4.296   0.014  13.674  0.4433  0.7880 -1.8142
 6423TIP3    H240761   4.189   0.079  13.759  1.8325 -0.5020  1.0385
 6424TIP3   OH240762   5.182   5.564   3.494  0.0903  0.2267 -0.1999
 6424TIP3    H140763   5.131   5.539   3.571  1.0839 -2.0166 -0.1769
 6424TIP3    H240764   5.230   5.642   3.521  2.4627 -1.9347  2.5542
 6425TIP3   OH240765   4.904   1.393   4.766 -0.0887 -0.3286 -0.0212
 6425TIP3    H140766   4.978   1.333   4.777  0.8654  0.6596 -0.7768
 6425TIP3    H240767   4.938   1.478   4.793 -1.7122 -0.2436  1.9872
 6426TIP3   OH240768   2.481   3.211  13.597 -0.0804  0.3773  0.0078
 6426TIP3    H140769   2.559   3.168  13.562  0.6499  1.1942  0.5879
 6426TIP3    H240770   2.455   3.273  13.529  0.0764  0.4590  0.0226
 6427TIP3   OH240771   4.991   1.116  13.880 -0.5222 -0.0519  0.4876
 6427TIP3    H140772   4.922   1.089  13.818 -0.2067 -0.1539  0.1760
 6427TIP3    H240773   4.948   1.179  13.937 -0.6523  0.5283 -0.2409
 6428TIP3   OH240774   5.835   0.046   1.831 -0.0239  0.1390  0.1815
 6428TIP3    H140775   5.884   0.104   1.890  0.8171 -1.3976  1.0323
 6428TIP3    H240776   5.757   0.022   1.880 -0.1137  0.1235  0.0307
 6429TIP3   OH240777   0.978   6.361  16.214  1.1088 -0.0289  0.0707
 6429TIP3    H140778   0.937   6.364  16.128 -1.8116 -0.1176  1.3454
 6429TIP3    H240779   0.987   6.267  16.232  0.1368 -0.0520  0.5088
 6430TIP3   OH240780   4.020   3.933  17.167 -0.1366  0.3174 -0.4258
 6430TIP3    H140781   3.944   3.954  17.113  0.8468  0.2638 -1.8817
 6430TIP3    H240782   4.083   4.003  17.150  0.4973 -0.1233  0.0267
 6431TIP3   OH240783   0.964   0.524  13.858  0.4530  0.0493  0.6221
 6431TIP3    H140784   0.883   0.476  13.874 -0.0721  0.9870  0.8723
 6431TIP3    H240785   0.954   0.558  13.769 -0.2705  1.7221  1.3116
 6432TIP3   OH240786   2.672   3.218   1.521  0.5217  0.4407  0.4831
 6432TIP3    H140787   2.650   3.129   1.547 -0.4897 -0.0542 -1.8520
 6432TIP3    H240788   2.758   3.234   1.561 -0.5573 -0.4363  3.3709
 6433TIP3   OH240789   3.098   1.248  15.259 -0.0583  0.3353 -0.0007
 6433TIP3    H140790   3.035   1.181  15.233  0.1278 -0.5501  1.6828
 6433TIP3    H240791   3.044   1.320  15.292 -0.2343  0.6991 -1.0472
 6434TIP3   OH240792   0.948   2.098  11.710  0.0108 -0.6728  0.2091
 6434TIP3    H140793   0.900   2.158  11.767  0.9524 -1.5646  2.0102
 6434TIP3    H240794   1.033   2.141  11.697  0.7460 -1.6407  1.6314
 6435TIP3   OH240795   1.991   3.881  14.840 -0.2182  0.1981 -0.2714
 6435TIP3    H140796   2.010   3.813  14.774  0.5583  0.9937 -0.8940
 6435TIP3    H240797   2.063   3.873  14.903 -0.2109  0.3405 -0.2622
 6436TIP3   OH240798   4.417   3.971  16.250 -0.0320 -0.7314 -0.6542
 6436TIP3    H140799   4.445   3.901  16.191  2.9190 -0.0975 -0.1407
 6436TIP3    H240800   4.344   3.933  16.298 -2.0619 -1.5408 -4.0429
 6437TIP3   OH240801   6.344   3.704   3.948 -0.9248 -0.4497 -0.0165
 6437TIP3    H140802   6.391   3.697   3.865  0.2192 -1.3618  0.6652
 6437TIP3    H240803   6.370   3.788   3.984 -2.0793  0.3323 -0.9320
 6438TIP3   OH240804   0.392   1.235   5.703 -0.0494  0.2992  0.0665
 6438TIP3    H140805   0.334   1.282   5.763 -1.4837  0.1819 -1.1693
 6438TIP3    H240806   0.471   1.288   5.699 -0.4316  0.9614  1.0836
 6439TIP3   OH240807   0.495   4.232  12.943  0.4699 -0.7123  0.0297
 6439TIP3    H140808   0.494   4.137  12.939 -0.5413 -0.6940 -0.4330
 6439TIP3    H240809   0.556   4.258  12.874  0.6246 -1.0161  0.0499
 6440TIP3   OH240810   2.977   2.095  10.552  0.4357 -0.3852  0.0810
 6440TIP3    H140811   2.989   2.006  10.518  1.1450 -0.2932  0.0607
 6440TIP3    H240812   2.969   2.083  10.647  2.8442 -0.3193  0.3522
 6441TIP3   OH240813   1.422   5.317   1.756 -0.2274  0.4896 -0.2313
 6441TIP3    H140814   1.466   5.309   1.671 -0.7946  0.0250 -0.4890
 6441TIP3    H240815   1.484   5.279   1.818  1.0441  2.5749 -0.1151
 6442TIP3   OH240816   5.263   6.307  12.248  0.5114  0.0634  0.3528
 6442TIP3    H140817   5.291   6.220  12.221  1.3673  0.3410  0.3169
 6442TIP3    H240818   5.175   6.295  12.283  0.4173 -0.7260 -0.1435
 6443TIP3   OH240819   2.366   1.447  13.973 -0.2660 -0.5370  0.6547
 6443TIP3    H140820   2.288   1.501  13.966  0.1206 -0.1456 -0.9682
 6443TIP3    H240821   2.426   1.497  14.028  0.5502  1.3395 -1.7789
 6444TIP3   OH240822   2.876   4.323   4.729  0.3129  0.3591  0.1071
 6444TIP3    H140823   2.810   4.370   4.779  0.4268  2.5165 -1.5722
 6444TIP3    H240824   2.830   4.291   4.652  0.5206 -1.2416  0.6250
 6445TIP3   OH240825   5.022   6.116   2.717  0.0022  0.1636  0.6230
 6445TIP3    H140826   4.984   6.204   2.709 -0.2122  0.1241  1.2300
 6445TIP3    H240827   5.109   6.131   2.755 -0.0422  0.1044  0.7438
 6446TIP3   OH240828   6.568   1.376   5.608  0.4456  0.7245 -0.1147
 6446TIP3    H140829   6.525   1.442   5.554 -0.1117 -1.0048 -1.9096
 6446TIP3    H240830   6.531   1.388   5.695 -2.0765  0.7295 -1.1052
 6447TIP3   OH240831   4.754   3.710  15.231 -0.5378 -0.2045 -0.4261
 6447TIP3    H140832   4.812   3.648  15.276 -1.0544 -0.1406  0.3326
 6447TIP3    H240833   4.728   3.664  15.151 -0.6898 -0.8517 -0.0082
 6448TIP3   OH240834   2.820   3.101  11.685  0.0491 -0.1828 -0.6258
 6448TIP3    H140835   2.738   3.060  11.660 -0.4594  1.0057 -0.9669
 6448TIP3    H240836   2.860   3.128  11.602 -0.3090  1.2658 -0.3580
 6449TIP3   OH240837   2.284   3.018  11.173 -0.4640 -0.0821 -0.6418
 6449TIP3    H140838   2.272   3.095  11.118  0.6026  0.8734  0.4417
 6449TIP3    H240839   2.231   3.035  11.251  0.3710 -0.0929 -0.0628
 6450TIP3   OH240840   4.446   4.377   1.098 -0.0808  0.1700  0.2087
 6450TIP3    H140841   4.476   4.412   1.014 -0.6250 -1.2748 -0.6023
 6450TIP3    H240842   4.409   4.453   1.144 -0.7588  0.7711 -1.2889
 6451TIP3   OH240843   1.775   2.759   2.671 -0.5378 -0.0996  1.2716
 6451TIP3    H140844   1.769   2.759   2.766 -0.7071 -1.3075  1.2665
 6451TIP3    H240845   1.735   2.677   2.644 -1.3551  0.6500  0.0893
 6452TIP3   OH240846   4.838   3.389   1.975 -0.0292  0.7119  0.0371
 6452TIP3    H140847   4.797   3.339   2.045  0.0736 -0.1263 -0.4961
 6452TIP3    H240848   4.868   3.324   1.912 -0.6102  1.4676 -1.0685
 6453TIP3   OH240849   1.933   2.040   0.588 -0.4753 -0.3419  0.2361
 6453TIP3    H140850   1.898   2.086   0.664  0.8489 -2.4887  2.3196
 6453TIP3    H240851   1.972   2.108   0.534 -1.9913  1.3354  1.1613
 6454TIP3   OH240852   1.620   6.090  12.045  0.2178 -0.1067 -0.8459
 6454TIP3    H140853   1.611   6.168  12.100  0.5717 -0.0241 -0.9021
 6454TIP3    H240854   1.592   6.119  11.959 -1.9290 -0.6652 -0.3850
 6455TIP3   OH240855   0.295   2.831   4.299  0.0667 -0.0475 -0.2495
 6455TIP3    H140856   0.312   2.923   4.318 -0.6497 -0.4591  3.1786
 6455TIP3    H240857   0.200   2.825   4.292 -0.1478 -0.7905  2.2006
 6456TIP3   OH240858   1.657   2.505  16.286  0.2186  0.4043 -0.3629
 6456TIP3    H140859   1.716   2.580  16.299  0.4880  0.5835 -2.2815
 6456TIP3    H240860   1.644   2.502  16.191  0.0215 -1.8614 -0.3005
 6457TIP3   OH240861   2.331   5.242  15.975 -0.5560  0.0237 -0.1600
 6457TIP3    H140862   2.312   5.336  15.978 -0.5143  0.0502 -0.6734
 6457TIP3    H240863   2.422   5.237  15.944 -0.5412 -0.1858 -0.0830
 6458TIP3   OH240864   1.693   4.018  11.296 -0.3767  0.7911 -0.1377
 6458TIP3    H140865   1.626   4.040  11.361 -0.8223  0.1637 -0.3726
 6458TIP3    H240866   1.647   3.964  11.231  0.8422 -1.6828  0.9032
 6459TIP3   OH240867   1.780   1.950   2.225  0.1829 -0.0547 -0.5253
 6459TIP3    H140868   1.843   1.896   2.177 -0.4373 -0.5747 -0.7696
 6459TIP3    H240869   1.718   1.887   2.262  0.5403  0.3444  0.8126
 6460TIP3   OH240870   1.881   1.015   5.622 -0.2525  0.2072  0.1944
 6460TIP3    H140871   1.791   1.048   5.617 -0.9141 -1.4257  0.5387
 6460TIP3    H240872   1.912   1.041   5.708  0.6476  3.1392 -0.8972
 6461TIP3   OH240873   2.213   3.278  10.998 -0.3333  0.3634 -0.8014
 6461TIP3    H140874   2.133   3.226  10.994 -0.8547  0.6252  2.7425
 6461TIP3    H240875   2.183   3.369  10.997 -0.3211  0.4666  1.8484
 6462TIP3   OH240876   2.001   1.600   5.644 -0.1211  0.7941  0.3208
 6462TIP3    H140877   2.017   1.600   5.549  0.0282  0.9354  0.3440
 6462TIP3    H240878   1.970   1.512   5.664 -2.8852  1.5363 -0.3243
 6463TIP3   OH240879   4.023   2.271  15.042  0.1192  0.3764 -0.3374
 6463TIP3    H140880   3.931   2.251  15.022 -0.2659  2.6122 -1.0637
 6463TIP3    H240881   4.052   2.325  14.968  2.1865 -0.6756 -0.3513
 6464TIP3   OH240882   2.603   2.458  11.199 -0.1887  0.1184 -0.4879
 6464TIP3    H140883   2.552   2.528  11.160  0.3824  0.1617 -1.1722
 6464TIP3    H240884   2.613   2.393  11.130 -1.3286 -0.9958  0.3459
 6465TIP3   OH240885   1.953   2.726  13.862 -0.3644  0.4742  0.1079
 6465TIP3    H140886   1.869   2.692  13.831 -0.0371 -2.6578  2.1387
 6465TIP3    H240887   1.930   2.799  13.919 -1.3930  1.8025 -1.9024
 6466TIP3   OH240888   0.171   6.206   0.314 -0.1339  0.8601 -0.6483
 6466TIP3    H140889   0.137   6.213   0.403  2.6933  1.7007  0.4639
 6466TIP3    H240890   0.219   6.123   0.312  1.5659  1.8026 -0.6785
 6467TIP3   OH240891   3.179   4.631   4.266 -0.3015  0.0388  0.0806
 6467TIP3    H140892   3.212   4.650   4.178  1.0857 -1.4619  0.2339
 6467TIP3    H240893   3.088   4.605   4.252 -0.3587  0.6603 -0.7906
 6468TIP3   OH240894   1.377   3.964  11.485  0.4163  0.0216  0.0820
 6468TIP3    H140895   1.300   3.932  11.532  0.7984 -0.1597  0.5969
 6468TIP3    H240896   1.433   3.887  11.474  0.2371  0.0141 -0.8830
 6469TIP3   OH240897   1.103   5.825  11.544  0.5306 -0.2844 -0.1515
 6469TIP3    H140898   1.116   5.773  11.465 -1.9818 -2.5484  0.7817
 6469TIP3    H240899   1.040   5.892  11.519  1.5105  0.4969 -0.6011
 6470TIP3   OH240900   2.418   5.059  14.244 -0.3432  0.2163 -0.1414
 6470TIP3    H140901   2.379   4.979  14.278 -1.9258  0.1217 -2.0452
 6470TIP3    H240902   2.511   5.053  14.268 -0.6316 -1.6992  0.6013
 6471TIP3   OH240903   2.298   4.315   6.143  0.7689  0.0277  0.2631
 6471TIP3    H140904   2.261   4.231   6.172 -0.0452  0.0953 -0.5289
 6471TIP3    H240905   2.312   4.364   6.224 -0.1088 -0.3286  0.6438
 6472TIP3   OH240906   3.428   0.313  10.661  0.5544  0.0635 -0.0711
 6472TIP3    H140907   3.437   0.290  10.569  0.7480 -4.0612  0.7642
 6472TIP3    H240908   3.337   0.292  10.682  1.0117 -0.9584  1.0259
 6473TIP3   OH240909   0.425   5.333   5.179 -0.0595  0.1045  0.4985
 6473TIP3    H140910   0.436   5.389   5.256  0.0015 -0.2530  0.7523
 6473TIP3    H240911   0.504   5.279   5.177  0.6628  1.1265 -0.6795
 6474TIP3   OH240912   3.294   0.241  12.188 -0.2240 -0.0741 -0.0623
 6474TIP3    H140913   3.292   0.158  12.142 -0.6393 -0.6638  0.9728
 6474TIP3    H240914   3.345   0.224  12.267  0.9624  1.0595 -0.5339
 6475TIP3   OH240915   5.816   2.333   4.807 -0.2341 -0.4617 -0.5738
 6475TIP3    H140916   5.777   2.272   4.744  1.3405 -1.2966 -0.7877
 6475TIP3    H240917   5.832   2.413   4.757 -1.2681 -0.2283 -0.5709
 6476TIP3   OH240918   2.619   6.546  16.195  0.3863  0.0745  0.2421
 6476TIP3    H140919   2.645   6.637  16.208  0.8948 -0.2014  1.3252
 6476TIP3    H240920   2.530   6.541  16.231 -0.2808  0.4767 -1.2688
 6477TIP3   OH240921   3.670   4.469   1.498  0.0941  0.0248  0.4069
 6477TIP3    H140922   3.753   4.436   1.531 -0.1466  0.3613  1.4026
 6477TIP3    H240923   3.670   4.562   1.523  0.5068  0.6797 -1.8090
 6478TIP3   OH240924   3.553   2.365  12.519 -0.1544  0.0830  0.0104
 6478TIP3    H140925   3.571   2.454  12.549 -1.2091  0.0976  0.6567
 6478TIP3    H240926   3.613   2.351  12.446  0.8570  0.8890  0.6639
 6479TIP3   OH240927   2.528   0.523   6.128  0.0557 -0.4008 -0.6703
 6479TIP3    H140928   2.437   0.499   6.144 -0.0271  0.3118 -0.0634
 6479TIP3    H240929   2.576   0.440   6.134 -0.5726 -0.8215 -1.2516
 6480TIP3   OH240930   5.042   2.700   1.070  0.1350  0.4611 -0.0025
 6480TIP3    H140931   4.983   2.664   1.136 -0.1960  0.6712 -0.1822
 6480TIP3    H240932   5.129   2.686   1.105 -0.0425  0.6147  0.4992
 6481TIP3   OH240933   2.164   2.194  13.307 -0.1461 -0.5563  0.2002
 6481TIP3    H140934   2.090   2.134  13.318 -1.7756  1.5460  1.5455
 6481TIP3    H240935   2.142   2.246  13.229 -0.3884  0.3988  0.8769
 6482TIP3   OH240936   6.476   4.367   5.068 -0.4604 -0.1691 -0.0111
 6482TIP3    H140937   6.460   4.356   5.162  1.1274 -0.1752  0.2844
 6482TIP3    H240938   6.568   4.391   5.062 -0.5222 -0.2250 -1.5817
 6483TIP3   OH240939   2.536   3.196  17.070  0.0844  0.2172 -0.2445
 6483TIP3    H140940   2.553   3.248  17.149 -0.5443 -1.1536  0.8470
 6483TIP3    H240941   2.495   3.257  17.009  1.0384  1.4327  0.2932
 6484TIP3   OH240942   5.015   2.145   3.006  0.3074  0.6521  0.1665
 6484TIP3    H140943   4.988   2.227   2.965 -2.6282  0.3180  1.1613
 6484TIP3    H240944   5.033   2.086   2.933 -1.6952  0.9996 -0.6735
 6485TIP3   OH240945   5.324   0.995  11.764 -0.3426 -0.3823  0.4718
 6485TIP3    H140946   5.351   0.904  11.778  0.0275 -0.2744  0.4641
 6485TIP3    H240947   5.229   0.990  11.752 -0.0754 -1.0825 -2.0106
 6486TIP3   OH240948   6.736   5.609   1.333  0.2442 -0.3749  0.1796
 6486TIP3    H140949   6.817   5.655   1.313 -1.9452  2.5200 -3.2194
 6486TIP3    H240950   6.731   5.539   1.268 -1.0932  1.1177 -1.3979
 6487TIP3   OH240951   3.161   2.092  14.790  0.7171 -0.2783  0.4980
 6487TIP3    H140952   3.237   2.096  14.849  2.1918  1.5309 -1.3825
 6487TIP3    H240953   3.178   2.159  14.724 -1.4208 -1.4245 -1.3560
 6488TIP3   OH240954   3.240   1.999  10.800  0.1394  0.0808  0.4412
 6488TIP3    H140955   3.292   2.008  10.880 -0.4377  0.0827  0.8309
 6488TIP3    H240956   3.277   2.061  10.739  3.0057 -2.4513 -0.6336
 6489TIP3   OH240957   1.160   5.210  12.247 -0.0234 -0.3634  0.5741
 6489TIP3    H140958   1.222   5.162  12.303 -0.4421 -0.9026  0.5847
 6489TIP3    H240959   1.185   5.183  12.158  1.7855  1.8301  0.3263
 6490TIP3   OH240960   5.283   2.761  11.513  0.2277 -0.0879 -0.2169
 6490TIP3    H140961   5.233   2.773  11.433 -0.3765  1.9492  0.4076
 6490TIP3    H240962   5.218   2.740  11.580  0.6045 -0.7847 -0.0661
 6491TIP3   OH240963   6.100   0.868   4.100 -0.2792  0.0122  0.4368
 6491TIP3    H140964   6.192   0.859   4.073 -0.4790 -1.7008  0.2444
 6491TIP3    H240965   6.076   0.956   4.070  1.1582  0.3263  0.0866
 6492TIP3   OH240966   2.769   4.130   6.273 -0.5226  0.4696  0.2282
 6492TIP3    H140967   2.863   4.144   6.263 -0.5892  1.3914  0.8081
 6492TIP3    H240968   2.758   4.105   6.365 -0.7771 -0.3215 -0.0054
 6493TIP3   OH240969   0.095   2.932  16.752 -0.3580 -0.3192 -0.2735
 6493TIP3    H140970   0.047   2.895  16.826 -0.6562  2.2083  0.8891
 6493TIP3    H240971   0.048   2.901  16.675 -1.7655 -0.7192  0.7069
 6494TIP3   OH240972   3.251   5.291  12.865  0.3399 -0.2710  0.1425
 6494TIP3    H140973   3.312   5.318  12.934  0.9268  0.1246 -0.5223
 6494TIP3    H240974   3.177   5.253  12.913  1.2186 -1.0327  0.9581
 6495TIP3   OH240975   2.302   1.680  11.567  0.2767 -0.0269 -0.1285
 6495TIP3    H140976   2.360   1.635  11.628 -1.7941 -0.0160  1.9838
 6495TIP3    H240977   2.225   1.623  11.561 -0.2590  0.7946 -1.4460
 6496TIP3   OH240978   0.573   3.987   0.494  0.2707  0.4186  0.0897
 6496TIP3    H140979   0.549   3.898   0.520  0.6237  0.6969  1.4505
 6496TIP3    H240980   0.660   3.977   0.455  0.1380  0.1198 -0.1379
 6497TIP3   OH240981   6.703   4.846  11.297  0.4197 -0.3950 -0.5596
 6497TIP3    H140982   6.649   4.883  11.227  0.1328  0.8640  0.2993
 6497TIP3    H240983   6.785   4.894  11.292  0.7501 -0.9649 -0.6273
 6498TIP3   OH240984   2.219   1.602   0.985  0.1875  0.1858 -0.2820
 6498TIP3    H140985   2.223   1.655   1.065  1.3340  0.1175 -0.2728
 6498TIP3    H240986   2.127   1.603   0.959 -0.3814 -0.6121  1.5788
 6499TIP3   OH240987   2.276   3.448  11.913  0.0308 -0.6186  0.2077
 6499TIP3    H140988   2.323   3.398  11.980  0.2891 -0.1794  0.3598
 6499TIP3    H240989   2.199   3.481  11.958 -0.2366 -1.0301  0.0576
 6500TIP3   OH240990   5.735   4.858  16.488  1.1793  0.7142 -0.1531
 6500TIP3    H140991   5.669   4.905  16.540  1.1100 -0.3261  0.7375
 6500TIP3    H240992   5.700   4.769  16.480  1.0137  0.9439 -2.3309
 6501TIP3   OH240993   6.506   2.033  13.041  0.4577 -0.5780  0.0514
 6501TIP3    H140994   6.420   2.075  13.051  0.7720 -0.1762  1.2497
 6501TIP3    H240995   6.486   1.946  13.005 -0.3730 -0.1853 -0.4711
 6502TIP3   OH240996   1.371   4.024  13.434 -0.2513 -1.0200 -0.2384
 6502TIP3    H140997   1.362   4.071  13.517  2.2305  1.0434 -1.0237
 6502TIP3    H240998   1.425   3.948  13.455  0.2963 -0.5552  0.0461
 6503TIP3   OH240999   0.333   4.353  10.977  0.7555 -0.0254 -0.0212
 6503TIP3    H141000   0.354   4.412  11.049  0.5941  0.9014 -0.7224
 6503TIP3    H241001   0.414   4.346  10.927  0.5859  0.1416 -0.3201
 6504TIP3   OH241002   5.064   4.220  12.730 -0.0706  0.3671 -0.1908
 6504TIP3    H141003   5.064   4.187  12.820  2.9500 -1.0020 -0.5628
 6504TIP3    H241004   5.151   4.260  12.719 -0.6925  1.2984 -2.2460
 6505TIP3   OH241005   5.988   2.577   0.421 -0.0259  0.0531 -0.2637
 6505TIP3    H141006   6.011   2.514   0.489  1.5217 -0.7373 -1.4676
 6505TIP3    H241007   5.936   2.643   0.467  0.5745 -0.6866  1.5845
 6506TIP3   OH241008   3.410   2.968  14.708  0.0753  0.2430 -0.3296
 6506TIP3    H141009   3.342   2.911  14.674  0.1654  0.0803 -0.2388
 6506TIP3    H241010   3.472   2.909  14.751  0.3635  0.3676 -0.5626
 6507TIP3   OH241011   5.936   5.333  12.216 -0.4268 -0.0197 -0.1739
 6507TIP3    H141012   5.977   5.412  12.251 -0.7486  0.4055 -0.7362
 6507TIP3    H241013   5.930   5.274  12.291  1.5978 -0.2769 -0.1488
 6508TIP3   OH241014   5.184   0.345  10.580 -0.2944  0.0779 -0.0999
 6508TIP3    H141015   5.112   0.285  10.565  0.5863 -1.0061 -0.0937
 6508TIP3    H241016   5.262   0.290  10.582  0.5706  1.2465 -0.3422
 6509TIP3   OH241017   1.389   6.102  14.171  0.7972  0.3600  0.7089
 6509TIP3    H141018   1.467   6.056  14.204  0.1899  0.5746  2.5479
 6509TIP3    H241019   1.316   6.061  14.217 -0.2931 -0.2527 -1.4358
 6510TIP3   OH241020   5.603   2.946   3.513  0.1296  0.7732 -0.4594
 6510TIP3    H141021   5.659   3.000   3.568  1.4827 -0.6015 -0.4229
 6510TIP3    H241022   5.593   2.997   3.432 -0.0010  1.7923  0.1829
 6511TIP3   OH241023   3.988   1.428   2.304 -0.0450 -0.2858 -0.0306
 6511TIP3    H141024   3.998   1.380   2.222  0.7779 -1.0216  0.4851
 6511TIP3    H241025   4.077   1.433   2.340 -0.2327  0.9538  0.3082
 6512TIP3   OH241026   1.776   6.457   1.386 -0.1153 -0.0272 -0.7010
 6512TIP3    H141027   1.839   6.502   1.442 -1.0696 -0.3582  0.6842
 6512TIP3    H241028   1.780   6.505   1.303  1.8610  0.0235 -0.6250
 6513TIP3   OH241029   1.270   4.410  12.196  0.0071  0.5407  0.0007
 6513TIP3    H141030   1.342   4.380  12.250  1.0404  0.9208 -1.1261
 6513TIP3    H241031   1.258   4.502  12.221  0.5778  0.7563 -0.4998
 6514TIP3   OH241032   0.922   5.786  16.257  0.0947  0.1997  0.7447
 6514TIP3    H141033   0.966   5.868  16.237 -1.2291  1.3378  2.2336
 6514TIP3    H241034   0.834   5.796  16.220  0.0962 -0.7828  0.4447
 6515TIP3   OH241035   1.294   6.653  13.920 -0.2886 -0.7342  0.1300
 6515TIP3    H141036   1.209   6.697  13.928 -0.0807  0.3036 -2.3627
 6515TIP3    H241037   1.305   6.641  13.826  2.3271 -0.8516  0.4020
 6516TIP3   OH241038   5.593   1.679  10.848  0.2094 -0.1726 -0.0153
 6516TIP3    H141039   5.560   1.633  10.925 -1.1873  1.2607  0.2862
 6516TIP3    H241040   5.517   1.725  10.812  1.1250  0.2861 -1.4639
 6517TIP3   OH241041   0.390   5.226  16.763 -0.5529  0.1722 -0.3617
 6517TIP3    H141042   0.318   5.243  16.702 -1.8277 -2.1395  0.3873
 6517TIP3    H241043   0.368   5.142  16.803  0.4130  1.3894  3.0475
 6518TIP3   OH241044   2.171   5.034   5.099  0.1716 -0.4956 -0.0228
 6518TIP3    H141045   2.182   4.991   5.014 -2.0457 -0.2128 -0.5163
 6518TIP3    H241046   2.077   5.029   5.116  0.0067  2.7590  0.6414
 6519TIP3   OH241047   4.736   4.263   1.680  0.7778 -0.2820  0.6737
 6519TIP3    H141048   4.703   4.352   1.691  1.0744  0.1115 -1.1759
 6519TIP3    H241049   4.781   4.265   1.595  2.0838 -1.8172  1.2706
 6520TIP3   OH241050   1.782   6.595   0.166  0.0506  0.0091  0.1657
 6520TIP3    H141051   1.780   6.504   0.135 -1.0841  0.1631 -0.2780
 6520TIP3    H241052   1.717   6.640   0.111  0.7319  1.1325  0.2490
 6521TIP3   OH241053   4.603   4.282  12.583 -0.6821  0.6363  0.0280
 6521TIP3    H141054   4.624   4.252  12.671  0.3229  0.0031 -0.4080
 6521TIP3    H241055   4.682   4.264  12.532 -1.4908  0.3338 -1.1651
 6522TIP3   OH241056   2.514   6.595  15.756 -0.9605 -0.2053  0.7688
 6522TIP3    H141057   2.428   6.636  15.768 -0.4557  0.4028  2.6583
 6522TIP3    H241058   2.528   6.598  15.661 -2.4646  0.8569  0.5302
 6523TIP3   OH241059   3.699   5.140   4.957  0.7290 -0.0404 -0.0420
 6523TIP3    H141060   3.611   5.163   4.986  0.9790 -1.5656  2.1611
 6523TIP3    H241061   3.717   5.200   4.884 -1.6178  1.1432  0.2686
 6524TIP3   OH241062   6.401   2.391  13.004 -0.5510  0.0270  0.2016
 6524TIP3    H141063   6.355   2.314  12.971 -1.0059  0.8416 -1.1326
 6524TIP3    H241064   6.389   2.386  13.099  1.3823 -2.7386  0.4221
 6525TIP3   OH241065   4.969   0.174  14.529  0.2079  0.4966 -1.0689
 6525TIP3    H141066   4.946   0.255  14.485 -0.6920  0.2658 -1.0392
 6525TIP3    H241067   4.988   0.112  14.458 -0.3836  0.3703 -1.1196
 6526TIP3   OH241068   0.406   1.557  16.010  0.2334  0.3384  0.2851
 6526TIP3    H141069   0.386   1.468  16.040  2.1314 -0.4951 -0.7361
 6526TIP3    H241070   0.400   1.551  15.915  1.4347  1.0054  0.1546
 6527TIP3   OH241071   0.761   5.020   4.031  0.2308  0.2080 -0.3240
 6527TIP3    H141072   0.851   5.017   4.061 -0.4338 -1.8005  1.7014
 6527TIP3    H241073   0.715   5.071   4.097 -0.1681  1.1846 -1.3219
 6528TIP3   OH241074   2.212   0.349  17.057  0.0969  0.2601 -0.3611
 6528TIP3    H141075   2.183   0.440  17.059 -1.1448 -0.0891  1.9251
 6528TIP3    H241076   2.211   0.325  16.965  0.5993  2.5870 -1.0291
 6529TIP3   OH241077   5.000   6.464   4.795 -0.3111  0.1601 -0.3210
 6529TIP3    H141078   5.058   6.439   4.723 -0.8894 -0.2759 -0.6434
 6529TIP3    H241079   4.931   6.516   4.753 -2.0202 -2.1070 -0.5468
 6530TIP3   OH241080   5.902   1.486   5.307  0.6711  0.4703 -0.0955
 6530TIP3    H141081   5.993   1.455   5.300  1.0188  1.5972 -0.8666
 6530TIP3    H241082   5.856   1.441   5.237  0.8657  0.6162 -0.3223
 6531TIP3   OH241083   0.488   5.862  14.798  0.0501 -0.1473 -0.0808
 6531TIP3    H141084   0.425   5.877  14.728  2.4822  3.2718 -1.8301
 6531TIP3    H241085   0.490   5.944  14.847  2.0796 -0.6503  0.8114
 6532TIP3   OH241086   4.842   0.790   2.171 -0.1976  0.1002 -0.7936
 6532TIP3    H141087   4.848   0.829   2.258 -0.8858 -1.6050  0.0558
 6532TIP3    H241088   4.904   0.718   2.173 -1.6536 -1.2091 -0.9920
 6533TIP3   OH241089   6.629   3.925   2.315  0.3046  0.2812 -0.0511
 6533TIP3    H141090   6.693   3.983   2.274 -0.8859  0.7619 -1.3429
 6533TIP3    H241091   6.624   3.849   2.257  0.9605 -0.5725  0.9777
 6534TIP3   OH241092   6.136   1.258   5.770 -0.1015  0.4123  0.1369
 6534TIP3    H141093   6.104   1.207   5.696  0.4675 -0.9214  0.7767
 6534TIP3    H241094   6.058   1.282   5.819 -0.4218  0.7153 -0.5089
 6535TIP3   OH241095   2.256   5.116  15.070  0.6858  0.0777 -0.0352
 6535TIP3    H141096   2.161   5.113  15.060  0.6928  1.8600 -0.9117
 6535TIP3    H241097   2.287   5.166  14.994  2.0992  1.6190  1.4686
 6536TIP3   OH241098   6.137   2.058   3.846  0.7669 -0.0575  0.1381
 6536TIP3    H141099   6.195   2.123   3.887 -0.5581  0.9238  0.5449
 6536TIP3    H241100   6.192   1.980   3.836  1.5111  0.0192  2.7334
 6537TIP3   OH241101   5.517   0.864   5.142 -0.3626  0.2991 -0.2672
 6537TIP3    H141102   5.492   0.803   5.212 -1.1763 -0.1036 -0.8781
 6537TIP3    H241103   5.608   0.843   5.123 -0.3635 -0.1044  0.1468
 6538TIP3   OH241104   1.593   6.718  17.202  0.0432 -0.1874 -0.1506
 6538TIP3    H141105   1.560   6.747  17.117  1.1175 -0.5601 -0.7209
 6538TIP3    H241106   1.593   6.796  17.256  0.9635  0.4486 -1.0329
 6539TIP3   OH241107   6.542   0.447   5.852 -0.0229 -0.5540  0.3485
 6539TIP3    H141108   6.571   0.413   5.767  0.8267 -2.8927  1.5113
 6539TIP3    H241109   6.471   0.390   5.878 -0.4795  0.3342  1.1150
 6540TIP3   OH241110   1.565   3.004  15.746  0.2645  0.1690 -0.1595
 6540TIP3    H141111   1.529   3.045  15.825  1.0477  0.8605 -0.1433
 6540TIP3    H241112   1.637   2.950  15.777  0.3621  0.1811 -0.3610
 6541TIP3   OH241113   5.652   4.967   5.450 -0.0780  0.1105  0.1453
 6541TIP3    H141114   5.600   5.026   5.505  1.2548  0.1253  1.4551
 6541TIP3    H241115   5.659   4.887   5.502  0.5421 -0.1749 -0.3659
 6542TIP3   OH241116   0.333   2.659  11.620 -0.3059 -0.1673 -0.2190
 6542TIP3    H141117   0.256   2.602  11.624  0.7321 -1.6477 -0.5601
 6542TIP3    H241118   0.399   2.607  11.574  1.6856  0.0882  2.1537
 6543TIP3   OH241119   4.490   0.688  11.498  0.6219 -0.1600 -0.4123
 6543TIP3    H141120   4.495   0.608  11.445  1.6203  0.4171 -1.2365
 6543TIP3    H241121   4.404   0.724  11.477 -0.7002 -1.9764  1.4734
 6544TIP3   OH241122   2.796   6.490   3.195  0.1601 -0.1719  0.1359
 6544TIP3    H141123   2.702   6.503   3.210  0.3195  0.8047  0.3845
 6544TIP3    H241124   2.803   6.465   3.103 -0.2916  0.4545 -0.0764
 6545TIP3   OH241125   5.380   6.037   4.722 -0.3689  0.0052  0.0196
 6545TIP3    H141126   5.467   5.998   4.732 -0.4060  0.0489  0.5371
 6545TIP3    H241127   5.387   6.091   4.643 -0.1623 -0.6129 -0.3934
 6546TIP3   OH241128   6.733   6.389   4.391  0.8457  0.4140  0.2435
 6546TIP3    H141129   6.656   6.444   4.407 -0.1388 -0.6090 -0.8531
 6546TIP3    H241130   6.727   6.364   4.299  0.9788 -1.9154  0.8058
 6547TIP3   OH241131   2.198   3.012   5.656  0.6988 -0.1293 -0.4650
 6547TIP3    H141132   2.236   2.934   5.698 -1.0054 -0.8643 -0.2029
 6547TIP3    H241133   2.158   2.979   5.576  0.7725  0.6500 -0.8302
 6548TIP3   OH241134   4.128   1.731   4.831  0.0681 -0.0190  0.3204
 6548TIP3    H141135   4.131   1.691   4.744 -2.5185  1.3345 -0.4867
 6548TIP3    H241136   4.208   1.783   4.837  0.9227 -1.1708 -0.6762
 6549TIP3   OH241137   3.083   0.466  17.039  0.1087  0.3276 -0.1035
 6549TIP3    H141138   3.002   0.445  16.992  0.0657 -1.4485  0.6759
 6549TIP3    H241139   3.054   0.518  17.114 -0.3133 -0.1209  0.0580
 6550TIP3   OH241140   3.161   6.572   2.191  0.7091 -0.0185  0.1783
 6550TIP3    H141141   3.085   6.582   2.133  0.1565 -0.9421  0.7204
 6550TIP3    H241142   3.192   6.661   2.205 -0.0318  0.3382 -0.3766
 6551TIP3   OH241143   0.237   6.447   4.745  0.1791  0.0696 -0.1849
 6551TIP3    H141144   0.217   6.524   4.798  0.8220  1.3557 -1.7141
 6551TIP3    H241145   0.316   6.471   4.697  1.6756 -2.3852  0.8769
 6552TIP3   OH241146   4.476   3.559   3.308  0.2413  0.4291  0.8716
 6552TIP3    H141147   4.384   3.580   3.323 -0.0699  0.5729 -0.9405
 6552TIP3    H241148   4.523   3.639   3.330 -0.2099  0.7600  0.6546
 6553TIP3   OH241149   1.417   1.541   1.088 -0.1853  0.5485  0.1890
 6553TIP3    H141150   1.431   1.452   1.120  1.4180  1.7019  3.0403
 6553TIP3    H241151   1.369   1.585   1.158  0.8373  2.4423 -0.2281
 6554TIP3   OH241152   0.409   4.472  15.855 -0.8261  0.1314 -0.5752
 6554TIP3    H141153   0.334   4.463  15.913 -0.4317  0.3401 -0.0308
 6554TIP3    H241154   0.454   4.388  15.859 -0.5388  0.3001 -0.2125
 6555TIP3   OH241155   2.947   2.530  13.602 -0.0464 -0.2980  0.0722
 6555TIP3    H141156   2.852   2.519  13.596 -0.3226  1.7022  0.0765
 6555TIP3    H241157   2.975   2.547  13.513 -0.2807  2.7898  0.4942
 6556TIP3   OH241158   5.201   5.818  12.308  0.0951 -0.1421 -0.7605
 6556TIP3    H141159   5.287   5.859  12.316 -0.8177  1.6444  0.6116
 6556TIP3    H241160   5.147   5.885  12.267 -1.4618  0.1444  1.5708
 6557TIP3   OH241161   5.697   3.766  15.459 -0.3150  0.6796  0.3938
 6557TIP3    H141162   5.775   3.741  15.411 -0.4158  0.3989  0.3743
 6557TIP3    H241163   5.662   3.842  15.411  0.7166  1.7041  1.2060
 6558TIP3   OH241164   0.477   2.043  12.056 -1.0276  0.2616 -0.3793
 6558TIP3    H141165   0.473   1.961  12.007 -1.8354 -0.2916  0.5789
 6558TIP3    H241166   0.458   2.018  12.147  1.3600  1.1084  0.4193
 6559TIP3   OH241167   0.283   4.826   4.559  0.9300 -0.8066 -0.3132
 6559TIP3    H141168   0.252   4.782   4.637 -1.6390  0.3177 -0.6128
 6559TIP3    H241169   0.302   4.915   4.588 -0.8199 -0.1489 -1.0599
 6560TIP3   OH241170   6.609   0.466   3.541  0.0171  0.0996 -0.7384
 6560TIP3    H141171   6.613   0.561   3.529 -1.3521  0.2687 -0.0771
 6560TIP3    H241172   6.599   0.455   3.636  0.2755 -0.7109 -0.8001
 6561TIP3   OH241173   5.503   0.609  14.201  0.0275 -0.4983  0.4532
 6561TIP3    H141174   5.479   0.684  14.147  1.0327 -0.7014 -0.3094
 6561TIP3    H241175   5.584   0.636  14.245  0.3305 -1.0828  0.2639
 6562TIP3   OH241176   1.375   1.631   4.503  0.0736 -0.6305 -0.1180
 6562TIP3    H141177   1.356   1.557   4.446  0.6661 -0.5635 -0.4066
 6562TIP3    H241178   1.469   1.645   4.493  0.3213 -1.0371  1.3652
 6563TIP3   OH241179   2.621   2.209  16.636  0.3849  0.1667  0.1638
 6563TIP3    H141180   2.713   2.234  16.629  0.4841 -0.4702 -1.3008
 6563TIP3    H241181   2.593   2.196  16.545 -0.3988 -2.2827  0.6824
 6564TIP3   OH241182   0.322   2.833   5.564  0.6193  0.1859  0.2450
 6564TIP3    H141183   0.347   2.754   5.517 -0.8191 -0.2903  0.2600
 6564TIP3    H241184   0.246   2.808   5.616 -0.5822  1.8394 -0.6226
 6565TIP3   OH241185   0.697   4.301  12.759 -0.2280  0.3754  0.6339
 6565TIP3    H141186   0.766   4.257  12.710  1.0849  2.5129  0.4456
 6565TIP3    H241187   0.637   4.335  12.693 -0.1872  0.5280  0.6742
 6566TIP3   OH241188   2.654   3.499   3.319  0.5330  0.1346  0.3314
 6566TIP3    H141189   2.607   3.446   3.256 -0.5079  0.1144  1.0952
 6566TIP3    H241190   2.626   3.589   3.300  1.0767  0.2495  0.0552
 6567TIP3   OH241191   0.752   1.111  15.307  0.4534 -0.0397  0.4028
 6567TIP3    H141192   0.790   1.048  15.368  0.9908 -2.1018 -1.9047
 6567TIP3    H241193   0.660   1.117  15.334  0.1863 -2.4714  0.2755
 6568TIP3   OH241194   3.110   1.271   1.941  0.3809  0.2946 -0.2554
 6568TIP3    H141195   3.033   1.240   1.894  0.0868  1.3588 -0.5210
 6568TIP3    H241196   3.178   1.206   1.923 -0.4894 -0.7178  0.0948
 6569TIP3   OH241197   4.329   4.361   3.266  0.3740 -0.0522 -0.4063
 6569TIP3    H141198   4.245   4.329   3.300  0.1407  0.5174 -0.4289
 6569TIP3    H241199   4.388   4.358   3.341  0.3322 -0.4555 -0.3898
 6570TIP3   OH241200   0.623   2.899   2.877 -0.0735  0.4668 -0.1245
 6570TIP3    H141201   0.673   2.825   2.910 -0.8628  0.3407  0.8497
 6570TIP3    H241202   0.619   2.960   2.950 -1.3504  0.4585 -0.1543
 6571TIP3   OH241203   2.322   0.438   4.327  0.1303 -0.6060  0.1866
 6571TIP3    H141204   2.389   0.448   4.395 -0.0683  0.2357  0.2776
 6571TIP3    H241205   2.356   0.370   4.270 -0.5722 -2.7484  2.1622
 6572TIP3   OH241206   0.517   5.472   5.999  0.2318  0.7821  0.1184
 6572TIP3    H141207   0.463   5.549   6.016  0.0215  0.4140  1.2215
 6572TIP3    H241208   0.579   5.469   6.071 -0.7128 -0.8741  0.9392
 6573TIP3   OH241209   0.450   2.410  10.902  0.4861 -0.5713  0.5086
 6573TIP3    H141210   0.449   2.322  10.941 -0.3124 -1.0178 -0.4763
 6573TIP3    H241211   0.397   2.463  10.962 -0.7590 -1.2571  0.0545
 6574TIP3   OH241212   3.764   2.979  16.162  0.0554 -0.3338 -0.0073
 6574TIP3    H141213   3.685   3.018  16.200 -0.0627 -1.0859  0.5426
 6574TIP3    H241214   3.817   2.955  16.238 -0.3272 -2.1708 -0.2951
 6575TIP3   OH241215   6.672   1.902  16.557 -0.4824  0.2354 -0.7136
 6575TIP3    H141216   6.663   1.812  16.526 -0.3361  0.1113 -0.4068
 6575TIP3    H241217   6.619   1.954  16.497  0.1849  0.0704 -1.4491
 6576TIP3   OH241218   0.944   1.141   5.709  0.2214  0.1833 -0.3839
 6576TIP3    H141219   1.003   1.107   5.777 -0.3461  0.6322  0.3543
 6576TIP3    H241220   0.866   1.086   5.715 -1.2499  2.2972  1.7090
 6577TIP3   OH241221   4.645   1.390  12.614 -0.3525 -0.0503 -0.3640
 6577TIP3    H141222   4.674   1.369  12.703 -1.8179 -3.1202 -0.4733
 6577TIP3    H241223   4.721   1.371  12.559  0.5545  1.8470  0.1337
 6578TIP3   OH241224   5.304   3.630  11.791 -0.3246  0.3446 -0.4038
 6578TIP3    H141225   5.329   3.553  11.741  1.1271  0.8895 -0.5916
 6578TIP3    H241226   5.333   3.704  11.737 -2.0352  1.0557 -0.4168
 6579TIP3   OH241227   0.771   6.139  11.903  0.6831  0.4553 -0.2926
 6579TIP3    H141228   0.768   6.077  11.976  3.7554  0.3657 -0.1397
 6579TIP3    H241229   0.731   6.219  11.938  1.1774  0.0959  1.1473
 6580TIP3   OH241230   4.541   3.456  12.717  0.4742  0.1444  0.7732
 6580TIP3    H141231   4.636   3.470  12.713  0.6935 -1.4617 -0.7854
 6580TIP3    H241232   4.504   3.538  12.684  1.4957 -0.4610 -2.2345
 6581TIP3   OH241233   3.811   6.012  15.241  0.6300 -0.1125 -0.4846
 6581TIP3    H141234   3.842   5.978  15.325  1.9378  0.8644 -0.5359
 6581TIP3    H241235   3.846   5.951  15.176 -2.6233 -2.4507 -0.2624
 6582TIP3   OH241236   6.604   6.442  14.569  0.6271 -0.3801 -0.2306
 6582TIP3    H141237   6.619   6.436  14.474 -1.2604  0.5490 -0.6399
 6582TIP3    H241238   6.684   6.482  14.603  1.0350 -0.0143 -1.5539
 6583TIP3   OH241239   2.307   5.218  13.671  0.1621  0.1525 -0.8865
 6583TIP3    H141240   2.242   5.288  13.673 -0.4188 -0.3697 -0.9742
 6583TIP3    H241241   2.344   5.217  13.760  0.6801  1.0207 -1.0869
 6584TIP3   OH241242   4.628   6.588  13.026  0.2568 -0.2534  0.3021
 6584TIP3    H141243   4.683   6.661  13.057  0.9105 -0.4013 -0.4695
 6584TIP3    H241244   4.542   6.627  13.011  0.3067  0.1184  0.9314
 6585TIP3   OH241245   3.589   4.837  11.412 -0.0255 -0.9042  0.0828
 6585TIP3    H141246   3.526   4.765  11.403 -0.1366 -1.1084  1.9340
 6585TIP3    H241247   3.537   4.908  11.452  0.3700 -0.2151 -0.6046
 6586TIP3   OH241248   6.792   6.076   3.751 -0.6517  1.0426  0.3907
 6586TIP3    H141249   6.845   6.051   3.675  0.2021 -0.2552  1.3704
 6586TIP3    H241250   6.809   6.170   3.762  0.6707  0.8587  0.0771
 6587TIP3   OH241251   5.005   3.029   6.260  0.3193 -0.2099  0.6641
 6587TIP3    H141252   4.941   2.958   6.257 -0.7811  0.6861  1.6450
 6587TIP3    H241253   4.962   3.102   6.214  1.1555  0.0229  0.2385
 6588TIP3   OH241254   6.112   1.678  12.737  0.0729 -0.2939 -0.0286
 6588TIP3    H141255   6.025   1.689  12.698  0.5363  1.1076 -0.7422
 6588TIP3    H241256   6.147   1.767  12.743  1.8910 -0.8964 -0.7977
 6589TIP3   OH241257   1.861   4.130  10.894 -0.8880 -0.3374 -0.3155
 6589TIP3    H141258   1.827   4.074  10.824 -0.9485  0.2200 -0.7389
 6589TIP3    H241259   1.937   4.082  10.928 -0.0387 -0.0036 -1.6712
 6590TIP3   OH241260   4.328   4.930  11.618  0.2151 -0.5324  0.4886
 6590TIP3    H141261   4.268   4.865  11.656 -3.5295  0.1003 -3.4918
 6590TIP3    H241262   4.360   4.888  11.538  1.1275  1.0243  0.0112
 6591TIP3   OH241263   6.741   2.375   5.276  0.0467 -0.2625  0.1188
 6591TIP3    H141264   6.673   2.408   5.217  1.7191  0.5741 -1.4609
 6591TIP3    H241265   6.739   2.435   5.351  0.4556  1.1241 -0.9333
 6592TIP3   OH241266   4.898   5.480  12.352 -0.0494  0.1068  0.0796
 6592TIP3    H141267   4.893   5.428  12.433 -1.3124 -0.6286 -0.4354
 6592TIP3    H241268   4.806   5.498  12.330  0.3262  1.4166 -0.4935
 6593TIP3   OH241269   4.577   1.224   1.414 -0.5553  0.2146 -0.0787
 6593TIP3    H141270   4.668   1.242   1.391 -0.5008  1.4763  0.9941
 6593TIP3    H241271   4.534   1.206   1.330  0.6450 -0.3088 -0.6067
 6594TIP3   OH241272   3.632   5.816  16.730  0.1508  0.3213  0.1176
 6594TIP3    H141273   3.633   5.822  16.635  1.2432 -1.2528  0.0081
 6594TIP3    H241274   3.700   5.877  16.759  0.7421 -0.1859 -0.1863
 6595TIP3   OH241275   4.886   0.035   0.930 -0.5935  0.3242 -0.1135
 6595TIP3    H141276   4.958   0.083   0.890 -0.1794 -1.5190 -1.6931
 6595TIP3    H241277   4.925  -0.044   0.965 -1.8246 -0.7107 -0.9880
 6596TIP3   OH241278   6.805   5.525   2.831  0.2687 -0.2855  0.4042
 6596TIP3    H141279   6.731   5.584   2.816  0.8269  1.3517  3.3693
 6596TIP3    H241280   6.775   5.467   2.901  1.2692 -0.6273  0.5606
 6597TIP3   OH241281   3.915   1.432  15.484  0.3343  0.3045  0.1310
 6597TIP3    H141282   3.827   1.398  15.502  0.4722  0.7367  1.8002
 6597TIP3    H241283   3.903   1.526  15.474  0.6012  0.3611  0.3443
 6598TIP3   OH241284   0.422   6.002   5.861 -0.1567  0.0220  0.5299
 6598TIP3    H141285   0.503   5.974   5.902  0.8133  1.2229 -0.4975
 6598TIP3    H241286   0.366   6.029   5.935  0.5657 -0.3233  1.2159
 6599TIP3   OH241287   5.444   2.061  13.006 -0.1021  0.0633 -0.3850
 6599TIP3    H141288   5.489   2.038  13.087 -1.4733 -1.3751  0.0213
 6599TIP3    H241289   5.390   1.984  12.986  1.0315 -0.0981 -3.2731
 6600TIP3   OH241290   0.111   1.269  16.907  0.6323 -0.4416  0.0642
 6600TIP3    H141291   0.083   1.197  16.851 -0.2991  0.1369 -0.2471
 6600TIP3    H241292   0.043   1.335  16.895  0.1056 -0.5077  2.2747
 6601TIP3   OH241293   4.655   3.676  11.851  0.2324  0.2186  0.3286
 6601TIP3    H141294   4.711   3.731  11.905  1.4823 -0.5330 -0.1519
 6601TIP3    H241295   4.687   3.689  11.761 -1.5353  1.1315 -0.2233
 6602TIP3   OH241296   2.670   5.434   5.137 -0.1846  0.2963  0.4780
 6602TIP3    H141297   2.698   5.356   5.089  0.3718  0.9291 -0.2570
 6602TIP3    H241298   2.591   5.406   5.183  1.0687 -1.2446  1.8108
 6603TIP3   OH241299   6.457   6.532   4.308 -0.2935 -0.2756 -0.0992
 6603TIP3    H141300   6.433   6.469   4.377  0.0948 -0.1784  0.1296
 6603TIP3    H241301   6.374   6.567   4.278 -0.4881 -0.5640  0.0941
 6604TIP3   OH241302   0.560   3.524  13.888  0.1426 -0.7123 -0.4987
 6604TIP3    H141303   0.601   3.464  13.951  1.2791 -0.5009 -1.0078
 6604TIP3    H241304   0.479   3.552  13.931  1.1008 -0.2164  1.1017
 6605TIP3   OH241305   5.502   0.944  13.542  0.0143 -0.9969  0.3591
 6605TIP3    H141306   5.565   0.950  13.470  0.3292 -0.7647  0.6466
 6605TIP3    H241307   5.552   0.907  13.615 -0.3428 -1.3767  0.4140
 6606TIP3   OH241308   4.116   4.136  16.994 -0.4103  1.1247  0.1131
 6606TIP3    H141309   4.029   4.174  16.984 -0.7287  0.2775 -0.5045
 6606TIP3    H241310   4.174   4.191  16.941 -0.8534  0.8000 -0.7227
 6607TIP3   OH241311   0.409   0.533  12.017 -0.0642  0.2543  0.1192
 6607TIP3    H141312   0.370   0.580  12.092 -1.6670 -0.4794 -0.2073
 6607TIP3    H241313   0.464   0.598  11.974  0.8446  0.7154  1.8851
 6608TIP3   OH241314   3.598   5.644   0.953 -0.3395 -0.1539  0.0546
 6608TIP3    H141315   3.509   5.654   0.920 -0.3642 -0.7395 -0.0626
 6608TIP3    H241316   3.620   5.730   0.990  0.4302  1.1942 -3.2319
 6609TIP3   OH241317   5.661   2.984  12.468 -0.1564 -0.0065  0.4508
 6609TIP3    H141318   5.680   3.010  12.559  1.7238  0.5911 -0.0583
 6609TIP3    H241319   5.724   3.034  12.416 -0.6255 -0.9929 -1.1134
 6610TIP3   OH241320   5.112   3.280  16.756 -1.1923  0.0839  0.4374
 6610TIP3    H141321   5.107   3.334  16.835 -1.2198  2.3030 -0.9906
 6610TIP3    H241322   5.056   3.325  16.693 -0.0100 -0.7844 -1.3200
 6611TIP3   OH241323   2.183   6.038  12.923  0.3068 -0.5663 -0.0395
 6611TIP3    H141324   2.236   6.036  13.003 -2.3550 -0.1675  1.8664
 6611TIP3    H241325   2.116   5.971  12.937 -1.0854  0.5062 -1.2497
 6612TIP3   OH241326   2.218   3.230  16.734 -0.0961  0.0859  0.3419
 6612TIP3    H141327   2.276   3.166  16.693 -1.2072 -0.2069 -0.8389
 6612TIP3    H241328   2.156   3.178  16.785 -2.4218 -0.1036 -2.3848
 6613TIP3   OH241329   3.743   5.576   4.295  0.3944 -0.1853  0.0440
 6613TIP3    H141330   3.699   5.539   4.372 -0.0808  0.7887  0.2549
 6613TIP3    H241331   3.685   5.646   4.267  2.1701  1.6624  0.7932
 6614TIP3   OH241332   1.513   1.652  13.245 -0.0980  0.1475 -0.2741
 6614TIP3    H141333   1.566   1.605  13.182  0.5215 -1.8805  1.6267
 6614TIP3    H241334   1.481   1.585  13.305 -3.0772  1.5538 -0.0615
 6615TIP3   OH241335   3.589   2.396   1.137  0.6212 -0.1012  0.0583
 6615TIP3    H141336   3.612   2.487   1.154  1.7119 -0.5905  1.4624
 6615TIP3    H241337   3.673   2.350   1.135  0.1472 -0.9632 -1.4974
 6616TIP3   OH241338   3.944   5.517   1.969  0.3351 -0.3034  0.5982
 6616TIP3    H141339   3.900   5.601   1.953  1.3810  0.5469  1.9580
 6616TIP3    H241340   3.904   5.484   2.048  0.4271 -0.7353  0.4648
 6617TIP3   OH241341   1.752   5.114  16.974  0.3831 -0.2776 -0.6936
 6617TIP3    H141342   1.732   5.192  17.026 -0.0368 -0.9229  0.1333
 6617TIP3    H241343   1.786   5.148  16.891  1.3076  0.7756  0.0860
 6618TIP3   OH241344   3.115   5.602   6.048  0.2719  0.1769  0.0551
 6618TIP3    H141345   3.064   5.667   6.097  0.6546 -0.3801  1.2250
 6618TIP3    H241346   3.067   5.590   5.966 -0.6692  0.7590  0.5131
 6619TIP3   OH241347   3.550   2.338  12.813  0.1469 -0.5663 -0.4758
 6619TIP3    H141348   3.569   2.345  12.719  0.4962  1.3317 -0.3008
 6619TIP3    H241349   3.600   2.410  12.853 -2.7103  0.9232  0.7294
 6620TIP3   OH241350   4.330   1.370   2.785  0.2816 -0.3499 -0.9880
 6620TIP3    H141351   4.303   1.431   2.717 -0.3579 -2.5975 -2.8922
 6620TIP3    H241352   4.282   1.290   2.765 -0.7371 -0.8465  2.7614
 6621TIP3   OH241353   6.331   4.233   2.880  0.4276 -0.4757 -0.2851
 6621TIP3    H141354   6.248   4.202   2.842  0.3650 -1.3486  0.5386
 6621TIP3    H241355   6.367   4.157   2.926  0.0700  0.7362  2.1643
 6622TIP3   OH241356   6.099   1.734   5.238  0.6292  0.4096 -0.2475
 6622TIP3    H141357   6.111   1.644   5.271  0.9828  1.4432  2.8068
 6622TIP3    H241358   6.024   1.728   5.178  0.5930 -1.9031 -0.0672
 6623TIP3   OH241359   3.138   1.226   4.488  0.0749  0.4477 -0.2783
 6623TIP3    H141360   3.226   1.191   4.473  0.6388  1.3383  0.7950
 6623TIP3    H241361   3.084   1.148   4.505  1.3366  0.0238  2.2279
 6624TIP3   OH241362   0.276   4.623   0.130  0.3701  0.0235 -0.0370
 6624TIP3    H141363   0.288   4.623   0.225  0.2914  1.8506 -0.0003
 6624TIP3    H241364   0.263   4.715   0.107 -0.9746 -0.5230 -1.6559
 6625TIP3   OH241365   3.123   5.935   4.703 -0.1374 -0.3409 -0.0390
 6625TIP3    H141366   3.210   5.963   4.673 -0.5215 -0.5142 -1.3957
 6625TIP3    H241367   3.129   5.840   4.706 -0.1121 -0.3244  0.4175
 6626TIP3   OH241368   0.860   1.872  11.845  0.0081 -0.1145 -0.6434
 6626TIP3    H141369   0.835   1.842  11.758 -4.0591  0.2550  0.2029
 6626TIP3    H241370   0.886   1.964  11.832 -1.9113  0.3723 -1.3720
 6627TIP3   OH241371   5.115   3.990  13.688  0.7095  0.5743  0.2842
 6627TIP3    H141372   5.146   4.073  13.726  0.4648  0.4757  0.7072
 6627TIP3    H241373   5.170   3.976  13.611  2.0609  0.1368  1.3076
 6628TIP3   OH241374   5.489   1.686  16.479  0.0417  0.3077  0.6783
 6628TIP3    H141375   5.541   1.693  16.559  1.2390 -1.8615  0.1651
 6628TIP3    H241376   5.506   1.768  16.432  0.8526  0.7831  1.7657
 6629TIP3   OH241377   5.980   0.294   3.143 -0.3751  0.0313  0.4389
 6629TIP3    H141378   6.052   0.266   3.086 -0.8207 -0.5543  0.1627
 6629TIP3    H241379   6.004   0.261   3.230 -0.1283  0.1647  0.4225
 6630TIP3   OH241380   1.838   0.322   3.612 -0.1400 -0.0001 -0.8074
 6630TIP3    H141381   1.796   0.408   3.608 -1.6891 -0.7376 -1.1850
 6630TIP3    H241382   1.793   0.277   3.683  1.9601  0.1125  0.6922
 6631TIP3   OH241383   1.875   1.791   6.355 -0.9670 -0.3365  0.2958
 6631TIP3    H141384   1.946   1.754   6.303 -1.1048  0.0850 -0.2054
 6631TIP3    H241385   1.830   1.851   6.295 -2.1120 -1.0353  0.4258
 6632TIP3   OH241386   0.571   0.956  14.468  0.1988 -0.4901  0.7019
 6632TIP3    H141387   0.508   0.992  14.405 -1.0081 -1.1109  1.5424
 6632TIP3    H241388   0.626   0.898  14.415  1.1157  1.2439 -0.3503
 6633TIP3   OH241389   6.322   4.506   1.932 -0.8216  0.1056 -0.1589
 6633TIP3    H141390   6.389   4.491   1.865 -2.2902 -0.9141 -1.4799
 6633TIP3    H241391   6.266   4.574   1.895 -1.3159 -0.0498  0.2906
 6634TIP3   OH241392   5.422   2.045  13.906 -0.0022 -0.8011  0.3061
 6634TIP3    H141393   5.357   2.113  13.926 -0.6852 -1.2607 -0.3022
 6634TIP3    H241394   5.384   1.996  13.833  0.0674 -2.3919  1.2838
 6635TIP3   OH241395   3.035   4.736  16.708  0.8942 -0.2987  0.9699
 6635TIP3    H141396   3.092   4.776  16.774 -0.1434  2.8822  0.1095
 6635TIP3    H241397   2.954   4.714  16.756  0.3567  1.4800  0.9475
 6636TIP3   OH241398   6.228   4.291   5.015 -0.0680  0.2635 -0.2578
 6636TIP3    H141399   6.264   4.203   4.999  0.6404  0.6989 -1.1189
 6636TIP3    H241400   6.302   4.350   5.001  0.3792  0.8484  3.4414
 6637TIP3   OH241401   3.254   3.745  15.818  0.8008 -0.2229 -0.1550
 6637TIP3    H141402   3.309   3.669  15.836  2.1578  0.3590 -1.6429
 6637TIP3    H241403   3.192   3.715  15.752  1.7372  0.0971 -1.2051
 6638TIP3   OH241404   6.357   6.460   6.380 -0.3452 -0.4368 -0.0061
 6638TIP3    H141405   6.441   6.505   6.388 -0.2508 -0.5217 -0.5158
 6638TIP3    H241406   6.292   6.530   6.376 -0.4167 -0.3813  1.5841
 6639TIP3   OH241407   5.103   2.621   3.270  0.1006  0.4095 -0.0288
 6639TIP3    H141408   5.126   2.710   3.246 -1.6199  0.7707 -0.4984
 6639TIP3    H241409   5.187   2.578   3.288  0.9438  2.1680  0.4346
 6640TIP3   OH241410   5.932   2.393   1.600  0.2057 -0.2505 -0.1376
 6640TIP3    H141411   5.873   2.356   1.534  2.5768 -1.7219 -1.5809
 6640TIP3    H241412   6.020   2.377   1.565  1.5203  0.9225  2.3820
 6641TIP3   OH241413   1.791   6.452  10.783 -0.0313 -0.1321 -0.1548
 6641TIP3    H141414   1.741   6.391  10.729  0.3502  0.8131 -1.6380
 6641TIP3    H241415   1.744   6.535  10.776  0.8629  0.3774 -0.2724
 6642TIP3   OH241416   5.940   3.067   4.920 -0.4198 -0.7036  0.3599
 6642TIP3    H141417   5.926   2.978   4.951 -1.1056 -0.5567  0.4921
 6642TIP3    H241418   5.864   3.115   4.951 -0.3017 -0.1824 -0.1440
 6643TIP3   OH241419   2.583   5.668   3.275 -0.8710 -0.4825 -0.5530
 6643TIP3    H141420   2.636   5.600   3.317 -0.1621  0.0726 -0.5270
 6643TIP3    H241421   2.537   5.622   3.205 -0.5085 -1.0158 -0.4492
 6644TIP3   OH241422   4.604   4.875  13.910  0.2811  0.2490 -0.4104
 6644TIP3    H141423   4.550   4.904  13.984  0.2746  0.6851 -0.5802
 6644TIP3    H241424   4.693   4.873  13.946  0.2066 -0.0792 -0.2405
 6645TIP3   OH241425   3.495   2.980   0.636 -0.8304 -0.1455  0.5424
 6645TIP3    H141426   3.562   2.957   0.701 -0.4486  1.0678  0.5888
 6645TIP3    H241427   3.447   3.052   0.676 -0.2767  0.9499 -0.7006
 6646TIP3   OH241428   1.580   4.923   5.483  0.2363  0.1752 -0.0643
 6646TIP3    H141429   1.495   4.939   5.440  0.4756 -0.5870 -0.8602
 6646TIP3    H241430   1.557   4.905   5.574 -0.6136 -1.3723 -0.5442
 6647TIP3   OH241431   1.138   2.263   3.436  0.0155  0.0062  0.1717
 6647TIP3    H141432   1.156   2.316   3.359 -0.5761 -2.9423 -2.2150
 6647TIP3    H241433   1.043   2.268   3.448 -0.1098 -0.8105 -0.3727
 6648TIP3   OH241434   6.135   4.419   0.320 -0.1994  0.2320 -0.3261
 6648TIP3    H141435   6.214   4.441   0.271  1.7798 -0.5887  2.2690
 6648TIP3    H241436   6.106   4.503   0.356 -0.6787  0.5672 -1.4442
 6649TIP3   OH241437   6.202   4.269   2.031  0.3384 -0.5598 -0.5416
 6649TIP3    H141438   6.247   4.353   2.017 -2.6169  0.8601 -2.5135
 6649TIP3    H241439   6.226   4.216   1.955  0.4512 -0.6640 -0.4339
 6650TIP3   OH241440   6.368   5.368  11.423 -0.2135 -0.0052  0.3758
 6650TIP3    H141441   6.438   5.307  11.396 -0.6283  0.6608 -2.5879
 6650TIP3    H241442   6.297   5.350  11.361 -1.0285  2.2172  0.6135
 6651TIP3   OH241443   5.855   6.181   5.531 -0.4144 -0.1566  0.1510
 6651TIP3    H141444   5.835   6.160   5.622 -0.0898  1.5672  0.6537
 6651TIP3    H241445   5.770   6.198   5.491 -0.5068 -0.2340  0.3126
 6652TIP3   OH241446   1.459   1.198  14.093 -0.0730 -0.0974 -0.2579
 6652TIP3    H141447   1.474   1.108  14.063  0.8715  0.5704 -1.9424
 6652TIP3    H241448   1.543   1.226  14.129 -0.8223 -0.4133  1.8576
 6653TIP3   OH241449   0.655   2.751  14.715 -0.0242 -0.1376  0.2174
 6653TIP3    H141450   0.573   2.703  14.726 -1.3796  1.5749 -1.6777
 6653TIP3    H241451   0.628   2.838  14.685  2.5346  0.0814 -1.8289
 6654TIP3   OH241452   1.951   4.078   3.997 -0.0530 -0.1611 -0.2359
 6654TIP3    H141453   1.971   4.086   3.904  1.4555 -0.0609  0.0769
 6654TIP3    H241454   1.994   4.152   4.038 -0.7784 -0.1557  0.5479
 6655TIP3   OH241455   0.842   1.980   5.300  0.1200  0.1689  0.3448
 6655TIP3    H141456   0.836   2.075   5.290 -0.4808  0.2574  1.3374
 6655TIP3    H241457   0.929   1.966   5.338  0.4321  0.2670 -0.3262
 6656TIP3   OH241458   4.360   4.894  14.604  0.8575 -0.1392  0.1368
 6656TIP3    H141459   4.442   4.930  14.568  1.2428 -1.2134 -0.0800
 6656TIP3    H241460   4.358   4.925  14.694  1.3640  0.1229  0.0627
 6657TIP3   OH241461   6.399   2.358   5.271  0.1240 -0.3156  0.7429
 6657TIP3    H141462   6.463   2.398   5.212  0.9569 -1.1197  1.0697
 6657TIP3    H241463   6.353   2.432   5.310  0.0448  0.2493 -0.3708
 6658TIP3   OH241464   3.674   1.129   4.333 -0.5776  0.0069  0.7082
 6658TIP3    H141465   3.756   1.176   4.319  0.5400 -1.2862  2.4358
 6658TIP3    H241466   3.626   1.139   4.251  1.3680  0.6698 -0.4241
 6659TIP3   OH241467   0.585   6.630  16.727 -0.0815  0.2186 -0.3755
 6659TIP3    H141468   0.600   6.679  16.808 -0.4870  2.1652 -1.4124
 6659TIP3    H241469   0.525   6.560  16.752 -0.5111  1.0168  0.9351
 6660TIP3   OH241470   5.976   2.036   5.278  0.1963  0.5361  0.1094
 6660TIP3    H141471   6.048   2.090   5.244  1.8567 -0.2340  2.2046
 6660TIP3    H241472   5.987   1.952   5.233  0.5695  0.4520  0.3489
 6661TIP3   OH241473   3.010   2.259  12.729 -0.2691 -0.1830 -0.0131
 6661TIP3    H141474   2.991   2.353  12.737 -1.0172 -0.4755  2.2236
 6661TIP3    H241475   3.094   2.248  12.773 -0.6952 -0.7077  0.6897
 6662TIP3   OH241476   4.838   3.396   5.244  0.3343  0.3783  0.6407
 6662TIP3    H141477   4.816   3.334   5.314 -1.2473 -1.0671 -1.0374
 6662TIP3    H241478   4.819   3.349   5.163 -1.6969  3.3007 -0.7548
 6663TIP3   OH241479   6.464   6.111   1.864 -0.0220  0.6210 -0.0142
 6663TIP3    H141480   6.419   6.190   1.833 -1.4165 -0.1491 -0.0653
 6663TIP3    H241481   6.471   6.122   1.959 -0.0414  0.8877 -0.0436
 6664TIP3   OH241482   1.351   0.351   0.539 -1.0303  0.3674  0.5001
 6664TIP3    H141483   1.317   0.323   0.624 -1.0699  0.6192  0.5693
 6664TIP3    H241484   1.444   0.367   0.555 -1.3141  1.8496  0.8764
 6665TIP3   OH241485   6.062   2.071   3.395  0.1699 -0.2450 -0.5771
 6665TIP3    H141486   6.105   1.989   3.419  0.4495  0.5298  1.8474
 6665TIP3    H241487   5.980   2.071   3.446 -0.0282  0.7787 -0.8671
 6666TIP3   OH241488   1.430   1.787  15.147 -0.1098  0.2144 -0.5241
 6666TIP3    H141489   1.497   1.759  15.210  0.5026  2.8735  0.1641
 6666TIP3    H241490   1.353   1.804  15.200 -0.1659  0.6869 -0.7513
 6667TIP3   OH241491   2.623   1.922   2.765  0.3169  0.0377 -0.0657
 6667TIP3    H141492   2.624   1.933   2.670  1.0972 -1.0275 -0.1937
 6667TIP3    H241493   2.679   1.846   2.782 -1.2734 -0.9397  1.1051
 6668TIP3   OH241494   4.710   4.046  12.669 -0.7412  0.3399  0.2315
 6668TIP3    H141495   4.618   4.033  12.646 -0.6430 -0.0467  0.0527
 6668TIP3    H241496   4.747   4.091  12.593 -0.7195  0.2477  0.1874
 6669TIP3   OH241497   5.139   6.560  16.697  0.1724 -0.1987 -0.4420
 6669TIP3    H141498   5.190   6.641  16.699 -2.1996  1.4121 -0.4246
 6669TIP3    H241499   5.146   6.529  16.606  0.8668  0.1903 -0.5235
 6670TIP3   OH241500   5.409   1.640  15.636  0.2044 -0.3205 -0.0155
 6670TIP3    H141501   5.371   1.610  15.553 -1.1705  1.6494 -0.1731
 6670TIP3    H241502   5.363   1.722  15.655  1.8449  0.2639  1.7379
 6671TIP3   OH241503   2.397   5.469   6.755  0.1318  0.1596  0.0948
 6671TIP3    H141504   2.490   5.452   6.741 -0.4779 -0.8129 -4.0404
 6671TIP3    H241505   2.391   5.564   6.765  1.3872  0.7170 -3.2589
 6672TIP3   OH241506   0.884   0.574  17.114  0.2073 -0.5792  0.3290
 6672TIP3    H141507   0.905   0.577  17.021  0.0393  4.1737  0.1778
 6672TIP3    H241508   0.965   0.544  17.156  1.6522  0.9374 -1.2009
 6673TIP3   OH241509   6.826   3.298   3.440  0.5698  0.2443 -0.2654
 6673TIP3    H141510   6.902   3.317   3.495  0.7460 -1.2348  0.0579
 6673TIP3    H241511   6.862   3.287   3.352  1.2280 -3.0592  0.2889
 6674TIP3   OH241512   1.649   0.156   0.016 -0.5956 -0.0409  0.5690
 6674TIP3    H141513   1.719   0.220   0.016  1.9631 -2.5639 -2.1413
 6674TIP3    H241514   1.575   0.200  -0.026  0.7264  1.4428 -0.2559
 6675TIP3   OH241515   3.963   6.248   4.409 -0.1732  0.0980 -0.2129
 6675TIP3    H141516   3.925   6.296   4.483 -0.7213 -0.5188 -0.0879
 6675TIP3    H241517   4.058   6.255   4.422 -0.1548  2.6742 -1.1660
 6676TIP3   OH241518   1.076   6.043  11.182 -0.0675 -0.2176 -0.1940
 6676TIP3    H141519   0.984   6.015  11.193 -0.5383  0.1651 -2.6589
 6676TIP3    H241520   1.070   6.131  11.147  1.3240  0.3014  0.7885
 6677TIP3   OH241521   3.827   0.547  15.378  0.2443  0.0732  0.4540
 6677TIP3    H141522   3.854   0.638  15.368 -1.4402  0.4553 -1.3169
 6677TIP3    H241523   3.787   0.525  15.294 -1.9364 -1.3905  1.7769
 6678TIP3   OH241524   2.656   3.314  11.086  0.1947 -0.4077  0.1607
 6678TIP3    H141525   2.745   3.346  11.079  0.2031 -0.5480 -0.4593
 6678TIP3    H241526   2.616   3.335  11.002 -0.6492  0.5090  0.7772
 6679TIP3   OH241527   2.647   5.730  12.417 -0.9725  0.5989  0.1002
 6679TIP3    H141528   2.626   5.680  12.338  1.2594 -1.1967  0.5484
 6679TIP3    H241529   2.568   5.723  12.471 -1.9256  0.4666 -1.2364
 6680TIP3   OH241530   4.160   2.116  15.469 -0.3478  0.1447 -0.4205
 6680TIP3    H141531   4.203   2.143  15.388  2.4111  1.3158  1.2629
 6680TIP3    H241532   4.106   2.191  15.493 -0.1356  0.3349 -0.5302
 6681TIP3   OH241533   5.795   2.097   1.717 -0.4924  0.2625  0.3513
 6681TIP3    H141534   5.708   2.128   1.693 -0.3311  0.0947 -0.4678
 6681TIP3    H241535   5.849   2.176   1.718 -0.1823  0.0990 -1.2896
 6682TIP3   OH241536   6.024   2.642   1.247  0.2551 -0.0625  0.4908
 6682TIP3    H141537   6.025   2.678   1.158 -0.1438  0.9779  0.8864
 6682TIP3    H241538   6.096   2.580   1.249  0.6885  0.4023 -0.3697
 6683TIP3   OH241539   1.868   4.361   1.215 -0.2282 -0.3771 -0.2677
 6683TIP3    H141540   1.956   4.325   1.217  0.0765  0.1374  3.2310
 6683TIP3    H241541   1.811   4.286   1.235 -0.3736 -0.3261 -0.4854
 6684TIP3   OH241542   1.943   4.655  12.136  0.2523 -0.0778  0.0016
 6684TIP3    H141543   1.915   4.741  12.104 -0.8351 -0.3268  0.2257
 6684TIP3    H241544   2.038   4.659  12.136  0.2205  1.2909  0.4268
 6685TIP3   OH241545   6.377   1.629   6.086  0.1090  0.7080  0.2563
 6685TIP3    H141546   6.329   1.692   6.140 -0.6060  0.0209  0.4419
 6685TIP3    H241547   6.469   1.649   6.102 -0.0917  0.7244  1.4819
 6686TIP3   OH241548   1.302   1.044   0.450  0.2199  0.2496 -0.4113
 6686TIP3    H141549   1.323   1.027   0.358 -2.0375 -0.8067 -0.7951
 6686TIP3    H241550   1.275   0.959   0.485 -1.6679  1.1318  0.4101
 6687TIP3   OH241551   4.023   2.177  12.144 -0.7437  0.2046 -0.1005
 6687TIP3    H141552   4.022   2.250  12.206  2.1590  1.3466 -1.2344
 6687TIP3    H241553   4.052   2.102  12.196 -1.0179  0.5034  0.4919
 6688TIP3   OH241554   6.166   5.245   4.683 -0.0520  0.1929  0.1048
 6688TIP3    H141555   6.157   5.238   4.587 -0.3119 -1.6986  0.2308
 6688TIP3    H241556   6.079   5.224   4.716 -0.1276  1.4957  0.7533
 6689TIP3   OH241557   0.283   3.729  14.311 -0.2280 -0.1696  0.1993
 6689TIP3    H141558   0.244   3.669  14.375  0.0098  1.7452  2.2516
 6689TIP3    H241559   0.224   3.805  14.310 -0.3575 -0.2145 -2.1128
 6690TIP3   OH241560   2.787   4.295   1.059 -0.1743 -0.2068 -0.0390
 6690TIP3    H141561   2.707   4.326   1.101 -0.0354 -0.5928  0.5275
 6690TIP3    H241562   2.801   4.356   0.987 -0.4289  0.4759  0.4694
 6691TIP3   OH241563   4.209   5.174   0.419 -0.0798 -0.1461 -0.3171
 6691TIP3    H141564   4.265   5.102   0.390  1.1476 -0.0685  1.6414
 6691TIP3    H241565   4.269   5.247   0.433 -1.0015  0.6102 -0.2304
 6692TIP3   OH241566   0.314   4.400  14.004  0.0518 -0.0321 -0.0435
 6692TIP3    H141567   0.344   4.346  14.077 -0.8524 -0.2237  0.1962
 6692TIP3    H241568   0.304   4.488  14.041 -0.7802 -0.2086  0.1766
 6693TIP3   OH241569   6.792   4.884   4.646  0.0484 -0.1065  0.2171
 6693TIP3    H141570   6.832   4.904   4.730 -0.6530  1.7508  0.1679
 6693TIP3    H241571   6.816   4.793   4.628  2.7811  0.3735  0.9634
 6694TIP3   OH241572   4.922   5.349  16.696 -0.8351 -0.0426  0.3711
 6694TIP3    H141573   4.940   5.434  16.656 -1.5267 -0.9426 -2.0318
 6694TIP3    H241574   5.008   5.311  16.710 -0.5055  1.0601  1.6366
 6695TIP3   OH241575   4.412   3.461   2.788  0.9375  0.2675  0.0635
 6695TIP3    H141576   4.454   3.519   2.852  2.0135  0.4885 -0.8218
 6695TIP3    H241577   4.331   3.505   2.765  1.3354  0.9960  0.0432
 6696TIP3   OH241578   6.699   2.143  12.880  0.1893 -0.2738  0.4470
 6696TIP3    H141579   6.641   2.080  12.924  0.8629 -1.0498  0.2370
 6696TIP3    H241580   6.779   2.143  12.931  0.7751 -0.7636 -0.4472
 6697TIP3   OH241581   5.030   6.469  11.506  0.2003  0.1628 -0.5826
 6697TIP3    H141582   5.007   6.507  11.422 -2.7060  3.2979  1.3565
 6697TIP3    H241583   4.947   6.435  11.540  0.9328  0.4695  1.6556
 6698TIP3   OH241584   0.991   0.891   2.916  0.0899  0.2796 -0.1159
 6698TIP3    H141585   1.067   0.937   2.882  0.1523 -0.5260 -1.1133
 6698TIP3    H241586   0.932   0.961   2.947  1.8894  0.8893  2.2749
 6699TIP3   OH241587   5.209   1.633  16.446  0.0965  0.0903 -0.6349
 6699TIP3    H141588   5.155   1.712  16.438 -0.2961 -0.0601  0.3368
 6699TIP3    H241589   5.298   1.667  16.458 -0.2594  0.4807  1.3613
 6700TIP3   OH241590   4.907   6.435   4.336 -0.4166 -0.4639 -0.1809
 6700TIP3    H141591   4.872   6.522   4.354 -0.4226 -0.3145 -0.8999
 6700TIP3    H241592   4.868   6.409   4.253  2.5071  0.4731 -1.9953
 6701TIP3   OH241593   2.339   0.779  12.021  0.0417 -0.1981  0.1360
 6701TIP3    H141594   2.251   0.811  12.038  0.2008 -0.2799  1.2123
 6701TIP3    H241595   2.389   0.804  12.099  0.9336 -0.2748 -0.3968
 6702TIP3   OH241596   6.511   3.730   2.912  0.2827 -0.3694  0.2777
 6702TIP3    H141597   6.544   3.694   2.830 -1.0007 -0.1781 -0.3460
 6702TIP3    H241598   6.539   3.667   2.979  0.2628 -1.1811 -0.4657
 6703TIP3   OH241599   4.407   6.380   3.952  0.4124 -0.2947  0.6012
 6703TIP3    H141600   4.438   6.290   3.963  0.4452 -0.3459  0.1093
 6703TIP3    H241601   4.487   6.433   3.952  0.3190 -0.1158  2.2216
 6704TIP3   OH241602   0.093   4.178  13.977 -0.0941  0.2309  0.1556
 6704TIP3    H141603   0.004   4.208  13.964  0.0865  1.0462  0.7418
 6704TIP3    H241604   0.140   4.254  14.012  0.5645 -0.4889  0.8934
 6705TIP3   OH241605   2.336   1.163   4.042 -0.1614 -0.0232 -0.3164
 6705TIP3    H141606   2.392   1.116   4.104 -0.3868  0.3584  0.1900
 6705TIP3    H241607   2.382   1.159   3.959  0.0566 -0.7115 -0.1678
 6706TIP3   OH241608   2.495   1.528   4.607 -0.1434 -0.1536  0.3527
 6706TIP3    H141609   2.575   1.553   4.653  0.5102  0.7436 -1.1795
 6706TIP3    H241610   2.453   1.611   4.585 -2.1225 -0.6161  2.0761
 6707TIP3   OH241611   1.525   3.808  13.526  0.1552 -0.4077 -0.3846
 6707TIP3    H141612   1.616   3.782  13.510  0.2264 -0.9081  0.6885
 6707TIP3    H241613   1.520   3.816  13.622 -0.6621  0.6544 -0.5066
 6708TIP3   OH241614   6.751   6.217  16.880 -0.0820  0.4978 -0.0987
 6708TIP3    H141615   6.831   6.177  16.914 -0.0317  0.8555  0.2084
 6708TIP3    H241616   6.681   6.182  16.935 -0.0186  0.9498  0.2825
 6709TIP3   OH241617   2.457   5.342   5.284 -0.1110  0.0327 -0.4727
 6709TIP3    H141618   2.391   5.409   5.302 -1.9038 -1.1068 -2.3561
 6709TIP3    H241619   2.502   5.330   5.367 -2.4189  0.7361  0.9731
 6710TIP3   OH241620   0.155   1.381   1.814 -0.7114  0.7234 -0.1474
 6710TIP3    H141621   0.146   1.398   1.720 -0.0592 -0.4955 -0.4578
 6710TIP3    H241622   0.198   1.295   1.818  2.7160  2.3216  1.1824
 6711TIP3   OH241623   3.401   2.526   6.148  0.1709  0.7306  0.0768
 6711TIP3    H141624   3.469   2.538   6.214  0.6662  1.0523 -0.4824
 6711TIP3    H241625   3.348   2.454   6.182  1.3372 -0.1689  0.0798
 6712TIP3   OH241626   5.881   2.007   4.389  0.0850  0.2226  0.0318
 6712TIP3    H141627   5.876   2.102   4.377  1.8292  0.1063 -2.4648
 6712TIP3    H241628   5.967   1.992   4.428 -1.2381 -0.2457  3.0325
 6713TIP3   OH241629   4.809   1.090   3.970 -0.7279 -0.1546 -0.1679
 6713TIP3    H141630   4.741   1.144   4.010 -0.5897 -0.7630  0.9294
 6713TIP3    H241631   4.883   1.150   3.958 -2.0056  1.0054 -3.1247
 6714TIP3   OH241632   0.196   5.478   4.436 -0.2430 -0.5964  0.0835
 6714TIP3    H141633   0.275   5.427   4.419 -0.4113 -0.5103 -1.0259
 6714TIP3    H241634   0.214   5.563   4.396  0.0833  0.2903  1.9981
 6715TIP3   OH241635   0.423   3.706  13.193 -0.1901 -0.4182  0.0784
 6715TIP3    H141636   0.468   3.769  13.250 -1.4719  0.0999  0.5760
 6715TIP3    H241637   0.369   3.654  13.254  0.1743 -1.3975 -0.4300
 6716TIP3   OH241638   5.179   4.047  10.166 -0.5710 -1.0269 -0.1554
 6716TIP3    H141639   5.235   3.992  10.221 -0.3525 -0.9264 -0.2751
 6716TIP3    H241640   5.146   3.987  10.099 -1.1764 -1.2427  0.3317
 6717TIP3   OH241641   2.874   2.646   2.983  0.0881  0.3911 -0.2228
 6717TIP3    H141642   2.830   2.649   2.897 -1.9787 -1.7286  0.6509
 6717TIP3    H241643   2.930   2.569   2.978  0.5244  0.6889  0.0835
 6718TIP3   OH241644   1.469   4.751   3.247  0.3748 -0.4128  0.4749
 6718TIP3    H141645   1.378   4.742   3.275  0.3853  1.3977  1.2452
 6718TIP3    H241646   1.519   4.753   3.329  0.8951  0.4819  0.1554
 6719TIP3   OH241647   4.439   2.093  12.010  0.0692 -0.2741 -0.1315
 6719TIP3    H141648   4.469   2.178  12.043  0.7299 -0.3319 -0.5592
 6719TIP3    H241649   4.514   2.035  12.025 -0.2025 -0.6647 -0.2893
 6720TIP3   OH241650   3.648   6.776   2.966 -0.1038 -0.1761 -0.2753
 6720TIP3    H141651   3.624   6.868   2.959 -2.3242 -0.7911 -1.7741
 6720TIP3    H241652   3.603   6.745   3.045  2.0526  0.3384  1.2483
 6721TIP3   OH241653   6.395   3.389   5.334  0.0989  0.2688  0.2782
 6721TIP3    H141654   6.323   3.400   5.271  1.2593  1.0514 -0.9698
 6721TIP3    H241655   6.368   3.315   5.388 -0.9255 -0.4934 -1.1949
 6722TIP3   OH241656   6.478   4.176   4.433  0.1025 -0.4917 -0.1351
 6722TIP3    H141657   6.483   4.242   4.502 -0.8701 -1.3498  0.7802
 6722TIP3    H241658   6.473   4.226   4.352  0.6978  0.5362  0.4413
 6723TIP3   OH241659   4.018   4.301   4.700 -0.0720 -0.5571  0.0167
 6723TIP3    H141660   3.982   4.319   4.787 -0.9847  0.4901 -0.5473
 6723TIP3    H241661   3.967   4.227   4.668 -0.1990 -0.5139  0.1152
 6724TIP3   OH241662   0.234   1.266   2.878  0.1295 -0.5615 -0.6315
 6724TIP3    H141663   0.240   1.337   2.814 -0.3629 -0.0848 -0.1622
 6724TIP3    H241664   0.324   1.248   2.903  0.2480  0.0561 -0.5910
 6725TIP3   OH241665   0.058   2.323  12.459  0.2808 -0.2408  0.0001
 6725TIP3    H141666   0.134   2.284  12.503  1.2115 -1.1882 -2.2965
 6725TIP3    H241667   0.085   2.414  12.442  1.2519 -0.7600 -1.4358
 6726TIP3   OH241668   1.195   5.788   5.883  0.1854  0.0572 -0.0663
 6726TIP3    H141669   1.112   5.753   5.915  0.0268  0.7913  0.3486
 6726TIP3    H241670   1.258   5.718   5.901 -0.8517 -2.0277 -3.5873
 6727TIP3   OH241671   4.588   4.886   1.510 -0.1174  0.5526 -0.4626
 6727TIP3    H141672   4.648   4.957   1.528 -0.3578  0.8757 -0.9228
 6727TIP3    H241673   4.641   4.807   1.518 -0.3864  0.5566  2.6509
 6728TIP3   OH241674   4.251   3.854   2.628 -0.0849 -0.6174 -0.0190
 6728TIP3    H141675   4.178   3.902   2.666  1.0240  0.2013  1.1831
 6728TIP3    H241676   4.256   3.886   2.537 -0.5756  0.1079  0.2002
 6729TIP3   OH241677   0.708   0.213   0.325 -0.2234  0.1524  0.0110
 6729TIP3    H141678   0.708   0.271   0.401  0.0809  0.1135  0.0437
 6729TIP3    H241679   0.753   0.134   0.356 -0.8417 -0.1974  0.0377
 6730TIP3   OH241680   5.085   1.666   0.500 -0.7363  0.4392 -0.0793
 6730TIP3    H141681   5.101   1.758   0.477 -0.8774  1.0086  1.9429
 6730TIP3    H241682   5.162   1.640   0.550 -0.6075 -0.6391 -0.7949
 6731TIP3   OH241683   6.455   2.695  16.508  0.2461  0.3558  0.7983
 6731TIP3    H141684   6.543   2.680  16.543 -0.1820  0.4576  1.9327
 6731TIP3    H241685   6.435   2.614  16.461  0.7646  0.1531  0.9162
 6732TIP3   OH241686   5.661   5.416   4.823  0.0527 -0.1746 -0.0157
 6732TIP3    H141687   5.599   5.426   4.895  0.3844  0.9799  0.1257
 6732TIP3    H241688   5.609   5.377   4.752 -0.7558  0.4511  0.2198
 6733TIP3   OH241689   0.935   2.071   0.406 -0.5815 -0.5066  0.8101
 6733TIP3    H141690   0.989   2.020   0.466 -1.7463  0.0910  2.4579
 6733TIP3    H241691   0.990   2.083   0.328  1.2897 -0.6991  2.0328
 6734TIP3   OH241692   2.039   1.758   4.622 -0.2599 -0.1231 -0.3020
 6734TIP3    H141693   2.080   1.840   4.652 -0.2930 -0.2983  0.2296
 6734TIP3    H241694   1.948   1.781   4.607 -0.3652 -0.1551  0.2537
 6735TIP3   OH241695   0.022   1.844  11.059  0.1970  0.1539  0.1103
 6735TIP3    H141696   0.034   1.749  11.062 -3.2530 -0.4400 -0.2769
 6735TIP3    H241697  -0.012   1.866  11.146 -0.3397  0.7502 -0.2351
 6736TIP3   OH241698   0.957   2.564  13.036 -0.0206 -0.2608  0.7024
 6736TIP3    H141699   1.003   2.523  12.962 -0.9462 -1.3896  0.7213
 6736TIP3    H241700   0.919   2.644  12.999  0.3858 -0.2827  0.2199
 6737TIP3   OH241701   5.747   6.258   3.489 -0.0748 -0.0116 -0.3079
 6737TIP3    H141702   5.666   6.213   3.465  0.0576  0.1754 -1.1286
 6737TIP3    H241703   5.746   6.339   3.438 -0.4833  1.1244  1.4150
 6738TIP3   OH241704   1.137   3.381  13.699 -0.8580 -0.4070 -0.2400
 6738TIP3    H141705   1.173   3.350  13.781 -2.9248  1.0613  1.3291
 6738TIP3    H241706   1.070   3.317  13.676  0.5093 -1.4562 -1.4857
 6739TIP3   OH241707   4.263   1.769  13.692  0.0611  0.2404  0.0471
 6739TIP3    H141708   4.235   1.698  13.750 -0.3124  0.1014 -0.3029
 6739TIP3    H241709   4.255   1.734  13.604  0.3889  0.5381 -0.1056
 6740TIP3   OH241710   5.418   1.228   1.488 -0.3490  0.9020 -0.6547
 6740TIP3    H141711   5.389   1.305   1.536  0.7678  0.3046  1.0833
 6740TIP3    H241712   5.343   1.204   1.433 -1.2207  2.3679 -0.1563
 6741TIP3   OH241713   3.578   2.967  16.455  0.0320  0.1225  0.4003
 6741TIP3    H141714   3.561   2.873  16.454 -0.2350  0.1703 -0.3117
 6741TIP3    H241715   3.515   3.003  16.393  1.0004  0.6132 -0.3175
 6742TIP3   OH241716   1.687   1.309   5.055  0.0282 -0.0155 -0.0495
 6742TIP3    H141717   1.635   1.329   4.977 -2.5326  0.5613  1.6828
 6742TIP3    H241718   1.696   1.214   5.054 -0.4581 -0.0626 -0.7515
 6743TIP3   OH241719   3.151   0.360  14.233  0.7647  0.4913  0.0134
 6743TIP3    H141720   3.166   0.369  14.327 -0.4952  2.7905  0.0583
 6743TIP3    H241721   3.117   0.445  14.205 -0.5776 -0.6655 -2.2098
 6744TIP3   OH241722   3.954   2.807   0.825 -0.0051  0.3816  0.3893
 6744TIP3    H141723   4.025   2.753   0.858 -0.3370  0.2208  0.8566
 6744TIP3    H241724   3.973   2.818   0.732  1.5228  1.7330  0.8148
 6745TIP3   OH241725   6.102   4.268   1.240  0.4976 -0.1346  0.1413
 6745TIP3    H141726   6.184   4.243   1.197  0.2829 -0.5593 -0.0280
 6745TIP3    H241727   6.054   4.186   1.250  0.0165  0.1377  0.0860
 6746TIP3   OH241728   2.436   2.074   0.609 -0.0924  0.4889  0.4771
 6746TIP3    H141729   2.354   2.025   0.605  0.0639  0.3026 -1.5486
 6746TIP3    H241730   2.408   2.166   0.606 -0.2484  0.4387  0.3764
 6747TIP3   OH241731   1.036   2.508   6.474  0.1436 -0.1395 -0.0830
 6747TIP3    H141732   1.060   2.522   6.382  0.5809  1.9770  0.3031
 6747TIP3    H241733   0.955   2.557   6.485 -0.3691 -1.0855  0.4808
 6748TIP3   OH241734   2.930   3.753   1.377 -0.8325 -0.0601 -0.3892
 6748TIP3    H141735   2.919   3.781   1.286  2.0367  0.6621 -0.6211
 6748TIP3    H241736   3.013   3.792   1.404 -0.8180 -1.5585  2.0447
 6749TIP3   OH241737   1.736   3.327   4.650 -0.1244  0.2003  0.2440
 6749TIP3    H141738   1.798   3.358   4.717 -1.2392  1.5455  0.7149
 6749TIP3    H241739   1.656   3.377   4.667 -0.3494  0.8554 -2.3166
 6750TIP3   OH241740   2.425   4.094   1.310  0.8743  0.2882  0.5493
 6750TIP3    H141741   2.414   4.189   1.305  0.5196  0.3044  1.4039
 6750TIP3    H241742   2.496   4.075   1.249  1.4482  1.1971  0.9036
 6751TIP3   OH241743   6.505   4.605   2.983 -0.3508 -0.5855  0.2896
 6751TIP3    H141744   6.580   4.616   2.924 -1.6048 -0.2212 -1.2966
 6751TIP3    H241745   6.527   4.657   3.061  0.5609  0.4162 -0.6116
 6752TIP3   OH241746   6.600   2.608   1.771 -0.0119  0.4636  0.2585
 6752TIP3    H141747   6.695   2.598   1.783  0.1334  1.2316 -0.2059
 6752TIP3    H241748   6.589   2.625   1.678 -0.7597 -1.1339  0.0214
 6753TIP3   OH241749   4.688   0.986   2.736  0.1032 -0.6538  0.4504
 6753TIP3    H141750   4.764   0.933   2.760 -0.8291 -1.9146  0.7388
 6753TIP3    H241751   4.716   1.076   2.749  1.6001 -1.0930  0.3823
 6754TIP3   OH241752   4.444   4.320  12.844  0.4578  0.7756  0.2916
 6754TIP3    H141753   4.413   4.408  12.823 -1.5627  0.4624  1.7105
 6754TIP3    H241754   4.535   4.333  12.871 -0.3737  2.7780  2.4298
 6755TIP3   OH241755   3.652   5.255   1.353 -0.4302  0.2360 -0.6662
 6755TIP3    H141756   3.710   5.329   1.334  0.0249 -0.3497 -1.6504
 6755TIP3    H241757   3.707   5.178   1.339 -1.3895 -0.3298 -1.4330
 6756TIP3   OH241758   4.970   5.126   1.976 -0.4415 -0.0313  0.3744
 6756TIP3    H141759   4.946   5.079   1.896 -2.5622  0.8347  0.4379
 6756TIP3    H241760   4.923   5.080   2.046 -0.7598  0.8337  0.7372
 6757TIP3   OH241761   6.668   4.260  11.847 -0.2194 -0.5095  0.1388
 6757TIP3    H141762   6.753   4.300  11.828  0.0615 -1.3821 -0.4974
 6757TIP3    H241763   6.609   4.300  11.783 -0.2059 -0.1985  0.3190
 6758TIP3   OH241764   6.228   0.476  15.613 -0.0187  0.2622  0.2441
 6758TIP3    H141765   6.272   0.545  15.564 -0.6158 -0.0995 -0.8298
 6758TIP3    H241766   6.271   0.395  15.586  0.5683  0.1703  1.3761
 6759TIP3   OH241767   3.377   5.725  13.489  0.2823  0.1326 -0.4225
 6759TIP3    H141768   3.382   5.654  13.424 -1.4342 -0.2204 -0.2159
 6759TIP3    H241769   3.376   5.680  13.573 -0.3378  0.4129 -0.2735
 6760TIP3   OH241770   3.558   3.286  12.173  0.4604  0.2925  0.5681
 6760TIP3    H141771   3.505   3.365  12.159  1.5736  1.1141  0.8212
 6760TIP3    H241772   3.584   3.260  12.085 -0.8878 -0.5092  0.3873
 6761TIP3   OH241773   2.584   4.221   0.524  0.1945  0.1673  0.0207
 6761TIP3    H141774   2.644   4.271   0.580  1.1140  0.1617 -0.9262
 6761TIP3    H241775   2.540   4.161   0.584 -1.8753  2.8637  1.4401
 6762TIP3   OH241776   3.425   4.608   6.565  0.0568  0.7438  0.0526
 6762TIP3    H141777   3.452   4.516   6.560 -0.1337  0.6538  0.6644
 6762TIP3    H241778   3.449   4.644   6.479  0.4492  0.2117 -0.0680
 6763TIP3   OH241779   6.675   1.371  11.564  0.2739  0.0950 -0.5162
 6763TIP3    H141780   6.707   1.316  11.493 -1.8212  0.4968 -1.8758
 6763TIP3    H241781   6.647   1.452  11.520 -2.5344 -0.2301  0.4389
 6764TIP3   OH241782   2.219   0.438   1.915  0.2340  0.0717 -0.0443
 6764TIP3    H141783   2.221   0.487   1.833  0.3116 -0.2028 -0.2081
 6764TIP3    H241784   2.218   0.346   1.888 -2.1441 -0.0436  0.1809
 6765TIP3   OH241785   2.906   5.351  13.373  0.7767  0.1848  0.2525
 6765TIP3    H141786   2.830   5.352  13.315 -0.1758 -0.6381  1.4345
 6765TIP3    H241787   2.980   5.329  13.316 -0.3550 -2.1812 -0.4246
 6766TIP3   OH241788   5.211   4.175  10.911  0.1206 -0.1057 -0.0905
 6766TIP3    H141789   5.195   4.173  11.005  0.9118  0.2427  0.0632
 6766TIP3    H241790   5.181   4.262  10.883  1.0043  0.2639  0.0681
 6767TIP3   OH241791   5.121   1.010  14.083  0.5563  0.0956 -0.2955
 6767TIP3    H141792   5.091   0.921  14.100  1.4956  0.0030  1.0784
 6767TIP3    H241793   5.068   1.040  14.010  0.7925 -1.8909 -1.3479
 6768TIP3   OH241794   6.620   0.790  12.356  0.1663  0.1251  0.2141
 6768TIP3    H141795   6.689   0.829  12.410 -0.6413 -0.3405  1.6606
 6768TIP3    H241796   6.613   0.700  12.388 -0.1476 -0.2508 -0.8950
 6769TIP3   OH241797   4.326   4.401  12.138 -0.0679  0.2050 -0.6226
 6769TIP3    H141798   4.381   4.353  12.200  0.7705 -1.0076 -2.2334
 6769TIP3    H241799   4.308   4.339  12.068 -0.6099  1.6549 -1.8310
 6770TIP3   OH241800   0.301   1.693  12.623  0.8083 -0.4541  0.0231
 6770TIP3    H141801   0.231   1.649  12.576  0.3165  0.4248 -0.0784
 6770TIP3    H241802   0.358   1.729  12.554  1.4800 -1.3195  0.1016
 6771TIP3   OH241803   1.806   0.530  16.998 -0.1783  0.7269  0.0735
 6771TIP3    H141804   1.753   0.606  16.975 -0.3477  0.7361  0.4836
 6771TIP3    H241805   1.895   0.564  17.005 -0.3004  0.9488  0.5518
 6772TIP3   OH241806   3.733   2.752  10.998 -0.2050  0.1217  0.4119
 6772TIP3    H141807   3.828   2.750  11.007  0.2105  0.8115 -2.6060
 6772TIP3    H241808   3.704   2.665  11.026  1.6738 -1.0735 -1.1091
 6773TIP3   OH241809   0.213   6.287  11.137 -0.1568 -0.0960 -0.3911
 6773TIP3    H141810   0.256   6.352  11.081 -0.6031 -0.4402 -1.1547
 6773TIP3    H241811   0.235   6.203  11.096 -1.5891 -0.2745 -0.8445
 6774TIP3   OH241812   1.923   2.458  14.546  0.5346  0.0913  0.1800
 6774TIP3    H141813   2.017   2.453  14.531  0.4331 -0.9541 -0.1676
 6774TIP3    H241814   1.887   2.491  14.464  0.5536  0.0807  0.1674
 6775TIP3   OH241815   4.785   5.396  13.286  0.2591 -0.1703 -0.2565
 6775TIP3    H141816   4.690   5.408  13.285  0.0824 -1.3454 -0.0080
 6775TIP3    H241817   4.815   5.435  13.205 -0.5813 -0.6836 -0.8371
 6776TIP3   OH241818   5.661   3.908   5.199  0.4211  0.2237 -0.0880
 6776TIP3    H141819   5.712   3.989   5.188  0.2541  0.2337 -0.8240
 6776TIP3    H241820   5.724   3.846   5.236  0.2488  1.0179  1.6331
 6777TIP3   OH241821   5.266   4.033   2.445  0.1224 -0.4169  0.6279
 6777TIP3    H141822   5.222   4.019   2.529 -0.8908 -2.5140 -0.1738
 6777TIP3    H241823   5.215   3.981   2.383  2.1852 -0.7801 -0.8632
 6778TIP3   OH241824   1.957   1.225   2.066 -0.0267 -0.3573 -0.5491
 6778TIP3    H141825   1.910   1.164   2.123  0.3910 -1.2310 -1.1294
 6778TIP3    H241826   2.049   1.215   2.091 -0.1606  1.9794  1.1968
 6779TIP3   OH241827   4.277   6.043   0.146  0.0357  0.4076  0.2096
 6779TIP3    H141828   4.361   6.071   0.110 -0.6185  2.1360 -0.1241
 6779TIP3    H241829   4.281   6.069   0.238  0.6735 -1.5310  0.7681
 6780TIP3   OH241830   0.963   3.015  15.760 -0.2893 -0.1144 -0.6654
 6780TIP3    H141831   0.882   3.052  15.793 -1.1348 -1.2921 -1.3560
 6780TIP3    H241832   1.026   3.088  15.763 -0.5276  0.0834  2.6022
 6781TIP3   OH241833   5.073   5.380   0.045  0.2539 -0.5660 -0.1575
 6781TIP3    H141834   5.061   5.442  -0.027  0.5401 -1.4267 -0.9784
 6781TIP3    H241835   4.984   5.352   0.067  0.2202 -1.2556 -1.0731
 6782TIP3   OH241836   6.289   5.725  13.838  0.4315 -0.2214 -0.4393
 6782TIP3    H141837   6.241   5.732  13.921  0.2577 -2.5083 -0.2841
 6782TIP3    H241838   6.221   5.729  13.771  0.2766 -0.8300 -0.3315
 6783TIP3   OH241839   5.529   2.451  15.643  0.3264 -0.3677  0.1013
 6783TIP3    H141840   5.442   2.413  15.646 -0.0473  0.5215  1.3857
 6783TIP3    H241841   5.581   2.397  15.703  0.2253  0.1288  0.6357
 6784TIP3   OH241842   4.402   3.624   0.065 -0.2112 -0.5980 -0.5278
 6784TIP3    H141843   4.344   3.596   0.135 -0.0957  0.1299 -0.1250
 6784TIP3    H241844   4.344   3.661  -0.002 -0.2236  0.2305 -0.0772
 6785TIP3   OH241845   2.686   5.532   4.377 -0.1287 -0.0962 -0.4259
 6785TIP3    H141846   2.690   5.560   4.469 -2.5216  0.4069 -0.4050
 6785TIP3    H241847   2.613   5.470   4.374 -1.0278  0.9582 -2.2045
 6786TIP3   OH241848   5.287   4.368  16.181 -0.2055  0.1505  0.2900
 6786TIP3    H141849   5.258   4.459  16.176  0.0292  0.2167  0.1035
 6786TIP3    H241850   5.377   4.373  16.214 -0.0184  0.0204 -0.1915
 6787TIP3   OH241851   6.483   4.535  15.462  0.0828  0.2747 -0.0691
 6787TIP3    H141852   6.566   4.515  15.505 -0.6158 -1.0795  0.7423
 6787TIP3    H241853   6.431   4.580  15.529 -0.3347 -0.1594 -0.0941
 6788TIP3   OH241854   0.684   3.260  14.029  0.3142  0.6156 -0.0485
 6788TIP3    H141855   0.598   3.242  14.067 -0.6590  1.3594 -1.8060
 6788TIP3    H241856   0.707   3.179  13.982  0.4234  0.5452  0.1232
 6789TIP3   OH241857   1.859   2.123  14.249 -0.0941  0.2186  0.3293
 6789TIP3    H141858   1.793   2.189  14.231 -0.2371  0.5028  1.8240
 6789TIP3    H241859   1.938   2.155  14.204 -0.7242  0.2991 -0.7485
 6790TIP3   OH241860   0.430   1.117  17.117  0.1606 -0.1244 -0.2565
 6790TIP3    H141861   0.385   1.048  17.167  0.0187  0.7776  0.9276
 6790TIP3    H241862   0.514   1.127  17.161 -0.5756  1.7516  0.8479
 6791TIP3   OH241863   0.587   3.441   6.519 -0.4169  0.2145 -0.6110
 6791TIP3    H141864   0.496   3.459   6.499 -0.1938  1.0754 -0.8662
 6791TIP3    H241865   0.584   3.378   6.591 -1.2031  0.5966 -0.3101
 6792TIP3   OH241866   5.632   3.300  12.895  0.4346  0.2599  0.3966
 6792TIP3    H141867   5.712   3.249  12.884  0.5662  0.7835 -1.3621
 6792TIP3    H241868   5.598   3.312  12.806 -1.3439  0.4714  1.0510
 6793TIP3   OH241869   6.215   6.601  14.818 -0.1858  0.2106  0.1084
 6793TIP3    H141870   6.304   6.637  14.822 -0.3852  0.5977  2.5600
 6793TIP3    H241871   6.161   6.675  14.790  0.0762  0.3945  0.0790
 6794TIP3   OH241872   3.613   3.740  12.822  0.1169  0.2029 -0.1577
 6794TIP3    H141873   3.560   3.718  12.898 -1.7583  0.6302 -1.2741
 6794TIP3    H241874   3.619   3.836  12.823  1.4534  0.1417  0.2924
 6795TIP3   OH241875   2.364   2.717   1.958  0.2847 -0.2958 -0.4492
 6795TIP3    H141876   2.420   2.660   1.906  0.7802  0.9113 -1.2930
 6795TIP3    H241877   2.374   2.804   1.918  0.9428  0.7634  1.8672
 6796TIP3   OH241878   2.754   5.737  11.986  0.1736 -0.0509 -0.0398
 6796TIP3    H141879   2.667   5.714  11.953  0.0419  0.2310  0.1131
 6796TIP3    H241880   2.785   5.805  11.926  0.7702 -0.9495 -0.7978
 6797TIP3   OH241881   1.653   1.936  14.012  0.3736  0.0050  0.2642
 6797TIP3    H141882   1.625   2.010  13.959  0.0640 -0.2050  0.1306
 6797TIP3    H241883   1.722   1.971  14.068 -0.8453  0.7836  1.3337
 6798TIP3   OH241884   1.885   0.837   2.804 -0.0279  0.7358  0.2756
 6798TIP3    H141885   1.820   0.907   2.795 -0.0862  0.6334 -0.1347
 6798TIP3    H241886   1.968   0.880   2.783 -0.2354  0.3575 -1.4720
 6799TIP3   OH241887   2.235   0.082  11.308 -0.1939  0.1057 -0.3668
 6799TIP3    H141888   2.317   0.035  11.294 -0.1448  0.0673  0.0380
 6799TIP3    H241889   2.182   0.023  11.363  0.6443  1.3108  1.8950
 6800TIP3   OH241890   6.195   5.382   2.634 -0.0733 -0.2850  0.5066
 6800TIP3    H141891   6.196   5.291   2.663 -0.4827 -0.4027  0.1616
 6800TIP3    H241892   6.254   5.427   2.695  0.3728 -0.8331  0.4865
 6801TIP3   OH241893   5.221   5.554  13.914  0.2313 -0.5942 -0.2449
 6801TIP3    H141894   5.126   5.562  13.921  0.2621 -0.6818  0.3115
 6801TIP3    H241895   5.254   5.593  13.995  0.7317  0.6463 -1.0037
 6802TIP3   OH241896   0.592   6.081   0.390  0.0024  0.0391 -0.0853
 6802TIP3    H141897   0.554   6.046   0.310  0.4470 -1.5036  0.3488
 6802TIP3    H241898   0.684   6.095   0.368  0.4409 -1.6751  0.5096
 6803TIP3   OH241899   0.421   1.285   3.168 -0.1890  0.0402 -0.1509
 6803TIP3    H141900   0.483   1.253   3.234 -0.2416  0.5884  0.1731
 6803TIP3    H241901   0.429   1.223   3.095  2.0652  1.0261 -0.8731
 6804TIP3   OH241902   6.356   2.831   5.738  0.2532  0.1430  0.3483
 6804TIP3    H141903   6.378   2.848   5.830  2.0192 -1.2980  0.2508
 6804TIP3    H241904   6.348   2.736   5.732 -0.2602  0.2513 -0.9043
 6805TIP3   OH241905   5.547   5.898   1.838  0.7281 -0.0348 -0.8156
 6805TIP3    H141906   5.597   5.820   1.862  0.9361  0.1314 -0.7153
 6805TIP3    H241907   5.609   5.970   1.846  0.5210  0.1480 -0.8577
 6806TIP3   OH241908   4.006   4.735   0.617  0.3820 -0.1850 -0.2169
 6806TIP3    H141909   4.054   4.660   0.581 -0.3552 -0.9283  0.3023
 6806TIP3    H241910   3.978   4.707   0.704 -0.7536  0.3184 -0.3980
 6807TIP3   OH241911   1.944   3.893   1.035  0.2236 -0.2433  0.2073
 6807TIP3    H141912   1.920   3.853   0.951  1.7205 -0.9924  0.1015
 6807TIP3    H241913   1.909   3.832   1.101  1.4605 -1.1643  0.0594
 6808TIP3   OH241914   6.506   0.315  15.953  0.3348 -0.2885 -0.0681
 6808TIP3    H141915   6.413   0.295  15.939 -0.2000  0.4156  2.1224
 6808TIP3    H241916   6.524   0.285  16.042  1.5020  1.8788  0.4944
 6809TIP3   OH241917   3.322   4.153   4.640  0.2169  0.3609 -0.0666
 6809TIP3    H141918   3.366   4.170   4.724 -0.2721 -0.0129  0.2737
 6809TIP3    H241919   3.233   4.184   4.653 -1.1139 -3.3000  1.0177
 6810TIP3   OH241920   1.749   6.471  14.701 -0.3511 -0.3203  0.3765
 6810TIP3    H141921   1.736   6.563  14.681  2.2141 -0.1831 -1.1994
 6810TIP3    H241922   1.779   6.432  14.618  0.2638 -2.1813  1.4005
 6811TIP3   OH241923   3.037   5.774  13.665 -0.4568 -0.3363 -0.3811
 6811TIP3    H141924   3.018   5.684  13.691  0.8497 -0.6356 -0.4083
 6811TIP3    H241925   3.081   5.767  13.581 -1.2445  0.4053 -0.8777
 6812TIP3   OH241926   0.220   0.827  15.605 -0.0671 -0.2523 -0.2302
 6812TIP3    H141927   0.145   0.772  15.628 -0.6627 -0.3055 -2.1116
 6812TIP3    H241928   0.258   0.853  15.689 -1.4772 -1.1964  0.7388
 6813TIP3   OH241929   1.798   1.703   5.313  0.1351  0.5543 -0.2192
 6813TIP3    H141930   1.735   1.674   5.247 -1.1011  0.2904  1.0387
 6813TIP3    H241931   1.806   1.797   5.299 -0.4106  0.5634 -0.5029
 6814TIP3   OH241932   1.883   2.125   3.082  0.6933  0.0833 -0.4083
 6814TIP3    H141933   1.826   2.095   3.011 -1.1780  1.2975  0.4979
 6814TIP3    H241934   1.936   2.195   3.042  0.2349  0.1971 -0.8285
 6815TIP3   OH241935   2.685   4.808   6.147  0.2773 -0.3851 -0.7812
 6815TIP3    H141936   2.627   4.879   6.175  2.5840  2.1891 -1.9923
 6815TIP3    H241937   2.731   4.782   6.226 -0.6482 -0.5999 -0.3029
 6816TIP3   OH241938   1.514   6.623  14.900  0.1954  0.5508 -0.3213
 6816TIP3    H141939   1.492   6.600  14.810  1.1992  1.2589 -0.7676
 6816TIP3    H241940   1.583   6.689  14.892 -0.1626  1.1286  0.9535
 6817TIP3   OH241941   3.719   0.555  14.342  0.2420 -0.0031  0.4233
 6817TIP3    H141942   3.642   0.500  14.348 -0.9666  1.2426 -2.1304
 6817TIP3    H241943   3.701   0.629  14.401 -1.1690  0.9340 -1.1135
 6818TIP3   OH241944   4.990   5.018   0.924  0.7078 -0.1216 -0.0854
 6818TIP3    H141945   4.901   5.053   0.915  0.5835 -0.6025 -0.7829
 6818TIP3    H241946   4.985   4.958   0.998  0.5250  0.0793  0.0661
 6819TIP3   OH241947   3.117   3.415  15.658 -0.0891  0.3720  0.5026
 6819TIP3    H141948   3.062   3.494  15.661 -0.0755  0.3693  0.8808
 6819TIP3    H241949   3.204   3.446  15.681  0.2640  0.5301 -0.9443
 6820TIP3   OH241950   0.903   0.609   5.388  0.0886  0.4502 -0.2044
 6820TIP3    H141951   0.892   0.535   5.447  1.7468  0.6302  0.3670
 6820TIP3    H241952   0.883   0.686   5.442 -3.0053  0.4382 -1.1477
 6821TIP3   OH241953   6.543   0.757   3.699  0.1241  0.0453  0.8309
 6821TIP3    H141954   6.497   0.841   3.702 -0.4946 -0.2874  0.8916
 6821TIP3    H241955   6.634   0.779   3.680 -0.2956  0.6355 -0.6036
 6822TIP3   OH241956   0.538   4.194  14.512 -0.3382  0.0288 -0.1743
 6822TIP3    H141957   0.557   4.101  14.525  0.9347  0.4893  1.8102
 6822TIP3    H241958   0.443   4.197  14.501 -0.3343 -1.5566 -0.9973
 6823TIP3   OH241959   4.951   2.918  12.738 -0.0836  0.4034 -0.2131
 6823TIP3    H141960   4.975   2.993  12.793 -0.3778  1.7212 -1.8120
 6823TIP3    H241961   5.029   2.863  12.739  0.6470  1.4058 -0.1082
 6824TIP3   OH241962   1.280   2.045  16.222 -0.5044 -0.0762  0.1514
 6824TIP3    H141963   1.328   2.124  16.248 -0.3775 -0.3121  0.6344
 6824TIP3    H241964   1.312   1.977  16.281 -1.3095 -0.2765  0.3659
 6825TIP3   OH241965   3.401   4.628   5.407 -0.6527 -0.3144 -0.2285
 6825TIP3    H141966   3.438   4.596   5.324 -1.2846 -0.1065 -0.6007
 6825TIP3    H241967   3.357   4.709   5.383 -1.0206 -0.3672  0.2751
 6826TIP3   OH241968   0.564   0.489   0.072  0.1108  0.2855  0.0724
 6826TIP3    H141969   0.651   0.467   0.104 -0.4560  1.1022  2.3111
 6826TIP3    H241970   0.581   0.540  -0.008  1.5767 -1.4353 -0.7967
 6827TIP3   OH241971   3.643   0.816  15.621  0.2445  0.3603 -0.5898
 6827TIP3    H141972   3.615   0.726  15.606 -1.5071  1.1252 -2.2400
 6827TIP3    H241973   3.631   0.860  15.537 -4.2771  3.4595  1.2995
 6828TIP3   OH241974   0.472   5.696   0.701 -0.1703  0.2904 -0.2747
 6828TIP3    H141975   0.410   5.729   0.766 -0.2623 -0.7688  0.1987
 6828TIP3    H241976   0.526   5.772   0.679 -0.1567  0.6811  1.0301
 6829TIP3   OH241977   1.910   5.977  13.434 -0.1114  0.0747  0.2540
 6829TIP3    H141978   1.951   6.052  13.477  1.4960 -1.0192  0.7192
 6829TIP3    H241979   1.935   5.902  13.488 -2.2212 -0.7587  0.1698
 6830TIP3   OH241980   0.261   3.919  11.562  0.6623 -0.0182  0.6418
 6830TIP3    H141981   0.330   3.883  11.619  1.8342  1.1863  0.0204
 6830TIP3    H241982   0.304   3.990  11.514 -0.6780 -0.0991 -0.7310
 6831TIP3   OH241983   5.895   0.429   3.610 -0.7570  0.1268  0.6051
 6831TIP3    H141984   5.961   0.399   3.672  1.3242 -0.0156 -1.5290
 6831TIP3    H241985   5.859   0.509   3.649  1.0610  0.4844  1.6419
 6832TIP3   OH241986   6.100   2.422  14.229 -0.3685  0.2132  0.2236
 6832TIP3    H141987   6.131   2.511  14.249 -0.1893  0.0767  0.5730
 6832TIP3    H241988   6.176   2.379  14.189 -0.6412  0.3988 -0.5010
 6833TIP3   OH241989   3.900   3.649  10.935 -0.1499 -0.0116  0.2642
 6833TIP3    H141990   3.989   3.683  10.930 -0.2480  0.3371  0.7394
 6833TIP3    H241991   3.860   3.675  10.852  0.0235  0.3287  0.2814
 6834TIP3   OH241992   6.370   6.695   3.970 -0.4202  0.1115 -0.4787
 6834TIP3    H141993   6.370   6.736   3.884 -0.3321 -0.5283 -0.7914
 6834TIP3    H241994   6.349   6.603   3.953  0.4356 -0.2085  0.0864
 6835TIP3   OH241995   0.402   3.511   5.833  0.2161  0.8045 -0.0421
 6835TIP3    H141996   0.383   3.521   5.927  0.2704 -0.5556  0.1426
 6835TIP3    H241997   0.410   3.600   5.800 -0.7209  1.3280  1.0621
 6836TIP3   OH241998   5.431   2.360  14.869 -0.3869  0.0967 -0.7340
 6836TIP3    H141999   5.406   2.418  14.797 -1.5361 -0.3486 -0.7187
 6836TIP3    H242000   5.434   2.416  14.946 -1.7372  0.1167 -0.6718
 6837TIP3   OH242001   0.285   6.523  15.290  0.2658 -0.3677 -0.6678
 6837TIP3    H142002   0.219   6.462  15.324  0.3524 -0.0264  0.1284
 6837TIP3    H242003   0.337   6.547  15.366 -0.1995  1.2506 -0.8187
 6838TIP3   OH242004   5.722   6.314  15.572 -0.1826 -0.3380 -0.2329
 6838TIP3    H142005   5.682   6.289  15.654 -0.3774  0.1033 -0.1912
 6838TIP3    H242006   5.811   6.341  15.595 -0.5296  0.6759 -0.0270
 6839TIP3   OH242007   5.104   4.150   3.751  0.2251 -0.0806 -0.4646
 6839TIP3    H142008   5.056   4.124   3.830 -0.3513  1.2767 -0.3431
 6839TIP3    H242009   5.164   4.077   3.735  0.4323 -0.3517  1.2816
 6840TIP3   OH242010   0.595   2.708   4.037 -0.1767 -0.2220 -0.1130
 6840TIP3    H142011   0.617   2.787   3.988  0.6215  0.2349  0.9378
 6840TIP3    H242012   0.514   2.677   3.997 -0.8404  1.4681 -0.1623
 6841TIP3   OH242013   4.518   5.875  15.871  0.0589 -0.3536  0.8573
 6841TIP3    H142014   4.456   5.948  15.860 -1.8994 -2.2532 -1.9482
 6841TIP3    H242015   4.603   5.912  15.846 -0.9892  0.8905 -1.1704
 6842TIP3   OH242016   1.173   5.073  14.204  0.4642 -0.2463 -0.0108
 6842TIP3    H142017   1.112   5.081  14.277  0.3474  0.1341 -0.1469
 6842TIP3    H242018   1.243   5.135  14.225 -0.1379  0.7281 -0.7771
 6843TIP3   OH242019   2.885   5.623   4.224 -0.1356 -0.0338 -0.3938
 6843TIP3    H142020   2.811   5.594   4.277 -1.4456  2.6190 -0.6481
 6843TIP3    H242021   2.960   5.622   4.284 -0.7984 -0.6598  0.4432
 6844TIP3   OH242022   3.905   3.265  12.106 -0.1056  0.4463  0.2585
 6844TIP3    H142023   3.887   3.277  12.013 -1.6234 -1.8168  0.1893
 6844TIP3    H242024   3.998   3.286  12.115 -0.1360  1.6362 -1.5540
 6845TIP3   OH242025   0.942   6.653  11.617 -0.3589 -0.0861  0.2809
 6845TIP3    H142026   1.014   6.679  11.560 -0.0431  0.9321  1.1150
 6845TIP3    H242027   0.985   6.609  11.691 -0.4219  1.6836  1.4426
 6846TIP3   OH242028   5.859   6.222   5.153 -0.1381  0.1718 -0.1833
 6846TIP3    H142029   5.942   6.269   5.159 -0.9431  1.6789 -0.3150
 6846TIP3    H242030   5.883   6.133   5.127  1.3623  0.7959 -1.0283
 6847TIP3   OH242031   0.754   5.324   3.349  0.1749 -0.4079  0.1460
 6847TIP3    H142032   0.660   5.307   3.339 -0.1258  0.4268  1.3815
 6847TIP3    H242033   0.783   5.262   3.415  0.6933 -1.2211 -0.8133
 6848TIP3   OH242034   0.325   3.250  16.798 -0.2173 -0.0695  0.2881
 6848TIP3    H142035   0.367   3.321  16.846 -0.3292  0.9510 -1.0457
 6848TIP3    H242036   0.397   3.191  16.774  0.0212  0.1081  0.5641
 6849TIP3   OH242037   0.459   1.593   3.456  0.3642 -0.0363 -0.7442
 6849TIP3    H142038   0.538   1.570   3.407  0.6725 -0.8339  0.1090
 6849TIP3    H242039   0.465   1.543   3.538 -1.1208 -0.2685 -0.7423
 6850TIP3   OH242040   0.215   1.063  16.064 -0.1303  0.3760  0.1482
 6850TIP3    H142041   0.243   0.976  16.092 -0.3802  0.1226 -0.3645
 6850TIP3    H242042   0.208   1.113  16.145 -1.2681 -0.4604  0.6025
 6851TIP3   OH242043   0.683   5.875   3.978  0.4090 -0.9908 -0.1394
 6851TIP3    H142044   0.759   5.845   3.928  1.1349  1.0278 -0.3696
 6851TIP3    H242045   0.620   5.803   3.973  1.3596 -1.7548 -2.0135
 6852TIP3   OH242046   1.694   3.650   1.887  0.4945  0.1837 -0.2132
 6852TIP3    H142047   1.772   3.601   1.862  0.1061 -0.2274 -0.6301
 6852TIP3    H242048   1.626   3.584   1.898  0.0094  0.6037 -0.6161
 6853TIP3   OH242049   0.444   2.251   1.651  0.3942 -0.1091  0.3105
 6853TIP3    H142050   0.371   2.249   1.589 -0.9139 -1.1087  1.8170
 6853TIP3    H242051   0.457   2.344   1.670  0.5919  0.1914 -1.1536
 6854TIP3   OH242052   4.344   0.694   5.686 -0.4611  0.3031  0.2398
 6854TIP3    H142053   4.306   0.775   5.651 -3.2221 -1.6138 -1.6696
 6854TIP3    H242054   4.303   0.684   5.772 -0.9543  0.4185  0.0249
 6855TIP3   OH242055   3.696   5.552   3.122  0.0546  0.4128  0.1503
 6855TIP3    H142056   3.724   5.494   3.051 -1.5324 -1.1597  0.7236
 6855TIP3    H242057   3.751   5.527   3.197 -0.6306 -0.4135  0.3978
 6856TIP3   OH242058   1.441   0.279   4.500 -0.0939 -0.2892  0.5886
 6856TIP3    H142059   1.497   0.356   4.495  0.7432 -0.9531 -1.9384
 6856TIP3    H242060   1.460   0.240   4.585  0.5445  1.4637  1.2975
 6857TIP3   OH242061   1.500   3.877   2.606 -0.2619 -0.1330 -0.0901
 6857TIP3    H142062   1.544   3.839   2.682 -0.9973 -0.5595  0.1356
 6857TIP3    H242063   1.561   3.864   2.534 -0.2962 -1.3682  0.0723
 6858TIP3   OH242064   5.690   6.486  15.016 -0.4817 -0.8009  0.1546
 6858TIP3    H142065   5.764   6.430  14.993  0.4885 -0.3430  2.0253
 6858TIP3    H242066   5.667   6.529  14.933  1.7410 -0.5057 -0.3815
 6859TIP3   OH242067   5.213   2.456   2.151  0.3702 -0.4331  0.1186
 6859TIP3    H142068   5.213   2.369   2.192 -2.3094 -0.3486  0.4165
 6859TIP3    H242069   5.139   2.454   2.091 -1.0600  2.2978  1.6145
 6860TIP3   OH242070   6.427   6.193   4.458 -0.2247  0.2517  0.0815
 6860TIP3    H142071   6.372   6.189   4.380 -0.5548 -1.1448  0.3590
 6860TIP3    H242072   6.416   6.283   4.491 -1.5157  0.3075 -0.4481
 6861TIP3   OH242073   3.979   0.358  16.394  0.6125 -0.1227 -0.1288
 6861TIP3    H142074   3.972   0.262  16.397 -0.6382 -0.0787  3.2434
 6861TIP3    H242075   3.980   0.384  16.487  2.7901  3.0513 -0.8894
 6862TIP3   OH242076   5.619   0.267   4.886 -0.0940  0.0669  0.0431
 6862TIP3    H142077   5.663   0.350   4.869 -0.3337  0.0372 -0.7528
 6862TIP3    H242078   5.637   0.214   4.809 -1.0093 -0.1651 -0.0153
 6863TIP3   OH242079   4.938   1.069   4.296  1.0890 -0.3582 -0.1453
 6863TIP3    H142080   4.857   1.020   4.282  1.6465 -1.1850 -0.5016
 6863TIP3    H242081   5.005   1.020   4.249  1.4905  1.3185 -1.4243
 6864TIP3   OH242082   4.218   3.354  14.691 -0.3828  0.2728  0.1116
 6864TIP3    H142083   4.187   3.298  14.762 -0.8875 -0.3900 -0.6140
 6864TIP3    H242084   4.307   3.325  14.674 -0.0584  0.8107  0.8356
 6865TIP3   OH242085   3.266   4.303  11.136 -0.0771 -0.5523 -0.2773
 6865TIP3    H142086   3.193   4.363  11.119 -1.6874 -2.1010  0.8499
 6865TIP3    H242087   3.271   4.249  11.057  0.4760  0.1115 -0.7190
 6866TIP3   OH242088   0.978   3.695   1.029 -0.5872 -0.1634 -0.2387
 6866TIP3    H142089   0.971   3.678   1.123  2.9682 -0.9809  0.0373
 6866TIP3    H242090   0.970   3.609   0.988  0.9926 -0.2980 -0.3354
 6867TIP3   OH242091   2.038   6.793  12.351 -0.2469  0.0611 -0.0599
 6867TIP3    H142092   1.953   6.820  12.316  0.5625  1.3171 -1.1532
 6867TIP3    H242093   2.102   6.840  12.297  1.1196  0.1382  1.5541
 6868TIP3   OH242094   1.024   1.003  14.144 -0.0192 -0.3038  0.0478
 6868TIP3    H142095   1.035   1.096  14.121 -1.8103 -0.2027 -0.5414
 6868TIP3    H242096   0.937   0.980  14.110  0.2346 -2.1036  0.5278
 6869TIP3   OH242097   1.708   1.191   3.875  0.1866 -0.7994 -0.3242
 6869TIP3    H142098   1.695   1.285   3.866  2.2484 -0.5561 -1.2323
 6869TIP3    H242099   1.627   1.152   3.841 -0.0548  0.6094 -1.4257
 6870TIP3   OH242100   2.695   4.315   6.595  0.0872  0.6278 -0.0498
 6870TIP3    H142101   2.599   4.320   6.592  0.1128  0.6389 -1.0117
 6870TIP3    H242102   2.715   4.223   6.577  0.2170  0.2293  1.8581
 6871TIP3   OH242103   2.586   4.266   1.714 -0.3934  0.3015  0.4029
 6871TIP3    H142104   2.549   4.353   1.700 -0.0946  0.1451 -1.8557
 6871TIP3    H242105   2.607   4.235   1.625 -0.7348 -2.1757  1.1111
 6872TIP3   OH242106   3.541   0.152  17.202 -0.4567 -0.1526  0.2312
 6872TIP3    H142107   3.503   0.179  17.285 -1.2542 -0.6898  0.0589
 6872TIP3    H242108   3.514   0.061  17.192  1.2242 -0.6942  0.2780
 6873TIP3   OH242109   4.701   3.006   2.765  0.3213  0.4397 -0.4565
 6873TIP3    H142110   4.776   2.966   2.721  0.2696  0.4280 -0.5342
 6873TIP3    H242111   4.643   3.033   2.693  0.2698  0.4845 -0.3978
 6874TIP3   OH242112   6.561   5.158  10.920 -0.0615  0.2773  0.5007
 6874TIP3    H142113   6.634   5.207  10.958 -1.3208  0.5886  2.7142
 6874TIP3    H242114   6.602   5.083  10.877  1.6332  1.1127  0.5869
 6875TIP3   OH242115   6.329   3.351  15.992 -0.1207  0.0091 -0.0156
 6875TIP3    H142116   6.244   3.307  16.000 -0.1139 -0.0013 -0.0005
 6875TIP3    H242117   6.360   3.329  15.905 -0.5692  0.7890 -0.3894
 6876TIP3   OH242118   3.704   0.955  15.151 -0.0826 -0.1257 -0.0261
 6876TIP3    H142119   3.625   1.007  15.138 -0.8710 -0.8347  1.5749
 6876TIP3    H242120   3.772   1.001  15.102 -1.4166  0.6591 -1.2127
 6877TIP3   OH242121   2.042   5.520   1.765 -0.1608 -0.0008 -0.3158
 6877TIP3    H142122   2.119   5.496   1.816 -0.9575  0.1861  1.0265
 6877TIP3    H242123   2.047   5.615   1.758 -0.6484  0.0871  0.4281
 6878TIP3   OH242124   0.917   3.954   5.556 -0.1638 -0.1849  0.4658
 6878TIP3    H142125   0.892   3.862   5.547  1.7086 -0.5496 -2.2841
 6878TIP3    H242126   1.002   3.952   5.601  1.9510 -0.3305 -3.1286
 6879TIP3   OH242127   2.845   0.396   2.922 -0.2670  0.0869  0.1868
 6879TIP3    H142128   2.884   0.434   3.000  0.0404  3.0147 -1.2581
 6879TIP3    H242129   2.906   0.418   2.851 -0.9130 -1.7954 -1.0473
 6880TIP3   OH242130   1.346   1.065   0.808 -0.4414  0.1054 -0.0220
 6880TIP3    H142131   1.260   1.058   0.768 -0.5132  1.0282 -0.0518
 6880TIP3    H242132   1.359   1.159   0.821 -0.0005 -0.1039  1.2160
 6881TIP3   OH242133   6.199   2.652   2.956 -0.2472  0.4849  0.3182
 6881TIP3    H142134   6.160   2.669   3.042  1.0087  1.3948  0.7352
 6881TIP3    H242135   6.288   2.622   2.975  0.1918  1.1216 -0.6687
 6882TIP3   OH242136   6.705   2.513   3.277 -0.3640 -0.3445 -0.3243
 6882TIP3    H142137   6.721   2.596   3.230  0.3911  0.3064  1.0251
 6882TIP3    H242138   6.638   2.535   3.342  0.9585 -0.3382  1.1035
 6883TIP3   OH242139   4.870   6.583  14.558 -0.3261 -0.1818 -0.2664
 6883TIP3    H142140   4.929   6.574  14.484  0.2278 -1.8678  0.3556
 6883TIP3    H242141   4.901   6.520  14.623 -2.1685 -0.3823  0.4950
 6884TIP3   OH242142   6.252   1.940  15.603  0.3995 -0.4419 -0.0933
 6884TIP3    H142143   6.340   1.928  15.640  0.4797 -0.6431 -0.3425
 6884TIP3    H242144   6.227   2.028  15.629  1.1453  0.0489 -0.9730
 6885TIP3   OH242145   6.560   4.334   4.632 -0.6274  0.1620 -0.2817
 6885TIP3    H142146   6.639   4.318   4.581 -1.7696 -2.2352 -1.4760
 6885TIP3    H242147   6.566   4.274   4.706 -0.6958  0.9552  0.3714
 6886TIP3   OH242148   5.104   1.611  14.414 -0.0622  0.8113 -0.2764
 6886TIP3    H142149   5.064   1.555  14.348  0.0278  1.4011 -0.8389
 6886TIP3    H242150   5.127   1.552  14.485  0.6863  0.0129 -1.1606
 6887TIP3   OH242151   6.003   0.362  13.318 -0.0730  0.2949  0.0589
 6887TIP3    H142152   5.976   0.341  13.408  0.9206 -0.9895  0.0889
 6887TIP3    H242153   6.098   0.347  13.318 -0.3667 -2.0998 -1.7964
 6888TIP3   OH242154   6.707   5.099  12.866 -0.1061  0.3427  0.0397
 6888TIP3    H142155   6.692   5.008  12.839 -1.8583  0.5533  0.1724
 6888TIP3    H242156   6.643   5.113  12.936 -0.2451  1.8459 -0.3698
 6889TIP3   OH242157   2.530   2.204  14.578  0.7681 -0.2390  0.4110
 6889TIP3    H142158   2.546   2.248  14.661  0.9277  0.5780 -0.0473
 6889TIP3    H242159   2.528   2.274  14.512 -1.8135 -0.5551  0.0153
 6890TIP3   OH242160   5.619   2.352  12.948 -0.0225  0.1437  0.7532
 6890TIP3    H142161   5.652   2.281  12.893  0.3760 -0.0633  1.2440
 6890TIP3    H242162   5.525   2.352  12.933 -0.1868 -1.2256  1.5501
 6891TIP3   OH242163   3.801   4.598  11.166 -0.6234  0.0105  0.0751
 6891TIP3    H142164   3.865   4.531  11.187  0.4218  1.4191  1.6600
 6891TIP3    H242165   3.779   4.583  11.074  1.1378 -1.2079 -0.1888
 6892TIP3   OH242166   3.923   1.836   0.649 -0.2058  0.1278 -0.4840
 6892TIP3    H142167   3.838   1.875   0.668  0.3034  1.0059  0.0290
 6892TIP3    H242168   3.963   1.893   0.584 -0.3808 -0.8080 -1.4470
 6893TIP3   OH242169   2.920   0.101  10.739  0.1303 -0.2836 -0.1273
 6893TIP3    H142170   2.911   0.152  10.658  2.1642  0.6896  0.1905
 6893TIP3    H242171   2.901   0.011  10.713 -0.1445  0.1403 -1.4811
 6894TIP3   OH242172   6.796   0.709   1.674 -0.0152 -0.1217  0.3692
 6894TIP3    H142173   6.773   0.795   1.639 -1.8346 -0.3542  0.8864
 6894TIP3    H242174   6.820   0.726   1.765 -3.3710 -0.4109  1.4509
 6895TIP3   OH242175   5.123   1.889   5.282 -0.1832  0.0809 -0.2764
 6895TIP3    H142176   5.201   1.837   5.264 -1.0104 -0.9878 -0.8674
 6895TIP3    H242177   5.156   1.968   5.325  1.1128 -0.9386  0.6915
 6896TIP3   OH242178   4.080   5.167   2.278 -0.3339 -0.2125 -0.3507
 6896TIP3    H142179   4.047   5.188   2.190 -1.3913 -0.2745  0.0137
 6896TIP3    H242180   4.175   5.169   2.269 -0.4167 -1.0822 -1.6988
 6897TIP3   OH242181   2.018   1.310   4.822  0.4319  0.3739  0.5009
 6897TIP3    H142182   2.105   1.348   4.809  0.2780  1.1824  1.6138
 6897TIP3    H242183   1.969   1.333   4.743  0.8784  0.9795  0.3925
 6898TIP3   OH242184   4.900   4.779  11.211  0.4509 -0.0245  0.2078
 6898TIP3    H142185   4.837   4.843  11.244 -1.3514 -0.6611 -1.8026
 6898TIP3    H242186   4.971   4.832  11.176 -0.6232  0.8776 -0.6752
 6899TIP3   OH242187   0.088   1.458   1.563 -0.6583 -0.2070 -0.3467
 6899TIP3    H142188  -0.004   1.443   1.540 -1.6192  1.5324  1.9250
 6899TIP3    H242189   0.112   1.539   1.518 -1.4263  1.2521  1.7106
 6900TIP3   OH242190   4.764   6.074  11.353  0.1491 -0.1017  0.9010
 6900TIP3    H142191   4.763   6.165  11.320 -0.3103 -0.2736  0.4221
 6900TIP3    H242192   4.809   6.080  11.437  1.8383  0.2750  0.0243
 6901TIP3   OH242193   3.251   1.954  11.184  0.2755  0.0222  0.3252
 6901TIP3    H142194   3.164   1.994  11.174  0.7391  0.7680 -1.0181
 6901TIP3    H242195   3.237   1.861  11.169 -0.4368 -0.0004  1.0679
 6902TIP3   OH242196   0.824   1.321  13.511 -0.3307  0.3622 -0.0899
 6902TIP3    H142197   0.731   1.331  13.489 -0.6203  0.7841  1.2594
 6902TIP3    H242198   0.827   1.244  13.567 -0.1036  1.2730  1.1822
 6903TIP3   OH242199   5.766   4.833  12.002 -0.2303  0.3804  0.5753
 6903TIP3    H142200   5.768   4.738  11.990 -0.6680  0.4359  0.0105
 6903TIP3    H242201   5.691   4.848  12.060 -0.7165  0.4425 -0.0528
 6904TIP3   OH242202   6.039   2.138   0.708 -0.5322  0.0021 -0.1835
 6904TIP3    H142203   6.024   2.156   0.616  0.1165 -0.1629 -0.3290
 6904TIP3    H242204   5.955   2.156   0.751 -1.1098 -0.8736 -0.9367
 6905TIP3   OH242205   5.227   2.243  15.895  0.0648  0.4606  0.0820
 6905TIP3    H142206   5.239   2.338  15.897 -0.4877  0.5420  2.4080
 6905TIP3    H242207   5.266   2.213  15.977  2.3722 -1.6611 -1.6473
 6906TIP3   OH242208   3.194   2.822   2.372 -1.0492 -0.2366 -0.0735
 6906TIP3    H142209   3.275   2.784   2.405 -1.0330  0.2494  0.4760
 6906TIP3    H242210   3.146   2.749   2.333 -1.1805 -0.8966  1.2682
 6907TIP3   OH242211   0.423   5.307  13.230  0.2659  0.4573  0.0006
 6907TIP3    H142212   0.428   5.218  13.266  3.4978  0.6966  0.4963
 6907TIP3    H242213   0.382   5.359  13.299 -0.5856 -0.4115  0.1716
 6908TIP3   OH242214   3.761   4.264   3.669 -0.1505 -0.8271 -0.3695
 6908TIP3    H142215   3.819   4.289   3.741 -2.7380  0.3378  1.4828
 6908TIP3    H242216   3.729   4.347   3.634 -1.5418 -1.4086 -0.5543
 6909TIP3   OH242217   6.040   0.010   0.555 -0.2885 -0.9494  0.4834
 6909TIP3    H142218   5.969  -0.045   0.587 -0.4712 -1.2847 -0.4435
 6909TIP3    H242219   6.026   0.096   0.595  1.0692 -1.9941  3.4844
 6910TIP3   OH242220   2.667   1.350  14.525 -0.3133 -0.1504 -0.8534
 6910TIP3    H142221   2.700   1.405  14.453 -0.5022 -0.3121 -1.0653
 6910TIP3    H242222   2.736   1.286  14.539  0.1864  0.5268 -0.1777
 6911TIP3   OH242223   0.515   1.142  12.533  0.5433  0.0823 -0.4503
 6911TIP3    H142224   0.438   1.128  12.479 -0.5002 -1.5775  1.3329
 6911TIP3    H242225   0.481   1.150  12.622  2.3848  0.0373  0.3090
 6912TIP3   OH242226   2.811   2.736  11.670 -0.5419 -0.2597 -0.0700
 6912TIP3    H142227   2.797   2.750  11.576 -3.6445 -5.0477 -0.6698
 6912TIP3    H242228   2.745   2.789  11.713  0.4297  1.4064 -0.5504
 6913TIP3   OH242229   1.644   0.556   2.657  0.3347  0.2100 -0.4769
 6913TIP3    H142230   1.665   0.649   2.663 -0.2384  0.4194 -1.4289
 6913TIP3    H242231   1.584   0.550   2.582  0.5736 -0.9624 -0.5914
 6914TIP3   OH242232   4.441   3.212   2.905  0.1825  0.0410  0.5086
 6914TIP3    H142233   4.474   3.257   2.982  2.6514  0.5744 -0.7319
 6914TIP3    H242234   4.424   3.282   2.841 -0.2408 -0.4841  0.0329
 6915TIP3   OH242235   3.921   2.351  13.681 -0.4112  0.5891 -0.8804
 6915TIP3    H142236   3.999   2.308  13.644 -0.6048 -0.8524  0.2977
 6915TIP3    H242237   3.850   2.290  13.666 -0.6586  0.3372  1.0399
 6916TIP3   OH242238   1.585   2.864  13.424  0.0453  0.4055  0.0366
 6916TIP3    H142239   1.497   2.895  13.403  0.3627  0.5876 -1.1048
 6916TIP3    H242240   1.629   2.859  13.340  1.5295  1.5255  0.6905
 6917TIP3   OH242241   6.028   1.406   5.561 -0.1276 -0.1306 -0.3997
 6917TIP3    H142242   6.053   1.382   5.650 -1.6771  0.8474  0.3516
 6917TIP3    H242243   6.029   1.502   5.561 -2.0074 -0.0722 -0.8241
 6918TIP3   OH242244   3.892   4.980   2.103 -0.0285  0.4881  0.6045
 6918TIP3    H142245   3.813   4.939   2.136  0.1196  1.8720  2.8553
 6918TIP3    H242246   3.962   4.919   2.126 -0.4247 -1.2325 -2.2890
 6919TIP3   OH242247   4.752   1.925  11.506  0.1696  0.6392 -0.4870
 6919TIP3    H142248   4.786   1.840  11.534  0.8127  0.4311 -1.8247
 6919TIP3    H242249   4.659   1.922  11.529  0.4019 -0.0090  0.4195
 6920TIP3   OH242250   6.556   6.231  14.237  0.0145 -0.1541 -0.4614
 6920TIP3    H142251   6.607   6.311  14.245  0.6583 -0.5897 -0.1456
 6920TIP3    H242252   6.594   6.171  14.302  0.7223 -1.3523 -1.9360
 6921TIP3   OH242253   2.332   0.135   4.746  0.5811 -0.1325 -0.1374
 6921TIP3    H142254   2.302   0.047   4.771  0.4370  0.0337  0.2882
 6921TIP3    H242255   2.425   0.135   4.768  0.5789 -0.1755 -0.1279
 6922TIP3   OH242256   0.439   3.965  14.223  0.2245 -0.2394  0.2843
 6922TIP3    H142257   0.509   3.902  14.240 -0.5420 -1.1603  0.1366
 6922TIP3    H242258   0.378   3.918  14.166  0.0187  0.9133 -0.4773
 6923TIP3   OH242259   5.351   1.155   5.859 -0.3760  0.0505 -0.0865
 6923TIP3    H142260   5.311   1.180   5.943  0.7267  0.3463  0.3711
 6923TIP3    H242261   5.443   1.180   5.868 -0.2771  0.2906 -1.4717
 6924TIP3   OH242262   0.403   2.503  12.605  0.2675 -0.2508 -0.5042
 6924TIP3    H142263   0.456   2.431  12.570  0.2562 -1.1026  1.1357
 6924TIP3    H242264   0.425   2.506  12.698 -0.9224  0.8353 -0.2292
 6925TIP3   OH242265   6.489   5.282  13.620  0.1606  0.1481  0.7859
 6925TIP3    H142266   6.422   5.234  13.670  1.7009 -0.2913  2.5599
 6925TIP3    H242267   6.454   5.370  13.611 -1.6933 -0.6412 -0.4740
 6926TIP3   OH242268   1.839   0.281   3.172 -0.2708  0.0132 -0.2502
 6926TIP3    H142269   1.924   0.251   3.202 -0.3781 -0.1936 -0.1476
 6926TIP3    H242270   1.797   0.318   3.250  0.1716  1.1666 -0.5426
 6927TIP3   OH242271   2.181   3.947   5.184 -0.1401  0.4821  0.7708
 6927TIP3    H142272   2.175   3.879   5.252  0.6447 -1.3876 -0.9459
 6927TIP3    H242273   2.134   4.022   5.222 -2.1879 -1.3969  2.2611
 6928TIP3   OH242274   6.180   3.087   5.797 -0.4623 -0.4528 -0.4557
 6928TIP3    H142275   6.114   3.110   5.863  0.3683 -2.8237  1.3356
 6928TIP3    H242276   6.259   3.068   5.848  0.6747 -0.8662 -2.2923
 6929TIP3   OH242277   0.609   3.790   0.279 -0.0166 -0.3338 -0.2674
 6929TIP3    H142278   0.691   3.839   0.290  0.3116 -1.1930  1.3563
 6929TIP3    H242279   0.621   3.711   0.332 -2.6322  0.3939  1.5530
 6930TIP3   OH242280   2.088   5.350  16.481 -0.3227 -0.2016 -0.1341
 6930TIP3    H142281   2.019   5.415  16.469 -1.8223 -1.8190 -0.7072
 6930TIP3    H242282   2.081   5.292  16.405  1.4775 -0.6007 -0.0440
 6931TIP3   OH242283   1.314   2.895  12.238 -0.1514 -0.4308  0.1993
 6931TIP3    H142284   1.305   2.982  12.276 -0.9012 -0.5307  0.2630
 6931TIP3    H242285   1.275   2.904  12.151 -0.7419 -0.8454  0.4209
 6932TIP3   OH242286   5.525   1.233  11.130 -0.3967 -0.6021  0.1092
 6932TIP3    H142287   5.486   1.281  11.203  1.1801  0.3168  0.3970
 6932TIP3    H242288   5.514   1.141  11.153 -1.5734 -0.3689  0.5755
 6933TIP3   OH242289   5.673   2.233  12.207 -0.4308 -0.0378 -0.2289
 6933TIP3    H142290   5.607   2.298  12.232  0.1010  0.2166  0.5474
 6933TIP3    H242291   5.745   2.285  12.171 -0.2970 -0.2458 -0.2642
 6934TIP3   OH242292   3.129   4.613   1.769 -0.0357 -0.2175  0.5063
 6934TIP3    H142293   3.103   4.559   1.843 -0.9354 -1.2542 -0.5165
 6934TIP3    H242294   3.063   4.682   1.764  0.0606 -0.1112  0.7017
 6935TIP3   OH242295   4.918   0.988  16.214  0.2597 -0.0363 -0.7886
 6935TIP3    H142296   4.903   0.902  16.252 -0.8617 -0.5700 -2.3292
 6935TIP3    H242297   4.902   1.049  16.286  2.0106 -1.1087  0.5804
 6936TIP3   OH242298   4.170   6.145  16.731  0.0650 -0.1557 -0.2904
 6936TIP3    H142299   4.195   6.127  16.822 -1.5420  0.1841  0.2423
 6936TIP3    H242300   4.194   6.237  16.718  1.3050 -0.4983 -0.5928
 6937TIP3   OH242301   6.501   5.839  16.516 -0.1692  0.2937  0.1420
 6937TIP3    H142302   6.555   5.836  16.437  3.5651  0.3555  2.4746
 6937TIP3    H242303   6.456   5.755  16.519  1.0657 -0.4399 -1.1311
 6938TIP3   OH242304   1.890   3.914  15.840 -0.3639 -0.0801  0.0825
 6938TIP3    H142305   1.808   3.866  15.848  0.3298 -1.0555  1.8687
 6938TIP3    H242306   1.901   3.958  15.924  1.2110 -0.4105  0.0925
 6939TIP3   OH242307   0.368   2.031   5.429 -0.4454  0.4345 -0.5805
 6939TIP3    H142308   0.377   2.061   5.520 -2.1739 -3.0408  0.9018
 6939TIP3    H242309   0.274   2.034   5.412 -0.3919 -1.2701 -1.3264
 6940TIP3   OH242310   2.558   5.844   5.548 -0.5209 -0.2879  0.3416
 6940TIP3    H142311   2.522   5.844   5.459  2.2158  0.7344 -0.8709
 6940TIP3    H242312   2.543   5.933   5.579  0.1690 -0.0975  0.1464
 6941TIP3   OH242313   6.509   6.280  13.432 -0.4545  0.6934  0.7549
 6941TIP3    H142314   6.597   6.312  13.418  0.2304 -1.5422 -0.5929
 6941TIP3    H242315   6.452   6.354  13.410  1.0242  1.6074 -0.1373
 6942TIP3   OH242316   4.800   4.514  16.133  0.6945 -0.7292  0.0603
 6942TIP3    H142317   4.879   4.494  16.082  1.1594 -1.1362  0.9339
 6942TIP3    H242318   4.832   4.544  16.217 -0.0870 -0.7668  0.3797
 6943TIP3   OH242319   2.991   2.599  13.322  0.0259 -0.0126  0.0365
 6943TIP3    H142320   2.907   2.638  13.348  0.0421 -0.3330  0.5970
 6943TIP3    H242321   3.037   2.670  13.277  0.1739  0.7296  1.2882
 6944TIP3   OH242322   5.762   6.747  14.222  0.5876  0.5532  0.6986
 6944TIP3    H142323   5.771   6.744  14.127  0.6880  0.0813  0.7217
 6944TIP3    H242324   5.793   6.834  14.247 -2.6000  2.0740 -0.0504
 6945TIP3   OH242325   4.750   0.574  10.630 -0.0138  0.1108 -0.4611
 6945TIP3    H142326   4.740   0.558  10.536 -0.0221 -1.3865 -0.2292
 6945TIP3    H242327   4.780   0.491  10.666 -3.8733 -0.6968  1.4540
 6946TIP3   OH242328   4.361   4.509  16.336  0.1692  0.2322 -0.3303
 6946TIP3    H142329   4.405   4.480  16.416 -0.8372 -0.2815  0.0629
 6946TIP3    H242330   4.415   4.475  16.265  1.7549  1.7271  0.0899
 6947TIP3   OH242331   1.505   3.437   1.910 -0.3249 -0.0151  0.2975
 6947TIP3    H142332   1.413   3.415   1.892 -0.0737  0.5058 -1.8438
 6947TIP3    H242333   1.540   3.358   1.952 -1.3903 -0.7497 -0.1424
 6948TIP3   OH242334   5.982   4.108  15.342  0.2087 -0.1330  0.0686
 6948TIP3    H142335   5.900   4.152  15.317  0.0128 -0.9882 -0.8529
 6948TIP3    H242336   5.957   4.016  15.352  0.7576 -0.1671  1.2891
 6949TIP3   OH242337   5.234   0.647   4.431  0.0680  0.6449  0.5061
 6949TIP3    H142338   5.308   0.629   4.372  0.4432 -0.5185  1.3100
 6949TIP3    H242339   5.160   0.662   4.372  0.9763  2.1442 -0.3296
 6950TIP3   OH242340   4.479   4.307   3.717  0.3177 -0.0143 -0.2888
 6950TIP3    H142341   4.541   4.241   3.687  0.5736  0.1415 -0.0996
 6950TIP3    H242342   4.514   4.339   3.800 -1.2577 -1.6465  1.0781
 6951TIP3   OH242343   4.747   2.579  11.677 -0.0434 -0.9784 -0.7790
 6951TIP3    H142344   4.802   2.557  11.753 -0.7823 -1.1743 -0.2893
 6951TIP3    H242345   4.695   2.500  11.662 -1.8252 -0.0579  0.2143
 6952TIP3   OH242346   4.845   6.192  15.719 -0.3071 -0.0386 -0.6367
 6952TIP3    H142347   4.879   6.282  15.709 -1.3447  0.1665 -3.1617
 6952TIP3    H242348   4.783   6.182  15.646 -3.1434 -1.5324  1.7817
 6953TIP3   OH242349   1.722   1.740   3.408 -0.3406 -0.4227  0.2740
 6953TIP3    H142350   1.649   1.782   3.453 -0.1459  1.7695 -1.2965
 6953TIP3    H242351   1.689   1.725   3.319  0.3995 -1.4943  0.1651
 6954TIP3   OH242352   5.731   3.537   5.638 -0.5206 -0.1724 -0.5488
 6954TIP3    H142353   5.740   3.458   5.691 -0.1330 -0.3699 -0.8963
 6954TIP3    H242354   5.782   3.604   5.684 -0.4307 -0.2626 -0.5189
 6955TIP3   OH242355   1.866   1.378  13.934  0.4345  0.0176 -0.0670
 6955TIP3    H142356   1.923   1.423  13.995 -0.0318  0.6828 -0.1054
 6955TIP3    H242357   1.906   1.392  13.848  1.1657 -1.0381  0.0914
 6956TIP3   OH242358   5.902   2.697  16.823  0.0008  0.0693  0.3872
 6956TIP3    H142359   5.945   2.612  16.832  0.5279  0.3023  0.1725
 6956TIP3    H242360   5.952   2.741  16.754 -0.0466  0.6879  0.7430
 6957TIP3   OH242361   4.987   3.391  13.370  0.4033  0.3241  0.2087
 6957TIP3    H142362   5.029   3.371  13.287  1.0282  1.4290  0.2407
 6957TIP3    H242363   4.906   3.437  13.347  0.0531 -0.2727  0.2019
 6958TIP3   OH242364   5.420   4.226  14.362 -0.1197 -0.0457  0.1746
 6958TIP3    H142365   5.503   4.231  14.409 -0.7201  1.4474  1.1419
 6958TIP3    H242366   5.381   4.312  14.373 -0.4707  0.2782 -2.7870
 6959TIP3   OH242367   4.418   5.978  12.317  0.3587  0.1694 -0.6350
 6959TIP3    H142368   4.365   5.912  12.361 -0.8623  1.8377  0.5568
 6959TIP3    H242369   4.361   6.012  12.248  1.0856 -0.2160 -1.4376
 6960TIP3   OH242370   2.985   5.855  13.929 -0.1277  0.0530 -0.6517
 6960TIP3    H142371   2.980   5.825  13.838  0.6190  0.3440 -0.7907
 6960TIP3    H242372   2.979   5.950  13.923 -2.7906 -0.0094 -0.1917
 6961TIP3   OH242373   1.851   3.727   3.472 -0.8137  0.3284 -0.1378
 6961TIP3    H142374   1.823   3.804   3.423 -1.0793  0.5484  0.3546
 6961TIP3    H242375   1.863   3.659   3.405 -0.3897  0.8438 -0.5947
 6962TIP3   OH242376   3.873   4.068  10.884  0.0658  0.0276 -0.9840
 6962TIP3    H142377   3.880   4.076  10.789 -1.4124 -2.2796 -1.3810
 6962TIP3    H242378   3.812   4.138  10.909  1.0251  1.1151 -1.6096
 6963TIP3   OH242379   1.733   1.700  16.928  0.5277 -0.5802  0.1122
 6963TIP3    H142380   1.737   1.752  17.008 -0.9066  0.0940 -0.2146
 6963TIP3    H242381   1.659   1.738  16.879  1.1105 -1.2434 -1.3332
 6964TIP3   OH242382   2.473   2.902  12.033 -0.0352  0.7350  0.1730
 6964TIP3    H142383   2.427   2.839  12.088 -0.3286  0.3141 -0.5394
 6964TIP3    H242384   2.415   2.917  11.959  0.5278  0.9765 -0.2314
 6965TIP3   OH242385   6.706   1.321  15.108  0.9471  0.0753 -0.5424
 6965TIP3    H142386   6.770   1.388  15.130  0.7708  0.4221 -1.0732
 6965TIP3    H242387   6.717   1.254  15.176  1.2517  0.5500 -0.1199
 6966TIP3   OH242388   3.152   0.701  13.774  0.7169 -0.6552 -0.6913
 6966TIP3    H142389   3.111   0.786  13.757  1.4084 -0.6236 -2.4097
 6966TIP3    H242390   3.123   0.645  13.702  2.3376 -1.1064 -1.0456
 6967TIP3   OH242391   3.952   4.857  13.442 -0.4654  0.3314 -1.0718
 6967TIP3    H142392   3.906   4.775  13.420 -0.5607  0.3951 -1.1119
 6967TIP3    H242393   3.942   4.865  13.537  2.5059 -1.5058 -0.4817
 6968TIP3   OH242394   2.262   5.936  13.498  0.3811  0.0883 -0.2938
 6968TIP3    H142395   2.222   5.990  13.429 -1.7018 -0.5386  0.3658
 6968TIP3    H242396   2.355   5.958  13.493  0.0426  1.4178 -2.0932
 6969TIP3   OH242397   5.110   4.512   1.345 -0.4927 -1.3733 -0.4368
 6969TIP3    H142398   5.194   4.503   1.390 -0.5382 -0.8709 -0.2453
 6969TIP3    H242399   5.079   4.599   1.370 -1.3271 -1.7641 -0.0617
 6970TIP3   OH242400   5.524   3.531   3.726  0.3134 -0.2846  0.0170
 6970TIP3    H142401   5.575   3.612   3.730 -1.4091  0.8358  3.6638
 6970TIP3    H242402   5.433   3.561   3.715 -0.2411 -1.7845  0.3352
 6971TIP3   OH242403   5.680   5.888  11.879 -0.5020 -0.6778  0.3829
 6971TIP3    H142404   5.672   5.856  11.789 -1.1029 -1.2633  0.6371
 6971TIP3    H242405   5.591   5.915  11.903 -0.3742 -0.6755  0.8547
 6972TIP3   OH242406   3.806   0.243   6.562 -0.5269  0.1419 -0.1521
 6972TIP3    H142407   3.713   0.256   6.582 -0.1149  0.2856  1.8370
 6972TIP3    H242408   3.807   0.166   6.506 -1.8492  0.1317 -0.2056
 6973TIP3   OH242409   5.112   3.732   4.714  0.0314  0.1898  0.2873
 6973TIP3    H142410   5.030   3.708   4.757 -0.3499 -0.4745 -0.7679
 6973TIP3    H242411   5.154   3.649   4.694  0.7334  0.5173  0.3746
 6974TIP3   OH242412   2.148   5.723   3.324 -0.0095 -0.9641 -0.5316
 6974TIP3    H142413   2.189   5.698   3.240  0.8994  0.9516 -0.7121
 6974TIP3    H242414   2.221   5.755   3.377 -1.0111  0.8888 -0.2063
 6975TIP3   OH242415   1.417   1.283   4.931 -0.1041  0.6981  0.1214
 6975TIP3    H142416   1.357   1.335   4.877 -1.2246 -1.1983 -0.5625
 6975TIP3    H242417   1.473   1.237   4.868 -0.9303 -0.9710  0.5462
 6976TIP3   OH242418   4.849   1.280  12.391  0.1509  0.4304  0.0299
 6976TIP3    H142419   4.907   1.266  12.467  0.3966  1.0554 -0.0366
 6976TIP3    H242420   4.899   1.247  12.317 -0.6816 -1.5894  0.2981
 6977TIP3   OH242421   4.732   3.048   5.217 -0.1163 -0.2821  0.3713
 6977TIP3    H142422   4.763   3.107   5.149  0.7361 -2.6158 -1.4002
 6977TIP3    H242423   4.659   3.000   5.176 -2.1880  0.8636  2.4440
 6978TIP3   OH242424   5.852   6.729  15.005 -0.0813  0.2219  0.6254
 6978TIP3    H142425   5.836   6.635  15.011  2.1456 -0.1890  0.8546
 6978TIP3    H242426   5.766   6.769  15.016 -0.9487 -1.7507  1.3855
 6979TIP3   OH242427   0.680   0.059   5.265 -0.0305 -0.6145  0.6789
 6979TIP3    H142428   0.619  -0.001   5.223  0.2240 -0.5660  0.2377
 6979TIP3    H242429   0.686   0.029   5.355 -1.0980 -0.3161  0.8582
 6980TIP3   OH242430   4.326   4.706   3.121 -0.4059 -0.1637  0.1660
 6980TIP3    H142431   4.408   4.675   3.084  0.7054  3.9922 -1.3115
 6980TIP3    H242432   4.277   4.740   3.046 -1.4438  1.5725  1.5517
 6981TIP3   OH242433   4.179   6.445   4.111  0.1208 -0.6756  0.1833
 6981TIP3    H142434   4.160   6.372   4.170 -0.8848 -0.7657 -0.2464
 6981TIP3    H242435   4.253   6.414   4.058 -0.5050 -1.5220 -0.2192
 6982TIP3   OH242436   6.115   5.782  16.287 -0.6852 -0.0375  0.6758
 6982TIP3    H142437   6.205   5.752  16.272 -0.3709  0.6579  1.1162
 6982TIP3    H242438   6.125   5.867  16.331 -1.5592 -1.1624  3.2300
 6983TIP3   OH242439   6.235   6.131   2.862 -0.2208 -0.3473 -0.1002
 6983TIP3    H142440   6.163   6.070   2.849 -0.1037 -0.6532  0.6282
 6983TIP3    H242441   6.266   6.113   2.951  1.4657 -0.9799 -0.7784
 6984TIP3   OH242442   1.170   3.545  10.807  0.5223  0.5357  0.3520
 6984TIP3    H142443   1.205   3.569  10.722  1.1309  0.6714  0.6370
 6984TIP3    H242444   1.094   3.603  10.819  0.4128  0.4872 -0.1073
 6985TIP3   OH242445   1.644   6.227  10.408  0.5854  0.4646 -0.0127
 6985TIP3    H142446   1.595   6.282  10.347  0.2727  0.2783  0.0659
 6985TIP3    H242447   1.719   6.195  10.358 -0.0408 -0.2446 -0.5155
 6986TIP3   OH242448   4.996   2.566   5.557  0.5513 -0.3648  0.0017
 6986TIP3    H142449   4.964   2.475   5.558 -0.1639 -0.1502  1.6959
 6986TIP3    H242450   4.933   2.612   5.502  0.8566 -0.8678 -0.7862
 6987TIP3   OH242451   6.157   2.049  12.052 -0.4063 -0.4821 -0.9140
 6987TIP3    H142452   6.197   1.982  11.996  0.1201 -2.2214  1.3669
 6987TIP3    H242453   6.070   2.062  12.015 -0.3197 -2.0435 -1.7794
 6988TIP3   OH242454   5.055   3.838   3.966 -0.1521  0.4539  0.1547
 6988TIP3    H142455   4.973   3.792   3.980 -1.8063  3.4086  1.1220
 6988TIP3    H242456   5.062   3.844   3.870 -0.6701 -0.4445  0.0458
 6989TIP3   OH242457   1.039   3.383   5.919  0.2000 -0.6236  0.1252
 6989TIP3    H142458   0.978   3.319   5.957 -0.3745  0.3457  0.8743
 6989TIP3    H242459   0.983   3.447   5.876  0.7745 -0.6065 -0.6249
 6990TIP3   OH242460   2.940   2.924   1.388 -0.2918 -0.4439  0.5449
 6990TIP3    H142461   2.920   2.952   1.477  2.3955  0.8836  0.8346
 6990TIP3    H242462   2.886   2.979   1.332  0.5458  1.2209  1.3058
 6991TIP3   OH242463   4.435   5.829  17.007 -0.2914 -0.3636 -0.0530
 6991TIP3    H142464   4.515   5.816  17.057  0.0008  0.9953 -0.1256
 6991TIP3    H242465   4.382   5.887  17.061  0.0575  1.1919 -1.2968
 6992TIP3   OH242466   4.012   0.301   3.441 -0.1706  0.4968  0.3230
 6992TIP3    H142467   4.035   0.208   3.439 -1.1905  0.1040  3.0485
 6992TIP3    H242468   4.094   0.346   3.422  0.5718 -0.9374 -0.0181
 6993TIP3   OH242469   5.003   5.914   1.303 -0.1889 -0.7696 -0.5434
 6993TIP3    H142470   5.089   5.924   1.263 -0.3837 -0.2560 -0.8371
 6993TIP3    H242471   4.974   5.827   1.278  0.2924 -0.9873 -0.3491
 6994TIP3   OH242472   2.950   4.481  14.454  0.0371 -0.1692  0.0456
 6994TIP3    H142473   2.971   4.453  14.543 -2.9172  0.0044  0.9115
 6994TIP3    H242474   2.878   4.424  14.427 -1.2780  1.7950 -0.9250
 6995TIP3   OH242475   1.325   6.449   0.677  0.3038 -0.4867  0.3784
 6995TIP3    H142476   1.333   6.469   0.771 -1.2700  0.0765  0.4316
 6995TIP3    H242477   1.243   6.400   0.671  0.3918 -0.5114 -0.7080
 6996TIP3   OH242478   1.105   0.395  13.507  0.1381 -0.0920  0.1843
 6996TIP3    H142479   1.190   0.436  13.519 -0.3972  1.5231 -1.2090
 6996TIP3    H242480   1.109   0.356  13.420 -0.4317 -0.2885  0.2398
 6997TIP3   OH242481   2.399   4.062   5.067  0.4214 -0.0626  0.2945
 6997TIP3    H142482   2.342   4.009   5.122 -0.4476  0.9147  0.3833
 6997TIP3    H242483   2.437   4.127   5.126  0.7460 -0.0143  0.0343
 6998TIP3   OH242484   4.705   0.595  15.406  0.0433  0.6562  0.2292
 6998TIP3    H142485   4.766   0.654  15.364  1.7885 -1.7103 -0.7678
 6998TIP3    H242486   4.690   0.525  15.342 -1.5056 -0.2809  1.5183
 6999TIP3   OH242487   5.540   4.100  10.216 -0.0093 -0.5996  0.2119
 6999TIP3    H142488   5.543   4.135  10.126 -2.0313  0.6318  0.5619
 6999TIP3    H242489   5.500   4.014  10.207  2.2765 -1.6911 -0.3139
 7000TIP3   OH242490   3.186   1.699   6.566  0.3589  0.2300 -0.5841
 7000TIP3    H142491   3.126   1.748   6.622  1.1719 -1.4263  1.9342
 7000TIP3    H242492   3.256   1.761   6.545  0.3607  0.7461  0.8414
 7001TIP3   OH242493   0.080   4.816  13.448  0.4789 -0.0814 -0.5013
 7001TIP3    H142494   0.077   4.721  13.457 -0.1720  0.0267  0.5574
 7001TIP3    H242495   0.093   4.849  13.537 -0.9609  0.8727 -0.6057
 7002TIP3   OH242496   2.156   4.282  13.293 -0.1374  0.3197 -0.4121
 7002TIP3    H142497   2.153   4.274  13.388  0.1764  0.4420 -0.3884
 7002TIP3    H242498   2.201   4.366  13.278  0.9469 -0.2854 -0.6740
 7003TIP3   OH242499   4.801   6.245   1.229  0.4153 -0.0619  0.6259
 7003TIP3    H142500   4.856   6.195   1.169  0.4720  1.1906 -0.4116
 7003TIP3    H242501   4.712   6.212   1.212  0.6355 -0.9880  1.1856
 7004TIP3   OH242502   0.289   5.467   1.304  0.1355 -0.3559  0.6335
 7004TIP3    H142503   0.255   5.461   1.393 -4.1757 -1.3291 -0.8315
 7004TIP3    H242504   0.319   5.378   1.284  0.4657 -0.3020  0.8839
 7005TIP3   OH242505   3.320   1.186  14.467  0.7962 -0.2613  0.4946
 7005TIP3    H142506   3.348   1.098  14.443  1.5157  0.1518 -0.2402
 7005TIP3    H242507   3.352   1.197  14.557  0.3351 -0.8974  0.7416
 7006TIP3   OH242508   2.465   3.427  12.173 -0.4155 -0.6364  0.4208
 7006TIP3    H142509   2.375   3.398  12.159 -0.3295 -0.5974 -0.2586
 7006TIP3    H242510   2.456   3.515  12.209 -0.6517 -0.1301 -0.8279
 7007TIP3   OH242511   0.273   1.543   4.974 -0.1522 -0.5355 -0.6056
 7007TIP3    H142512   0.274   1.595   4.893 -0.4242  0.7453  0.1845
 7007TIP3    H242513   0.202   1.481   4.962 -0.5773  0.0369 -1.1297
 7008TIP3   OH242514   2.285   0.357   2.374 -0.0449  0.8553 -0.3489
 7008TIP3    H142515   2.362   0.332   2.323  0.7846 -0.8156  1.5772
 7008TIP3    H242516   2.213   0.357   2.311  1.0874 -0.1641 -1.7026
 7009TIP3   OH242517   1.287   4.819  15.897  0.1075  0.3436  1.1258
 7009TIP3    H142518   1.300   4.804  15.803  0.3395  0.5799  1.1199
 7009TIP3    H242519   1.205   4.773  15.918  0.4037 -0.2814  0.9450
 7010TIP3   OH242520   1.451   1.477   5.210  0.2642  0.2988  0.4134
 7010TIP3    H142521   1.504   1.536   5.156 -1.9913  0.8876 -1.3051
 7010TIP3    H242522   1.454   1.393   5.164  0.2499  0.1445  0.6901
 7011TIP3   OH242523   6.326   0.207   4.063 -0.3731 -0.4455  0.5111
 7011TIP3    H142524   6.414   0.199   4.099 -0.0832  1.4309  0.3166
 7011TIP3    H242525   6.335   0.185   3.970 -0.0713 -0.1177  0.4619
 7012TIP3   OH242526   3.453   5.630   3.180 -0.1893 -0.1314 -0.1277
 7012TIP3    H142527   3.540   5.601   3.152 -1.1671 -3.2438 -0.3623
 7012TIP3    H242528   3.402   5.549   3.186 -2.5058  1.3371  2.0624
 7013TIP3   OH242529   2.726   2.977  16.477  0.1676 -0.4224 -0.0175
 7013TIP3    H142530   2.664   3.046  16.500 -1.5640 -1.7344 -0.5317
 7013TIP3    H242531   2.762   2.949  16.561 -2.4682 -1.8640  0.7461
 7014TIP3   OH242532   2.960   5.664   0.622  0.3443 -0.6136  0.2543
 7014TIP3    H142533   3.052   5.641   0.614  0.5578 -0.2791  1.5474
 7014TIP3    H242534   2.947   5.736   0.560  0.8068 -1.0474 -0.3520
 7015TIP3   OH242535   6.736   5.424  15.159 -0.2291 -0.4461 -0.8821
 7015TIP3    H142536   6.743   5.356  15.092  0.1915  0.1521 -1.4612
 7015TIP3    H242537   6.732   5.376  15.241 -1.3371 -1.2186 -1.3616
 7016TIP3   OH242538   6.165   5.102   0.182 -0.2154  0.1141  0.5044
 7016TIP3    H142539   6.153   5.173   0.245  1.6776  0.7632  0.2188
 7016TIP3    H242540   6.158   5.022   0.235  0.7843  0.6277  1.4731
 7017TIP3   OH242541   4.999   6.168   1.031 -0.1540 -0.1955  0.1184
 7017TIP3    H142542   5.038   6.086   1.059  0.7605  0.0663 -0.3488
 7017TIP3    H242543   5.073   6.227   1.018 -0.7742  0.6043  0.1260
 7018TIP3   OH242544   4.430   4.653   4.178 -0.3997 -0.2261 -0.0317
 7018TIP3    H142545   4.337   4.644   4.200 -0.0426  0.0700  1.7659
 7018TIP3    H242546   4.454   4.741   4.209  0.6907 -0.6692  0.4614
 7019TIP3   OH242547   3.736   0.690   5.758  0.1711 -0.2667  0.8708
 7019TIP3    H142548   3.703   0.772   5.794  2.1144  0.3490  1.4049
 7019TIP3    H242549   3.664   0.628   5.769 -2.3265  1.8803 -1.8415
 7020TIP3   OH242550   6.464   2.373  14.491 -0.0629  0.3133 -0.0559
 7020TIP3    H142551   6.485   2.450  14.545  0.2553 -0.0770  0.3882
 7020TIP3    H242552   6.429   2.309  14.553 -1.5122  0.5250 -0.6069
 7021TIP3   OH242553   3.724   2.334  15.206  0.2785 -0.2329  0.5812
 7021TIP3    H142554   3.739   2.348  15.299  1.2342 -0.9626  0.5481
 7021TIP3    H242555   3.715   2.240  15.196  0.1405 -0.1593 -0.0654
 7022TIP3   OH242556   4.066   2.591   2.877  0.3278  0.4631 -0.0375
 7022TIP3    H142557   3.971   2.602   2.868  0.3169  0.5716  0.2203
 7022TIP3    H242558   4.078   2.496   2.885  0.2869  0.4075 -0.5993
 7023TIP3   OH242559   1.072   2.599   5.382  0.1379 -0.2040 -0.2726
 7023TIP3    H142560   1.106   2.683   5.352 -0.6635  0.3410  0.3193
 7023TIP3    H242561   0.996   2.621   5.436  1.2780 -1.1575  1.8361
 7024TIP3   OH242562   0.636   6.597  13.199 -0.5418 -0.3738  0.2455
 7024TIP3    H142563   0.598   6.610  13.286 -0.5325 -0.9139  0.3332
 7024TIP3    H242564   0.665   6.506  13.199 -2.9841 -1.2419 -1.2537
 7025TIP3   OH242565   0.889   4.042  11.412  0.2234 -0.3199  0.3283
 7025TIP3    H142566   0.851   4.105  11.351  1.4525 -0.5021 -0.6685
 7025TIP3    H242567   0.824   3.972  11.418 -0.9304  0.7936  1.0592
 7026TIP3   OH242568   5.347   0.008   4.090  0.2704 -0.6214 -0.4528
 7026TIP3    H142569   5.306  -0.059   4.145  0.8079 -1.2348 -0.7734
 7026TIP3    H242570   5.394  -0.042   4.023  1.7415  0.0265  0.0481
 7027TIP3   OH242571   4.142   5.740   2.754 -0.5060  0.0911  0.5325
 7027TIP3    H142572   4.098   5.819   2.723 -0.0266 -0.4122 -1.5393
 7027TIP3    H242573   4.075   5.672   2.747  0.2924 -0.5279 -1.9251
 7028TIP3   OH242574   4.178   5.265  15.313 -0.1660 -0.2843  0.0141
 7028TIP3    H142575   4.173   5.234  15.222  0.4227  0.4839 -0.2938
 7028TIP3    H242576   4.090   5.251  15.348 -0.3203 -0.8575 -0.5843
 7029TIP3   OH242577   2.931   2.155  16.705 -0.1039  0.3701 -0.0607
 7029TIP3    H142578   2.980   2.101  16.644  1.2290  0.4223  0.9179
 7029TIP3    H242579   2.956   2.245  16.682 -0.7608  0.4775 -0.3865
 7030TIP3   OH242580   4.420   0.572   6.224  1.2052 -0.5341 -0.1984
 7030TIP3    H142581   4.464   0.527   6.152 -0.8649 -1.2131 -1.0878
 7030TIP3    H242582   4.481   0.643   6.248  1.6724  0.1636 -3.0631
 7031TIP3   OH242583   2.130   0.953   2.729  0.5338  0.0153  0.3374
 7031TIP3    H142584   2.172   0.869   2.743  2.6085  0.7889 -0.7943
 7031TIP3    H242585   2.178   1.014   2.784 -0.1106  0.6897  0.1746
 7032TIP3   OH242586   2.778   1.259   2.077 -0.0086  0.2146 -0.0546
 7032TIP3    H142587   2.772   1.211   2.160  1.1693 -0.5732 -0.4011
 7032TIP3    H242588   2.852   1.219   2.031  1.0310  2.3573 -0.3748
 7033TIP3   OH242589   0.846   3.389   1.662  0.3425  0.0825  0.0808
 7033TIP3    H142590   0.803   3.466   1.624  0.8331 -0.0663 -0.8134
 7033TIP3    H242591   0.917   3.425   1.715  2.4411  0.2469 -2.6334
 7034TIP3   OH242592   3.106   5.132  14.117  0.2794 -0.4390  0.0934
 7034TIP3    H142593   3.169   5.197  14.086 -0.9292  1.6369  1.7422
 7034TIP3    H242594   3.111   5.136  14.212 -0.4750 -2.1681  0.2548
 7035TIP3   OH242595   1.841   6.493  13.672 -0.0182  0.5337 -0.1369
 7035TIP3    H142596   1.908   6.478  13.605  1.2173  0.9451  0.9662
 7035TIP3    H242597   1.869   6.573  13.717  0.5230 -0.9681  2.4066
 7036TIP3   OH242598   6.686   6.274   4.141 -0.1538 -0.0336  0.0107
 7036TIP3    H142599   6.602   6.232   4.123 -0.0178  0.1121 -1.0092
 7036TIP3    H242600   6.693   6.343   4.075 -1.2774  2.9938  2.8008
 7037TIP3   OH242601   1.588   1.493  13.897 -0.2107  0.2204 -0.6407
 7037TIP3    H142602   1.655   1.439  13.938 -1.3614  0.3751  1.6190
 7037TIP3    H242603   1.633   1.574  13.873  0.7960 -0.4072 -0.9294
 7038TIP3   OH242604   2.574   1.948   3.706 -0.1700 -0.2102  0.8444
 7038TIP3    H142605   2.513   1.888   3.662 -1.8178  1.9376  0.0218
 7038TIP3    H242606   2.658   1.932   3.663 -1.0094 -0.5607 -0.7596
 7039TIP3   OH242607   5.041   1.645  15.061 -0.0327  0.1668  0.0134
 7039TIP3    H142608   4.980   1.708  15.099 -1.6393 -0.1141 -1.9197
 7039TIP3    H242609   5.000   1.560  15.079  0.3486 -0.0988 -0.3721
 7040TIP3   OH242610   1.434   5.230   1.120 -0.1200  0.0791 -0.1788
 7040TIP3    H142611   1.514   5.278   1.140  0.0606  0.5289 -1.8708
 7040TIP3    H242612   1.457   5.138   1.135  1.6844 -0.1244 -3.3043
 7041TIP3   OH242613   5.173   6.769   1.155 -0.2734  0.0663  0.3506
 7041TIP3    H142614   5.256   6.758   1.203 -0.1095  1.3008  0.3898
 7041TIP3    H242615   5.171   6.695   1.094  0.6820 -0.1850  0.5938
 7042TIP3   OH242616   1.302   1.747   0.373 -0.5490 -0.1054 -0.0305
 7042TIP3    H142617   1.272   1.820   0.319  0.6733 -0.4784 -1.2886
 7042TIP3    H242618   1.360   1.697   0.315  2.5424  0.6195  2.2064
 7043TIP3   OH242619   4.087   4.409   5.246 -0.2491 -0.2308 -0.1708
 7043TIP3    H142620   4.061   4.501   5.235  2.5910  0.7594  0.5408
 7043TIP3    H242621   4.070   4.369   5.161 -0.2782  1.3053 -0.9130
 7044TIP3   OH242622   6.715   1.246   1.602  0.2603  0.1967  0.3243
 7044TIP3    H142623   6.708   1.152   1.620  0.0057  0.4218  1.4487
 7044TIP3    H242624   6.674   1.288   1.677  2.2612  1.2604  0.8890
 7045TIP3   OH242625   5.657   1.553   3.021 -0.1633 -0.4513  0.5649
 7045TIP3    H142626   5.734   1.567   2.965 -1.0386  1.4270 -0.2603
 7045TIP3    H242627   5.621   1.470   2.991  0.2865 -0.2589 -0.5979
 7046TIP3   OH242628   3.256   2.978  14.362  0.0143 -0.5478  0.1551
 7046TIP3    H142629   3.325   2.912  14.367  1.9662  1.2516 -1.3108
 7046TIP3    H242630   3.274   3.025  14.281 -1.9300  1.1098  0.6191
 7047TIP3   OH242631   2.699   6.421  11.443  0.1925  0.1385  0.0185
 7047TIP3    H142632   2.764   6.486  11.416  0.9503 -0.3344  0.6518
 7047TIP3    H242633   2.729   6.392  11.529  0.2068 -1.4566 -0.4857
 7048TIP3   OH242634   4.654   2.446  16.533  0.0651 -0.1073 -0.2248
 7048TIP3    H142635   4.676   2.430  16.442  0.1278  0.7634 -0.3771
 7048TIP3    H242636   4.600   2.371  16.559  2.4413 -1.8749 -0.0853
 7049TIP3   OH242637   0.115   6.604   0.976 -0.3588 -0.1036 -0.1560
 7049TIP3    H142638   0.130   6.670   1.044  0.7412 -2.7923  2.4230
 7049TIP3    H242639   0.021   6.610   0.958 -0.9663 -0.1477  2.6220
 7050TIP3   OH242640   4.654   3.308  16.699  0.0059  0.4385  0.1149
 7050TIP3    H142641   4.593   3.380  16.715 -1.7321 -1.0074  0.3997
 7050TIP3    H242642   4.739   3.350  16.686 -1.1902  2.6543 -1.2683
 7051TIP3   OH242643   2.174   6.399  12.555 -0.7804 -0.7795 -0.0012
 7051TIP3    H142644   2.133   6.474  12.599  1.0280 -1.1333  2.4958
 7051TIP3    H242645   2.155   6.413  12.462 -1.9468  1.8528  0.5266
 7052TIP3   OH242646   4.233   2.818  16.824 -0.6362 -0.3379 -0.5449
 7052TIP3    H142647   4.223   2.809  16.918  1.1498  0.7448 -0.2041
 7052TIP3    H242648   4.180   2.894  16.801  0.5416  0.6634 -0.0460
 7053TIP3   OH242649   5.894   1.873  13.393 -0.0143  1.1460 -0.2159
 7053TIP3    H142650   5.905   1.871  13.488  0.5260  0.7957 -0.2834
 7053TIP3    H242651   5.930   1.958  13.367 -0.9192  1.5991 -0.0218
 7054TIP3   OH242652   6.358   3.563  10.664  0.2124  0.1338 -0.4221
 7054TIP3    H142653   6.315   3.506  10.599  0.7941  0.3447 -1.0028
 7054TIP3    H242654   6.298   3.563  10.739  0.0408 -0.9840 -0.5360
 7055TIP3   OH242655   3.213   5.391   6.272 -0.0381 -0.0456 -0.1850
 7055TIP3    H142656   3.118   5.406   6.264 -0.1330 -0.1602  0.6760
 7055TIP3    H242657   3.224   5.350   6.357  0.9287  1.1027  0.2716
 7056TIP3   OH242658   6.427   5.561  13.286 -0.0694 -0.2415 -0.3980
 7056TIP3    H142659   6.521   5.562  13.304 -0.0988 -0.1343 -0.2529
 7056TIP3    H242660   6.388   5.516  13.362 -0.2619  0.7939  0.1241
 7057TIP3   OH242661   3.038   1.555  12.665  0.2239 -0.0607 -0.1407
 7057TIP3    H142662   2.952   1.536  12.703 -0.1357 -0.6650 -1.2204
 7057TIP3    H242663   3.020   1.614  12.592  1.1197  2.8867  1.8362
 7058TIP3   OH242664   3.449   3.074   3.722 -0.0228 -0.4715 -0.0793
 7058TIP3    H142665   3.517   3.142   3.722  1.4314 -1.8378  0.8661
 7058TIP3    H242666   3.368   3.121   3.706  0.6940  1.7395  2.0541
 7059TIP3   OH242667   4.370   5.442  15.915 -0.0268  0.8227  0.2470
 7059TIP3    H142668   4.373   5.352  15.882  3.0381  0.6045  0.8193
 7059TIP3    H242669   4.355   5.433  16.009  1.6752  0.7650  0.5415
 7060TIP3   OH242670   3.833   4.104  12.002  0.2058  0.5197  0.1157
 7060TIP3    H142671   3.799   4.015  11.994  1.2976  0.1325 -0.6479
 7060TIP3    H242672   3.767   4.152  12.050 -0.5678 -0.6257  0.2232
 7061TIP3   OH242673   1.799   2.242   0.135 -0.6428 -0.1303  0.2880
 7061TIP3    H142674   1.734   2.299   0.176 -0.3851 -0.9613  1.9607
 7061TIP3    H242675   1.883   2.273   0.168 -0.1837  0.6843 -1.5464
 7062TIP3   OH242676   4.087   5.013   2.969 -0.6300  0.2390 -0.1076
 7062TIP3    H142677   4.011   5.059   3.003  0.1924  0.2284  1.8889
 7062TIP3    H242678   4.151   5.017   3.040  0.8148 -0.7461 -1.2950
 7063TIP3   OH242679   2.804   3.106  14.692 -1.0573  0.7489  0.1250
 7063TIP3    H142680   2.851   3.158  14.627  1.3855 -0.0276  1.1472
 7063TIP3    H242681   2.847   3.020  14.690 -1.4234  0.4566  2.1426
 7064TIP3   OH242682   3.925   5.730  14.052 -0.0139 -0.8848  0.0155
 7064TIP3    H142683   4.014   5.762  14.040  0.0036 -0.9184  0.0567
 7064TIP3    H242684   3.914   5.723  14.146 -1.1695  2.2578  0.2509
 7065TIP3   OH242685   2.672   0.278  15.397  0.8735  0.1529 -0.2117
 7065TIP3    H142686   2.673   0.303  15.490 -2.1968  0.8682 -0.2707
 7065TIP3    H242687   2.634   0.190  15.396 -1.9623  1.2925 -0.8870
 7066TIP3   OH242688   5.324   4.973  13.404 -0.8773 -0.1475  0.5575
 7066TIP3    H142689   5.313   5.054  13.453  0.3648 -0.2297  0.9977
 7066TIP3    H242690   5.416   4.950  13.414 -0.6382 -0.3331 -1.5773
 7067TIP3   OH242691   6.639   4.320  15.045  0.0059 -0.1155  0.3716
 7067TIP3    H142692   6.641   4.414  15.066 -1.4356  0.0247  0.0341
 7067TIP3    H242693   6.549   4.305  15.015  0.9898 -1.0091 -2.3862
 7068TIP3   OH242694   3.251   1.457  11.605  0.4911 -0.3207 -0.0108
 7068TIP3    H142695   3.340   1.477  11.577  0.7080  1.2862  1.6118
 7068TIP3    H242696   3.215   1.542  11.630 -1.2264 -1.0502  0.1175
 7069TIP3   OH242697   6.441   6.300   2.109  0.3024  0.2842  0.1420
 7069TIP3    H142698   6.354   6.322   2.078  0.4904  0.3632 -0.3511
 7069TIP3    H242699   6.432   6.288   2.203 -0.4827 -0.8977 -0.0685
 7070TIP3   OH242700   4.426   1.580  10.607  0.5504  0.0676 -0.0771
 7070TIP3    H142701   4.440   1.500  10.657  0.4784 -0.4579 -0.8816
 7070TIP3    H242702   4.331   1.591  10.606  0.6104  0.9292  1.1906
 7071TIP3   OH242703   1.944   5.079   4.794 -0.3762  0.4506  0.1657
 7071TIP3    H142704   1.857   5.091   4.832  0.2295  1.7411  1.2131
 7071TIP3    H242705   1.998   5.146   4.836  1.0531 -0.1178 -0.7041
 7072TIP3   OH242706   1.884   0.255   1.039  0.1013 -0.2095  0.1673
 7072TIP3    H142707   1.826   0.330   1.029  1.2642  0.8121  0.8246
 7072TIP3    H242708   1.883   0.213   0.953 -0.9950  0.2290 -0.0472
 7073TIP3   OH242709   0.928   6.690  15.941  0.9047  0.0415 -0.3374
 7073TIP3    H142710   0.938   6.637  16.020 -1.0493 -0.2435 -0.2119
 7073TIP3    H242711   0.910   6.626  15.872  0.6936  0.3952 -0.6156
 7074TIP3   OH242712   1.939   1.651  13.552 -0.5107  0.5267  0.5509
 7074TIP3    H142713   1.995   1.695  13.488  1.0530 -0.3955  1.2269
 7074TIP3    H242714   1.937   1.711  13.627 -0.4587  0.5779  0.5115
 7075TIP3   OH242715   4.747   2.934   3.077 -0.6479  0.0670 -0.0889
 7075TIP3    H142716   4.809   2.879   3.125 -1.6494 -4.0553 -3.0128
 7075TIP3    H242717   4.797   3.013   3.055  2.1137 -1.1456  1.3232
 7076TIP3   OH242718   5.391   1.743   2.655  0.0691  0.2284 -0.3952
 7076TIP3    H142719   5.334   1.774   2.726  0.3938 -1.6483  0.7642
 7076TIP3    H242720   5.340   1.756   2.576 -1.4553 -0.1671  0.4798
 7077TIP3   OH242721   2.836   1.269  16.382 -0.1204  0.1008  0.1017
 7077TIP3    H142722   2.852   1.345  16.326 -0.5164 -0.0717 -0.2578
 7077TIP3    H242723   2.813   1.305  16.467  1.5980  0.3659  0.4938
 7078TIP3   OH242724   3.073   6.462   1.401  0.8414 -0.6920  0.1407
 7078TIP3    H142725   2.984   6.450   1.435  1.2818 -1.4854  1.0372
 7078TIP3    H242726   3.061   6.516   1.322 -0.3874 -0.4584  0.4692
 7079TIP3   OH242727   4.068   2.938   4.328  0.1352  0.4152  0.0481
 7079TIP3    H142728   3.995   2.899   4.281 -0.2563  0.7327  0.3863
 7079TIP3    H242729   4.121   2.864   4.356 -0.5788  0.1188  0.6515
 7080TIP3   OH242730   2.882   5.226  12.823 -0.3936  0.6600 -0.9157
 7080TIP3    H142731   2.885   5.218  12.728 -2.3198 -0.2113 -0.9494
 7080TIP3    H242732   2.823   5.300  12.839 -1.7959 -0.5078 -0.4336
 7081TIP3   OH242733   4.862   5.496   4.559 -0.0497 -0.5885 -0.1327
 7081TIP3    H142734   4.948   5.490   4.518  0.6833 -0.8573  1.3930
 7081TIP3    H242735   4.839   5.405   4.579 -0.4156 -0.4658  0.0097
 7082TIP3   OH242736   6.098   3.946  14.711 -0.3852  0.7887  0.4974
 7082TIP3    H142737   6.154   4.001  14.657  2.0683 -0.3449  1.7049
 7082TIP3    H242738   6.113   3.857  14.679  0.3714  0.2061  2.3129
 7083TIP3   OH242739   2.842   5.783  17.158  0.6167 -0.0393  0.2207
 7083TIP3    H142740   2.920   5.773  17.213  1.4532  2.0212 -0.4685
 7083TIP3    H242741   2.772   5.806  17.220  0.8927 -0.4902  0.7054
 7084TIP3   OH242742   4.937   4.311  16.588 -0.1684 -0.1358  0.9129
 7084TIP3    H142743   4.904   4.232  16.545 -2.2873 -0.4812  2.9707
 7084TIP3    H242744   4.995   4.351  16.523 -1.3401 -1.8042 -1.3158
 7085TIP3   OH242745   3.407   4.257  10.185  0.1039  0.6224 -0.4339
 7085TIP3    H142746   3.357   4.300  10.255  0.3413  1.2738 -0.6581
 7085TIP3    H242747   3.444   4.179  10.227 -1.2255  0.0367 -0.3050
 7086TIP3   OH242748   1.235   4.443  16.146 -0.1712  0.5230  0.1764
 7086TIP3    H142749   1.322   4.468  16.113  0.3717  1.9303  2.4598
 7086TIP3    H242750   1.241   4.348  16.159  0.3572  0.2995 -1.4130
 7087TIP3   OH242751   4.482   0.490   3.321 -0.0943  0.5682 -0.5451
 7087TIP3    H142752   4.540   0.491   3.244 -0.9856 -0.4143 -1.2542
 7087TIP3    H242753   4.542   0.497   3.396  0.8213  1.1249 -1.2998
 7088TIP3   OH242754   5.149   4.925  12.661 -0.4460  0.4198  0.1222
 7088TIP3    H142755   5.109   4.995  12.610  1.3911  1.4472  0.0311
 7088TIP3    H242756   5.235   4.911  12.622 -0.4596 -1.3816  0.6189
 7089TIP3   OH242757   3.897   1.999   1.506  0.0234 -0.0139  0.3295
 7089TIP3    H142758   3.819   2.044   1.474 -1.5244 -2.2839  0.6788
 7089TIP3    H242759   3.912   2.036   1.594  1.3856  2.7364 -0.9260
 7090TIP3   OH242760   3.103   3.013  12.725  0.3957 -0.2168 -0.3192
 7090TIP3    H142761   3.145   3.067  12.658  0.6528  0.8098  0.6355
 7090TIP3    H242762   3.014   3.049  12.732  0.9811  1.0675  1.2883
 7091TIP3   OH242763   5.133   5.921  13.964  0.3520  0.4700 -0.9582
 7091TIP3    H142764   5.073   5.847  13.962 -0.3258  0.8037  1.8860
 7091TIP3    H242765   5.219   5.883  13.948  0.4623 -1.6238  3.1881
 7092TIP3   OH242766   4.465   1.135   1.192 -0.0698  0.4176  0.5762
 7092TIP3    H142767   4.415   1.183   1.126  0.0973 -0.1534  0.0185
 7092TIP3    H242768   4.421   1.050   1.197  0.2893  0.2430  0.7541
 7093TIP3   OH242769   3.860   6.193   3.176 -0.1450  0.0877  0.0844
 7093TIP3    H142770   3.859   6.097   3.187  1.4493 -0.1025 -1.0258
 7093TIP3    H242771   3.818   6.207   3.091  1.6316  0.1347 -0.8341
 7094TIP3   OH242772   4.540   5.168  13.764  0.0351 -0.0488  0.4315
 7094TIP3    H142773   4.510   5.077  13.767  1.9858 -0.7382  0.5475
 7094TIP3    H242774   4.585   5.181  13.847  0.3172  0.8114  0.1514
 7095TIP3   OH242775   3.122   0.531  11.849  0.0912  0.1273 -0.2966
 7095TIP3    H142776   3.156   0.610  11.891  2.1580 -0.3206 -1.0370
 7095TIP3    H242777   3.151   0.459  11.906 -1.6940 -0.1813  0.3240
 7096TIP3   OH242778   0.339   2.862  16.037 -0.8800 -0.3334  0.9827
 7096TIP3    H142779   0.375   2.833  15.953 -0.0165 -1.7670  1.7890
 7096TIP3    H242780   0.305   2.949  16.020  0.1038 -0.2137 -0.6332
 7097TIP3   OH242781   2.612   0.346  14.052  0.3022 -0.2964 -0.3578
 7097TIP3    H142782   2.594   0.255  14.075 -0.7114 -0.0163  0.0001
 7097TIP3    H242783   2.704   0.359  14.075  0.1730 -0.9352  0.5683
 7098TIP3   OH242784   4.043   1.993   2.459 -0.7044 -0.2841  0.2325
 7098TIP3    H142785   4.051   1.903   2.427  0.2848 -1.0390  2.4358
 7098TIP3    H242786   4.123   2.009   2.509 -0.5550  2.0836 -0.6166
 7099TIP3   OH242787   3.009   6.299  13.314  0.3056  0.1025  0.2227
 7099TIP3    H142788   3.090   6.345  13.295  0.0041  0.3369 -0.5413
 7099TIP3    H242789   3.014   6.218  13.263  0.1634  0.0136  0.3484
 7100TIP3   OH242790   6.826   6.536  14.695  0.2041 -0.7207  0.7796
 7100TIP3    H142791   6.814   6.572  14.784  0.6651  0.6327  0.3199
 7100TIP3    H242792   6.898   6.587  14.658 -0.1151 -1.1397 -0.4547
 7101TIP3   OH242793   2.546   5.390  15.085 -0.2065 -0.3580  0.3178
 7101TIP3    H142794   2.498   5.468  15.114 -0.3365 -0.0107 -0.8103
 7101TIP3    H242795   2.596   5.363  15.162  0.6940  1.4798  0.4163
 7102TIP3   OH242796   5.289   0.140  15.096  0.3402  0.3549  0.2154
 7102TIP3    H142797   5.357   0.196  15.134 -0.4349  0.3237  1.7662
 7102TIP3    H242798   5.287   0.163  15.004  1.4600  1.3915  0.4228
 7103TIP3   OH242799   3.088   6.265   6.022  0.4388 -0.2335  0.2433
 7103TIP3    H142800   3.118   6.232   6.107 -0.2769 -0.7099  0.3166
 7103TIP3    H242801   3.147   6.338   6.003  1.0352 -0.5515  0.8266
 7104TIP3   OH242802   4.772   4.685   2.850 -0.3638 -0.5624  0.2992
 7104TIP3    H142803   4.810   4.672   2.762  0.9942  0.2262  0.7342
 7104TIP3    H242804   4.835   4.644   2.909 -0.6853 -0.0893  0.9837
 7105TIP3   OH242805   6.759   4.198  15.899 -0.3465  0.2777 -0.3080
 7105TIP3    H142806   6.690   4.163  15.843  0.7165 -1.6193 -0.5269
 7105TIP3    H242807   6.840   4.178  15.851  0.4894  0.1859  1.0984
 7106TIP3   OH242808   5.258   2.275   3.923  0.0371 -0.0253  0.4066
 7106TIP3    H142809   5.227   2.247   3.838 -0.1688 -0.9529  0.7829
 7106TIP3    H242810   5.346   2.237   3.931 -1.2829 -3.0558  2.0674
 7107TIP3   OH242811   0.818   0.814  16.600  0.2285  0.4805 -0.1512
 7107TIP3    H142812   0.742   0.791  16.654  0.7213  0.9769  0.7827
 7107TIP3    H242813   0.801   0.772  16.516  0.0547 -1.4822  0.7982
 7108TIP3   OH242814   6.062   3.170  16.944  0.1258  0.4610 -0.0598
 7108TIP3    H142815   6.047   3.264  16.954  1.7391  0.7739 -0.2196
 7108TIP3    H242816   6.145   3.164  16.897  0.3088 -1.0453  0.4006
 7109TIP3   OH242817   5.377   3.469  13.630  0.5761  0.2857 -1.4573
 7109TIP3    H142818   5.330   3.411  13.689 -0.4068  1.7231 -0.7823
 7109TIP3    H242819   5.418   3.410  13.566  2.7919 -1.4715  1.3257
 7110TIP3   OH242820   5.139   1.541   2.173 -0.0474  0.8041 -0.6003
 7110TIP3    H142821   5.071   1.484   2.209 -0.1937  1.5657  0.3558
 7110TIP3    H242822   5.106   1.630   2.186  0.8012  1.1605 -0.8165
 7111TIP3   OH242823   6.332   2.324  17.012 -0.1155  0.3878  0.3038
 7111TIP3    H142824   6.402   2.389  17.013 -0.8251  1.1648  0.5699
 7111TIP3    H242825   6.261   2.364  17.061 -0.7020 -0.4506  0.1683
 7112TIP3   OH242826   1.017   1.365   3.783 -0.1300  0.5868 -0.1862
 7112TIP3    H142827   0.945   1.429   3.777 -0.8244 -0.2015 -0.5374
 7112TIP3    H242828   1.022   1.326   3.696 -0.9389 -1.1036  0.4744
 7113TIP3   OH242829   3.582   2.030  10.732 -0.2720 -0.1664  0.2967
 7113TIP3    H142830   3.528   2.040  10.810 -0.9134  1.1552 -0.2935
 7113TIP3    H242831   3.660   2.084  10.749 -0.0898 -0.4269  0.3003
 7114TIP3   OH242832   5.436   3.854  14.922  0.4679 -0.1245 -0.3098
 7114TIP3    H142833   5.402   3.795  14.854 -2.3743  0.4935  0.4842
 7114TIP3    H242834   5.404   3.817  15.004  0.4114  1.3758  0.3722
 7115TIP3   OH242835   4.349   5.137   6.019 -0.1277 -0.5238  0.2041
 7115TIP3    H142836   4.366   5.213   6.076  0.0056  0.0130 -0.5425
 7115TIP3    H242837   4.270   5.161   5.971  2.0876  0.9983 -3.0547
 7116TIP3   OH242838   3.862   4.136  12.625  0.5758 -0.1106  0.6512
 7116TIP3    H142839   3.872   4.044  12.602  1.1089  0.5701 -2.2283
 7116TIP3    H242840   3.772   4.157  12.599  0.8523  0.4556  0.1389
 7117TIP3   OH242841   0.529   0.208  11.569  0.7991 -0.3080 -0.2923
 7117TIP3    H142842   0.463   0.141  11.551 -0.1792  0.9557 -1.6769
 7117TIP3    H242843   0.609   0.174  11.530  0.1701 -0.4349 -1.5329
 7118TIP3   OH242844   4.868   5.836   5.951 -0.0956  0.4069 -0.2175
 7118TIP3    H142845   4.802   5.839   6.021 -1.5399  1.2482 -1.5574
 7118TIP3    H242846   4.822   5.798   5.877  1.9061 -2.1001 -0.2699
 7119TIP3   OH242847   4.798   3.204   6.160 -0.3488 -0.6912 -0.8561
 7119TIP3    H142848   4.762   3.131   6.109 -2.6777 -0.8281  0.8299
 7119TIP3    H242849   4.780   3.181   6.251  0.7374  1.0483 -0.1591
 7120TIP3   OH242850   5.269   4.885  13.115 -0.2972  0.4390 -0.2337
 7120TIP3    H142851   5.291   4.928  13.198 -0.1558  0.9951 -0.5569
 7120TIP3    H242852   5.321   4.804  13.116 -1.4587 -0.3398  0.9080
 7121TIP3   OH242853   5.961   5.520  10.720 -1.2053  0.7066  0.2693
 7121TIP3    H142854   5.899   5.519  10.647 -0.5271  1.1790 -0.3388
 7121TIP3    H242855   6.043   5.550  10.680 -1.0730  1.9525  1.4213
 7122TIP3   OH242856   4.108   2.577  11.119  0.3602 -0.2646 -0.3024
 7122TIP3    H142857   4.069   2.647  11.067  0.3968  0.0676  0.1151
 7122TIP3    H242858   4.071   2.588  11.206  0.5478 -0.6199 -0.1761
 7123TIP3   OH242859   3.538   2.434  14.047 -0.8699 -0.0295 -0.1939
 7123TIP3    H142860   3.590   2.443  13.967  0.1217  2.1452  0.6231
 7123TIP3    H242861   3.454   2.399  14.017  0.1951 -1.3689 -1.8664
 7124TIP3   OH242862   1.011   0.361   0.757 -0.6925  0.0220 -0.2005
 7124TIP3    H142863   0.996   0.359   0.851 -0.8249  0.1030 -0.2193
 7124TIP3    H242864   1.103   0.335   0.746  0.0754  2.3687  0.1291
 7125TIP3   OH242865   3.972   4.111   6.416 -0.1618  0.7177 -0.0143
 7125TIP3    H142866   4.015   4.038   6.371  1.3490  1.3122  0.3845
 7125TIP3    H242867   3.968   4.084   6.507 -0.7624  0.6164 -0.0693
 7126TIP3   OH242868   1.871   4.577  15.581 -0.6452 -0.3969  0.2361
 7126TIP3    H142869   1.793   4.614  15.623 -0.8435  0.8217 -1.1330
 7126TIP3    H242870   1.837   4.504  15.528 -0.4548 -1.6370  1.7585
 7127TIP3   OH242871   1.027   0.263  11.167 -0.2410 -0.3445 -0.3714
 7127TIP3    H142872   1.029   0.238  11.259  0.0711 -0.5021 -0.4180
 7127TIP3    H242873   0.943   0.232  11.135 -1.2778  1.5467  0.3585
 7128TIP3   OH242874   3.327   2.161  15.331 -0.0043 -0.3160  0.2540
 7128TIP3    H142875   3.279   2.218  15.272  1.3253  1.9556  1.2557
 7128TIP3    H242876   3.380   2.106  15.274 -0.2605  0.4185 -0.7109
 7129TIP3   OH242877   5.158   0.379  13.205 -0.0861  0.1438 -0.2933
 7129TIP3    H142878   5.085   0.332  13.166 -0.6519  1.0141 -0.3008
 7129TIP3    H242879   5.126   0.409  13.289 -0.0856  1.3941 -0.7225
 7130TIP3   OH242880   2.816   4.532   2.852  0.4784 -0.3396 -0.2545
 7130TIP3    H142881   2.758   4.517   2.778  0.3246  0.1213 -0.2265
 7130TIP3    H242882   2.777   4.604   2.900  0.6782 -0.5118  0.1762
 7131TIP3   OH242883   2.596   0.207  10.123  0.6556  0.4232 -0.0279
 7131TIP3    H142884   2.579   0.285  10.069 -3.4650  0.5948  1.2008
 7131TIP3    H242885   2.653   0.238  10.193 -0.7621  2.4070  0.3465
 7132TIP3   OH242886   1.255   3.483   4.443  0.1767  0.8369 -0.4864
 7132TIP3    H142887   1.317   3.412   4.428 -1.9976 -1.4208  0.3841
 7132TIP3    H242888   1.259   3.500   4.537 -0.1843  0.9822 -0.4926
 7133TIP3   OH242889   4.121   5.885   2.313 -0.2018  0.3175  0.1265
 7133TIP3    H142890   4.216   5.891   2.322 -0.4159  3.0281  1.5961
 7133TIP3    H242891   4.102   5.935   2.233 -0.4380  0.4097  0.2413
 7134TIP3   OH242892   3.016   0.612   4.997 -0.2079 -0.8370 -0.5531
 7134TIP3    H142893   3.103   0.573   5.002 -0.0357 -0.4554 -0.5587
 7134TIP3    H242894   3.015   0.660   4.914 -0.3076 -0.5717 -0.4030
 7135TIP3   OH242895   3.056   3.849   1.156 -0.0623  0.2796 -0.3804
 7135TIP3    H142896   3.051   3.926   1.099  1.1285 -0.7333 -1.9364
 7135TIP3    H242897   3.149   3.828   1.159 -0.2977 -0.7004  0.6127
 7136TIP3   OH242898   5.248   3.420  17.036  0.1461 -0.4812 -0.4421
 7136TIP3    H142899   5.247   3.515  17.045 -0.6100 -0.3702 -1.4880
 7136TIP3    H242900   5.341   3.397  17.035  0.6429  0.7909 -4.8100
 7137TIP3   OH242901   5.240   2.256   6.242  0.1203  0.0021 -0.3127
 7137TIP3    H142902   5.214   2.164   6.247  1.9592 -0.7383 -2.4438
 7137TIP3    H242903   5.277   2.276   6.328  0.4950 -1.5315 -0.0894
 7138TIP3   OH242904   5.639   3.618  11.888  0.0825  0.4713 -0.3003
 7138TIP3    H142905   5.600   3.703  11.871 -0.0905  0.3246 -0.6414
 7138TIP3    H242906   5.685   3.595  11.807 -0.9498 -0.3436 -0.6789
 7139TIP3   OH242907   1.886   3.712  16.431 -0.0830 -0.1368  0.2319
 7139TIP3    H142908   1.962   3.759  16.465 -1.5437  1.6317  1.1722
 7139TIP3    H242909   1.873   3.640  16.493  1.0745 -0.7426 -0.1981
 7140TIP3   OH242910   6.770   0.503   2.640  0.4923  0.5167  0.1902
 7140TIP3    H142911   6.789   0.411   2.621 -1.6926  0.3774 -1.7096
 7140TIP3    H242912   6.837   0.552   2.592  3.3274  0.0472  3.2643
 7141TIP3   OH242913   3.048   2.259  14.163  0.6576 -0.6953  1.0050
 7141TIP3    H142914   3.133   2.255  14.120  0.2793  0.9942  0.0191
 7141TIP3    H242915   2.984   2.240  14.095  0.1990 -1.0954  1.5326
 7142TIP3   OH242916   2.621   0.650   0.168  0.2961  0.4356 -0.0060
 7142TIP3    H142917   2.643   0.727   0.220 -1.7581  1.9444 -1.1969
 7142TIP3    H242918   2.529   0.633   0.188  0.2397 -0.6256 -1.0723
 7143TIP3   OH242919   3.599   5.740  11.718  0.1898 -0.3284 -0.6397
 7143TIP3    H142920   3.652   5.774  11.791 -1.0173  0.2677 -0.0120
 7143TIP3    H242921   3.620   5.797  11.645  0.8501 -0.4620 -0.5603
 7144TIP3   OH242922   4.556   3.416  11.883  0.2233  0.3056 -0.4702
 7144TIP3    H142923   4.607   3.495  11.899 -1.1026  0.8702  1.4066
 7144TIP3    H242924   4.480   3.447  11.833  0.5415 -0.1028 -1.2157
 7145TIP3   OH242925   6.114   4.560  15.121 -0.0603  0.1757  0.0342
 7145TIP3    H142926   6.145   4.510  15.197 -0.7416  1.0579  0.9172
 7145TIP3    H242927   6.070   4.494  15.067  0.6092 -0.5073  0.3022
 7146TIP3   OH242928   5.575   5.732   3.440 -0.0773 -1.1334  0.4864
 7146TIP3    H142929   5.645   5.730   3.505 -0.5832 -1.0103  1.0454
 7146TIP3    H242930   5.584   5.650   3.392  2.0956  0.0019 -1.2424
 7147TIP3   OH242931   2.777   0.270   1.780  0.7184  0.4145 -0.7206
 7147TIP3    H142932   2.714   0.206   1.745 -0.4195  0.9735  0.2371
 7147TIP3    H242933   2.856   0.257   1.728  0.1369 -0.9995 -1.2947
 7148TIP3   OH242934   0.195   1.493  11.589 -0.3324  0.2285  0.0199
 7148TIP3    H142935   0.162   1.494  11.499 -0.6523 -2.2567  0.0582
 7148TIP3    H242936   0.158   1.414  11.628 -0.5024  1.4347  2.4955
 7149TIP3   OH242937   0.682   1.247   3.762  0.1300 -0.4764  0.4478
 7149TIP3    H142938   0.658   1.314   3.826  0.6279 -0.7134  0.8992
 7149TIP3    H242939   0.676   1.165   3.812 -1.2193 -0.8586 -0.2969
 7150TIP3   OH242940   5.688   1.412   1.528  0.5872 -0.1389 -0.1618
 7150TIP3    H142941   5.614   1.470   1.549  2.2200  2.2778 -0.6402
 7150TIP3    H242942   5.683   1.342   1.593 -1.4476  0.5700  0.5217
 7151TIP3   OH242943   4.490   6.802   3.494 -0.2771  0.3668  0.5103
 7151TIP3    H142944   4.520   6.728   3.547 -1.3929 -0.9507 -0.6302
 7151TIP3    H242945   4.411   6.832   3.539 -0.4980  0.0856  0.3113
 7152TIP3   OH242946   5.612   0.233  17.059 -0.4641 -0.4198 -0.1103
 7152TIP3    H142947   5.569   0.316  17.081 -1.7390 -1.0409 -0.1287
 7152TIP3    H242948   5.703   0.245  17.084 -1.1883 -0.0134  2.6994
 7153TIP3   OH242949   5.964   3.213   0.184 -0.2665  0.1183 -0.6726
 7153TIP3    H142950   6.022   3.137   0.181 -0.0085  0.2674  0.3774
 7153TIP3    H242951   5.903   3.200   0.111  0.9115 -0.1727 -1.6284
 7154TIP3   OH242952   6.618   2.925  12.151 -0.3287  0.1956 -0.3877
 7154TIP3    H142953   6.579   2.870  12.084 -0.2470  1.0891 -1.1989
 7154TIP3    H242954   6.693   2.876  12.182 -0.2124 -0.1237 -1.1514
 7155TIP3   OH242955   3.352   5.849   4.315 -0.1884  0.1354  0.3704
 7155TIP3    H142956   3.294   5.804   4.253  1.4275 -1.3349 -0.1610
 7155TIP3    H242957   3.384   5.925   4.267 -1.1961  0.6392  0.4666
 7156TIP3   OH242958   3.708   6.673   2.735  0.2150  0.0010  0.3119
 7156TIP3    H142959   3.735   6.582   2.744  2.9381  0.8407  1.3924
 7156TIP3    H242960   3.686   6.700   2.824  1.1214  0.8625  0.2858
 7157TIP3   OH242961   3.152   6.242  14.151  0.2317  0.5129 -0.0270
 7157TIP3    H142962   3.151   6.321  14.204  0.3917  1.0564 -0.8115
 7157TIP3    H242963   3.245   6.226  14.134  0.1533  0.7740 -0.7466
 7158TIP3   OH242964   3.645   2.182   4.045  0.1432 -0.1248 -0.3210
 7158TIP3    H142965   3.561   2.175   4.000  1.1003 -0.9886 -2.0674
 7158TIP3    H242966   3.679   2.267   4.020  0.7275 -0.6513 -1.4089
 7159TIP3   OH242967   0.759   6.326  14.402  0.4444 -0.5190 -0.0559
 7159TIP3    H142968   0.822   6.278  14.348 -0.5979 -1.5839 -0.3583
 7159TIP3    H242969   0.749   6.272  14.481 -0.2099 -0.4426 -0.0835
 7160TIP3   OH242970   0.027   1.304  12.363  0.1563  0.0077 -0.1123
 7160TIP3    H142971  -0.027   1.265  12.293  0.2196  0.5165 -0.4531
 7160TIP3    H242972  -0.011   1.271  12.444 -2.1930  2.1408 -0.2108
 7161TIP3   OH242973   5.180   3.296  11.802  0.5709 -0.2144 -0.7161
 7161TIP3    H142974   5.266   3.330  11.778  0.3416 -0.2535 -1.6322
 7161TIP3    H242975   5.121   3.370  11.793  0.6926  0.1725  1.2222
 7162TIP3   OH242976   3.217   0.008  12.066 -0.6419 -0.3476  0.3690
 7162TIP3    H142977   3.299   0.019  12.017 -0.8027  2.1933  0.5179
 7162TIP3    H242978   3.242  -0.042  12.144  0.3565 -1.2834 -0.5272
 7163TIP3   OH242979   3.050   5.765   0.109 -0.3077 -0.4795  0.2827
 7163TIP3    H142980   3.042   5.671   0.125  1.7548 -0.7261  0.1384
 7163TIP3    H242981   3.101   5.797   0.184  1.0084  0.0802 -0.8227
 7164TIP3   OH242982   5.984   5.188  15.880  0.0366  0.2053 -0.0209
 7164TIP3    H142983   6.018   5.175  15.968 -0.5945 -0.0148  0.1934
 7164TIP3    H242984   5.992   5.283  15.865 -1.1469  0.4582  0.8167
 7165TIP3   OH242985   3.674   1.470  16.791  0.3405 -0.3639  0.4425
 7165TIP3    H142986   3.739   1.400  16.789 -1.9599 -2.7176  1.7846
 7165TIP3    H242987   3.709   1.533  16.854  2.7085  0.0615 -1.1913
 7166TIP3   OH242988   4.585   3.268   0.805 -0.4213  0.4675 -0.2436
 7166TIP3    H142989   4.613   3.298   0.891  0.9176 -1.4417  0.0699
 7166TIP3    H242990   4.509   3.322   0.783  0.3982  2.3052  1.2513
 7167TIP3   OH242991   1.602   6.414  16.290 -0.4677 -0.5675  0.2918
 7167TIP3    H142992   1.545   6.490  16.297  0.3575  0.2579 -1.3013
 7167TIP3    H242993   1.572   6.368  16.211 -0.7645 -1.7612  1.0653
 7168TIP3   OH242994   6.639   3.012  10.846 -0.4219 -0.0884 -0.1739
 7168TIP3    H142995   6.631   3.054  10.760  1.3190 -0.3043 -0.4849
 7168TIP3    H242996   6.550   3.011  10.881 -1.3820 -0.9879 -2.4418
 7169TIP3   OH242997   0.449   1.514  14.689  0.2906  0.5733 -0.2775
 7169TIP3    H142998   0.419   1.479  14.605 -2.4064  1.1787  0.3397
 7169TIP3    H242999   0.491   1.439  14.732 -0.2465 -0.3385 -1.2755
 7170TIP3   OH243000   5.425   4.261   2.410  0.2899 -0.0325 -0.0593
 7170TIP3    H143001   5.381   4.316   2.345  1.7385  0.1766 -0.9083
 7170TIP3    H243002   5.375   4.179   2.410 -1.6778  1.1008  0.9585
 7171TIP3   OH243003   0.383   5.773   6.558  0.5047 -0.4986 -0.8854
 7171TIP3    H143004   0.352   5.783   6.468 -0.7957 -1.1276 -0.5180
 7171TIP3    H243005   0.324   5.709   6.597  1.8015 -1.1414  0.0799
 7172TIP3   OH243006   1.171   6.137   0.206  0.3675  0.3635  0.2142
 7172TIP3    H143007   1.089   6.166   0.247  0.6058  2.3181 -0.6097
 7172TIP3    H243008   1.237   6.198   0.238  0.8113  1.1083 -1.9502
 7173TIP3   OH243009   2.882   0.870   0.832  0.3133  0.4103 -0.6222
 7173TIP3    H143010   2.833   0.815   0.894  0.3361  1.7033  0.5985
 7173TIP3    H243011   2.955   0.814   0.804  0.1771 -0.2944  0.3618
 7174TIP3   OH243012   2.367   3.820  15.510 -0.3042 -0.1352  0.3102
 7174TIP3    H143013   2.393   3.884  15.577  0.1813  0.2005 -0.1936
 7174TIP3    H243014   2.364   3.737  15.557 -0.5663  0.1875  0.8864
 7175TIP3   OH243015   0.340   0.240  16.117  0.0066  0.2229  0.9229
 7175TIP3    H143016   0.288   0.176  16.165  1.0707 -0.4028  1.2942
 7175TIP3    H243017   0.388   0.188  16.052 -0.3374  0.8716  0.1339
 7176TIP3   OH243018   3.054   4.213   3.454 -0.4135 -0.5097 -0.1181
 7176TIP3    H143019   2.970   4.210   3.499  0.0333 -0.1388  0.7750
 7176TIP3    H243020   3.108   4.270   3.509 -0.0384  0.4890 -1.4673
 7177TIP3   OH243021   1.315   0.090  16.325  0.4725 -0.2057  0.0638
 7177TIP3    H143022   1.291  -0.002  16.337 -2.2182  0.1227 -1.8461
 7177TIP3    H243023   1.302   0.105  16.231  1.8526  1.8883  0.1625
 7178TIP3   OH243024   5.256   2.802   5.558  0.0350 -0.0046 -0.9346
 7178TIP3    H143025   5.221   2.888   5.535  1.3436  0.6241 -0.7032
 7178TIP3    H243026   5.289   2.813   5.648 -0.8956 -1.1152 -0.4317
 7179TIP3   OH243027   5.944   4.555  12.234 -0.3407  0.4794  0.3354
 7179TIP3    H143028   5.951   4.473  12.284  0.4867  0.1161 -0.3555
 7179TIP3    H243029   5.873   4.602  12.277 -0.0380 -0.0701  1.5032
 7180TIP3   OH243030   5.653   5.175  13.748  0.1049 -0.1487 -0.6657
 7180TIP3    H143031   5.635   5.217  13.664 -0.5824  0.2520 -0.3177
 7180TIP3    H243032   5.584   5.110  13.758  0.0833 -0.0757 -0.3255
 7181TIP3   OH243033   3.782   0.675  10.734 -0.1526 -0.1476  0.3268
 7181TIP3    H143034   3.702   0.727  10.725  0.9475  1.7455  0.8876
 7181TIP3    H243035   3.821   0.677  10.646  0.4749  1.0297  0.6141
 7182TIP3   OH243036   1.963   5.309   1.590 -0.2716 -0.2168 -0.0187
 7182TIP3    H143037   1.941   5.235   1.647 -2.1753  0.4484  0.1577
 7182TIP3    H243038   1.962   5.385   1.647 -2.0925  0.4422 -0.8547
 7183TIP3   OH243039   6.155   2.965  14.272 -0.2054 -0.5412  0.6763
 7183TIP3    H143040   6.212   3.034  14.305 -0.5622 -0.4326  1.0866
 7183TIP3    H243041   6.067   3.002  14.280 -0.2439 -0.0694 -1.4731
 7184TIP3   OH243042   3.120   0.817   3.578 -0.1626  0.0642 -0.5763
 7184TIP3    H143043   3.110   0.728   3.614  2.9243 -0.3574 -0.4810
 7184TIP3    H243044   3.212   0.821   3.551 -1.0104  2.1426 -3.6884
 7185TIP3   OH243045   2.562   3.923  13.062 -0.2797 -0.5247  0.0291
 7185TIP3    H143046   2.572   3.953  13.152  1.2073  0.6481 -0.4796
 7185TIP3    H243047   2.630   3.971  13.013 -3.3650  1.7991 -2.4178
 7186TIP3   OH243048   5.754   6.634   5.540 -0.5023  0.2492  0.4214
 7186TIP3    H143049   5.734   6.605   5.451  0.5955  3.1052 -0.8535
 7186TIP3    H243050   5.688   6.700   5.560 -0.7228 -0.3460  1.7519
 7187TIP3   OH243051   2.958   5.738   5.377  0.1380  0.3009  0.1146
 7187TIP3    H143052   3.001   5.688   5.307  1.2451  1.2545  0.0811
 7187TIP3    H243053   3.029   5.760   5.437 -0.5484  0.8004  0.7511
 7188TIP3   OH243054   4.138   1.189   5.923  0.0978  0.1854 -0.1797
 7188TIP3    H143055   4.230   1.179   5.947  0.2149  0.1573 -0.6234
 7188TIP3    H243056   4.135   1.270   5.873  0.0378 -0.2564 -0.9029
 7189TIP3   OH243057   5.346   6.367   2.964 -0.1417  0.5291  0.1085
 7189TIP3    H143058   5.253   6.386   2.952  0.2488  1.9113 -1.1591
 7189TIP3    H243059   5.390   6.430   2.907  1.5950  0.2112  1.0295
 7190TIP3   OH243060   0.471   5.479   5.409 -0.5068  0.0116 -0.6387
 7190TIP3    H143061   0.405   5.543   5.436 -0.2062 -0.0790  0.3479
 7190TIP3    H243062   0.534   5.531   5.358 -0.2156  0.5430  0.2319
 7191TIP3   OH243063   5.022   3.629   5.204  0.4631  0.2080 -0.0814
 7191TIP3    H143064   4.969   3.553   5.229  0.7848 -0.6979 -1.9512
 7191TIP3    H243065   4.972   3.673   5.136 -0.4452  2.6681  2.0132
 7192TIP3   OH243066   4.489   1.885  16.628 -0.6652  0.3126  0.1930
 7192TIP3    H143067   4.447   1.817  16.682  2.6017 -1.5896  0.5868
 7192TIP3    H243068   4.537   1.939  16.691  0.9439 -0.2513 -0.4949
 7193TIP3   OH243069   0.918   3.007  15.035 -0.9645  0.2053  0.1692
 7193TIP3    H143070   0.915   2.911  15.036  2.4590 -0.0474 -1.2964
 7193TIP3    H243071   0.868   3.032  14.957  0.5272 -0.6206 -1.0889
 7194TIP3   OH243072   4.189   4.781  14.201 -0.0808 -0.1501 -0.1971
 7194TIP3    H143073   4.239   4.728  14.263 -2.0310 -0.5055  1.1968
 7194TIP3    H243074   4.202   4.738  14.117  0.0547 -1.6309  0.5451
 7195TIP3   OH243075   5.544   2.753   4.818  0.7895  0.4016  0.4769
 7195TIP3    H143076   5.540   2.667   4.777  0.6899  0.9362 -0.6618
 7195TIP3    H243077   5.509   2.739   4.906  0.9025 -0.7428  0.3537
 7196TIP3   OH243078   0.757   2.125   3.200  0.2887  0.3590  0.0859
 7196TIP3    H143079   0.724   2.214   3.211  0.2235  0.2271  1.1515
 7196TIP3    H243080   0.679   2.072   3.184  0.3475  0.5110 -0.7462
 7197TIP3   OH243081   3.020   2.754   5.409  0.0485 -0.0468 -0.2172
 7197TIP3    H143082   3.084   2.786   5.345 -0.1002 -0.4016 -0.5446
 7197TIP3    H243083   2.964   2.830   5.427 -1.1700 -0.4693 -2.0381
 7198TIP3   OH243084   0.918   2.683   3.998  0.2792  0.2743  0.7104
 7198TIP3    H143085   0.887   2.601   4.036  0.3328 -1.4407 -2.6305
 7198TIP3    H243086   0.842   2.741   3.997 -0.8349 -1.1645 -0.4249
 7199TIP3   OH243087   6.118   0.820   1.935  0.1437  0.4150 -0.2968
 7199TIP3    H143088   6.192   0.761   1.949 -1.2893 -1.3659  0.1000
 7199TIP3    H243089   6.132   0.854   1.847  1.2875 -0.1291 -0.3458
 7200TIP3   OH243090   3.616   5.020  13.767  0.0939 -0.1485  1.0401
 7200TIP3    H143091   3.594   5.046  13.678  0.3974  3.0746  1.7872
 7200TIP3    H243092   3.567   4.939  13.781 -2.8449  1.1287 -0.8865
 7201TIP3   OH243093   1.770   5.821   3.159  0.3243  0.4959  0.5335
 7201TIP3    H143094   1.766   5.740   3.209 -4.8743 -0.3548 -0.6918
 7201TIP3    H243095   1.781   5.793   3.068 -0.6038  1.1641  0.1934
 7202TIP3   OH243096   3.583   4.532  13.028 -0.0840  0.3052 -0.0975
 7202TIP3    H143097   3.668   4.496  13.054 -0.8284 -0.3427  1.6205
 7202TIP3    H243098   3.542   4.463  12.977 -0.4697 -0.3235  1.0210
 7203TIP3   OH243099   5.372   2.987   6.026  0.2225 -0.4016 -0.3258
 7203TIP3    H143100   5.357   2.960   6.116  0.3764  0.5066 -0.0173
 7203TIP3    H243101   5.334   2.917   5.973 -1.2427 -0.2076  0.4304
 7204TIP3   OH243102   3.704   5.134   5.932 -0.3243  0.0112  0.1953
 7204TIP3    H143103   3.660   5.112   5.850  0.2435  0.4492 -0.2423
 7204TIP3    H243104   3.680   5.225   5.949  1.0561  0.5408 -0.5075
 7205TIP3   OH243105   5.935   0.644   1.350  0.1971 -0.0280 -0.3037
 7205TIP3    H143106   5.964   0.720   1.399  2.3292  0.4307 -2.1683
 7205TIP3    H243107   5.912   0.580   1.418 -1.0533  1.9670  1.2949
 7206TIP3   OH243108   0.807   1.476   1.330 -0.2951  0.4441 -0.0411
 7206TIP3    H143109   0.896   1.452   1.355 -0.7549 -2.3208 -0.7142
 7206TIP3    H243110   0.769   1.511   1.410  0.8075 -0.2407  0.8180
 7207TIP3   OH243111   1.611   0.416   0.770  0.5137  0.1437 -0.2568
 7207TIP3    H143112   1.667   0.478   0.817  0.3778 -0.1107  0.2422
 7207TIP3    H243113   1.585   0.352   0.836 -1.2575  0.8591 -0.2022
 7208TIP3   OH243114   3.403   5.192   5.475 -0.1363  0.0950  0.6076
 7208TIP3    H143115   3.369   5.277   5.501 -0.8087 -0.0985  0.3634
 7208TIP3    H243116   3.344   5.162   5.406  0.5046 -0.2583  0.2045
 7209TIP3   OH243117   5.911   4.756  15.573  0.9568  0.4608 -0.0116
 7209TIP3    H143118   5.913   4.850  15.587  2.0898  0.5609 -0.7439
 7209TIP3    H243119   5.990   4.737  15.522  0.3861 -0.7860 -0.4829
 7210TIP3   OH243120   1.799   0.035   1.223 -0.0877  0.6249  0.6079
 7210TIP3    H143121   1.811   0.073   1.136 -0.0092 -0.6678  0.0424
 7210TIP3    H243122   1.830   0.104   1.283  0.4702  1.2821 -0.4047
 7211TIP3   OH243123   5.815   1.065  12.144 -0.1765  0.5246  0.1808
 7211TIP3    H143124   5.751   1.037  12.210  0.4182 -0.9434  0.1696
 7211TIP3    H243125   5.763   1.115  12.081 -1.0610  0.5369  0.8900
 7212TIP3   OH243126   2.431   0.007  10.265  0.4944  0.8413  0.2571
 7212TIP3    H143127   2.449  -0.061  10.200 -1.4279  2.0465 -1.6903
 7212TIP3    H243128   2.465   0.087  10.225  0.0003  1.5014  1.1277
 7213TIP3   OH243129   4.243   5.912  11.227 -0.3905 -0.7160  0.0858
 7213TIP3    H143130   4.331   5.944  11.250 -0.8354  0.4033  0.2906
 7213TIP3    H243131   4.217   5.860  11.303 -1.0512  1.3437  1.3489
 7214TIP3   OH243132   6.337   4.940   1.898  0.3457 -0.6677 -0.0192
 7214TIP3    H143133   6.354   4.967   1.808 -0.7879  2.3780  0.5622
 7214TIP3    H243134   6.418   4.960   1.945  0.2109 -0.2023  0.0201
 7215TIP3   OH243135   4.266   2.753   0.450 -0.8612  0.1605  0.4745
 7215TIP3    H143136   4.285   2.847   0.458  1.0448 -0.1779  0.4649
 7215TIP3    H243137   4.207   2.734   0.522 -0.0387  1.0802  1.4300
 7216TIP3   OH243138   5.784   6.717   2.301 -0.4253  0.3711  0.0358
 7216TIP3    H143139   5.877   6.693   2.296 -1.0003 -2.0951 -0.0291
 7216TIP3    H243140   5.752   6.705   2.211 -1.3243 -1.2954  0.5465
 7217TIP3   OH243141   2.822   3.631  17.181  0.3338  0.3015 -0.0073
 7217TIP3    H143142   2.843   3.571  17.109  0.0750  1.1394 -0.8049
 7217TIP3    H243143   2.895   3.622  17.242  0.2218 -0.9365 -0.0298
 7218TIP3   OH243144   5.181   5.548  12.292  0.1470  0.3334  0.2162
 7218TIP3    H143145   5.194   5.637  12.327  1.7689 -0.0537  0.7238
 7218TIP3    H243146   5.238   5.493  12.347 -0.7233 -1.0045 -0.1859
 7219TIP3   OH243147   0.909   2.339   4.555  0.6734  0.1336  0.0838
 7219TIP3    H143148   0.899   2.433   4.572  1.7751  0.3880 -0.5874
 7219TIP3    H243149   0.989   2.315   4.601  0.6365 -0.3769 -0.1187
 7220TIP3   OH243150   5.331   2.713  15.707  0.1295  0.0287 -0.0965
 7220TIP3    H143151   5.319   2.804  15.736  1.1699 -0.9821  4.1381
 7220TIP3    H243152   5.422   2.708  15.680  0.1058  0.1980 -0.2125
 7221TIP3   OH243153   1.633   3.280  16.916  0.3459 -0.2216  0.5555
 7221TIP3    H143154   1.549   3.242  16.890 -0.4337  0.5714  1.7989
 7221TIP3    H243155   1.623   3.374  16.901  1.8240 -0.2943 -1.3402
 7222TIP3   OH243156   6.713   6.000   6.286 -0.1637  0.0275 -0.6133
 7222TIP3    H143157   6.685   6.050   6.363 -1.9790 -1.3102 -0.3057
 7222TIP3    H243158   6.655   6.030   6.216  1.6282  1.3964 -1.5608
 7223TIP3   OH243159   1.514   6.540  15.371 -0.0067 -0.0279 -0.0569
 7223TIP3    H143160   1.540   6.624  15.408  0.4210 -0.1347 -0.1090
 7223TIP3    H243161   1.429   6.557  15.330  1.7014  1.3931 -3.4548
 7224TIP3   OH243162   3.996   0.166   0.625 -0.4615 -0.0168  0.0610
 7224TIP3    H143163   3.904   0.186   0.608 -1.0578 -2.1718  0.5178
 7224TIP3    H243164   4.016   0.092   0.568  0.0620 -1.5551  2.1159
 7225TIP3   OH243165   2.698   0.668   1.356 -0.2289  0.3075 -0.3407
 7225TIP3    H143166   2.728   0.687   1.445  0.9579 -0.4814 -0.5482
 7225TIP3    H243167   2.653   0.584   1.363  2.6194 -1.3862 -0.9637
 7226TIP3   OH243168   2.686   5.364  12.445 -0.2766 -0.4939 -0.0596
 7226TIP3    H143169   2.639   5.445  12.465 -2.2433 -1.1483 -1.6549
 7226TIP3    H243170   2.725   5.380  12.359 -0.1206 -1.0174 -0.0895
 7227TIP3   OH243171   0.788   2.050   0.663  0.1652  0.9203 -0.0784
 7227TIP3    H143172   0.828   1.977   0.711 -1.7558  0.0665  0.3535
 7227TIP3    H243173   0.848   2.123   0.675  1.4562 -0.2120  0.6769
 7228TIP3   OH243174   2.911   0.979  15.635  1.5118  0.0186 -0.4768
 7228TIP3    H143175   2.846   0.954  15.701  1.3931  0.6110 -0.3679
 7228TIP3    H243176   2.891   0.922  15.560  0.7649  0.2979 -0.5030
 7229TIP3   OH243177   2.275   5.254   3.095  0.4896 -0.1578  0.2233
 7229TIP3    H143178   2.289   5.203   3.016 -0.2433 -1.1341  0.7054
 7229TIP3    H243179   2.269   5.189   3.165  1.2147  0.6907  1.1011
 7230TIP3   OH243180   1.416   1.511   3.355  0.6909  0.0641  0.0993
 7230TIP3    H143181   1.502   1.473   3.377  0.5061 -2.2760 -2.5957
 7230TIP3    H243182   1.355   1.464   3.411  0.8688 -0.8870 -0.4747
 7231TIP3   OH243183   6.569   4.327  12.143  0.6018  0.5648  0.3850
 7231TIP3    H143184   6.600   4.293  12.059  1.1521  0.6451  0.5461
 7231TIP3    H243185   6.519   4.406  12.121 -1.2367 -0.6674 -0.0465
 7232TIP3   OH243186   2.506   4.409  14.587 -0.2663 -0.8026 -0.1792
 7232TIP3    H143187   2.568   4.370  14.648  1.8303 -0.9284 -2.2502
 7232TIP3    H243188   2.515   4.503  14.600 -1.6124 -0.8600  1.3312
 7233TIP3   OH243189   1.581   0.620   1.898 -0.0757  0.1892 -0.2053
 7233TIP3    H143190   1.600   0.669   1.978 -1.8785  0.1494  0.2756
 7233TIP3    H243191   1.486   0.610   1.897  0.0865 -1.7655 -1.2027
 7234TIP3   OH243192   1.143   5.832   1.393  0.2829  0.2333  0.2169
 7234TIP3    H143193   1.149   5.826   1.489  0.7995  2.9692  0.4268
 7234TIP3    H243194   1.215   5.777   1.361  0.7105  0.0607  1.4087
 7235TIP3   OH243195   5.320   4.165   5.134 -0.3680  0.2530  0.3767
 7235TIP3    H143196   5.347   4.226   5.203  0.9561 -0.7335  0.7650
 7235TIP3    H243197   5.247   4.209   5.090  1.5186  2.8085 -0.3837
 7236TIP3   OH243198   4.816   1.743   5.069 -0.7311  0.2937  0.1555
 7236TIP3    H143199   4.880   1.692   5.020 -0.2273 -1.3267  2.3297
 7236TIP3    H243200   4.847   1.833   5.062  0.1777 -0.0945 -1.1653
 7237TIP3   OH243201   1.597   1.289  15.836  0.7204  0.9311 -0.2154
 7237TIP3    H143202   1.562   1.327  15.917  1.4350 -0.1597  0.6226
 7237TIP3    H243203   1.690   1.276  15.854  0.8801  0.6246 -1.2046
 7238TIP3   OH243204   2.370   5.905   0.177  0.3563 -0.8564 -0.2136
 7238TIP3    H143205   2.356   5.980   0.235 -0.3830 -1.7168  0.7665
 7238TIP3    H243206   2.381   5.830   0.236  2.2561 -1.3719 -1.1253
 7239TIP3   OH243207   0.492   5.913  12.843 -0.2255  0.0590  0.9511
 7239TIP3    H143208   0.471   5.952  12.928 -1.1109  0.1193  0.7095
 7239TIP3    H243209   0.587   5.916  12.839 -0.2498  2.1464  0.9561
 7240TIP3   OH243210   5.662   5.041   3.210 -0.3061 -0.0375  0.2535
 7240TIP3    H143211   5.749   5.052   3.171 -0.3541  0.4072  0.2668
 7240TIP3    H243212   5.611   5.116   3.177 -0.3259  0.3865  1.2126
 7241TIP3   OH243213   1.245   5.517   2.449  0.4948 -0.0179  0.0054
 7241TIP3    H143214   1.235   5.425   2.476  1.6717  0.3860  2.0630
 7241TIP3    H243215   1.291   5.513   2.365 -1.7026 -1.3265 -1.2302
 7242TIP3   OH243216   3.178   3.454  14.021  0.3496 -0.0997 -0.2590
 7242TIP3    H143217   3.273   3.469  14.025  0.2803  0.1149  1.8706
 7242TIP3    H243218   3.151   3.453  14.113 -1.4593 -1.9185 -0.7680
 7243TIP3   OH243219   1.968   1.500   4.319  0.1472 -0.1785 -0.4363
 7243TIP3    H143220   1.881   1.487   4.279  0.6985 -2.8704 -1.0017
 7243TIP3    H243221   2.029   1.492   4.246  0.9277  1.4378  0.0037
 7244TIP3   OH243222   0.122   0.121   4.203  0.1519  0.6722 -0.4954
 7244TIP3    H143223   0.194   0.110   4.266  0.0915 -3.5869 -0.8932
 7244TIP3    H243224   0.164   0.154   4.124  1.1941  0.8911  0.1322
 7245TIP3   OH243225   3.703   5.645  12.132 -0.0561 -0.7840  0.7023
 7245TIP3    H143226   3.695   5.586  12.058 -0.4526 -1.2644  1.1219
 7245TIP3    H243227   3.775   5.704  12.108 -0.2158 -0.8978 -0.0791
 7246TIP3   OH243228   5.154   4.781   3.391 -0.5651  0.2562 -0.0919
 7246TIP3    H143229   5.185   4.841   3.459 -0.1951 -0.5972  0.5153
 7246TIP3    H243230   5.169   4.828   3.309  0.5412  0.6454  0.3142
 7247TIP3   OH243231   6.833   3.499  11.882  0.2405  0.3827 -0.0174
 7247TIP3    H143232   6.882   3.457  11.953  1.0362  1.9069  0.3734
 7247TIP3    H243233   6.742   3.479  11.901  0.5767 -1.0911  0.1805
 7248TIP3   OH243234   6.081   5.807   2.987  0.5627  0.8289  0.7041
 7248TIP3    H143235   6.122   5.760   3.060  0.6747  2.4711  1.7717
 7248TIP3    H243236   5.987   5.789   2.997  0.7655 -0.9375 -0.2608
 7249TIP3   OH243237   0.162   2.428   0.672 -0.6682 -0.0795  0.4251
 7249TIP3    H143238   0.159   2.447   0.578 -2.1951 -1.8393  0.0565
 7249TIP3    H243239   0.222   2.493   0.708 -0.0205  0.6189 -1.7683
 7250TIP3   OH243240   6.081   0.170  16.201 -0.1480 -0.3169 -1.1516
 7250TIP3    H143241   6.155   0.187  16.260 -0.5465 -0.7049 -0.5378
 7250TIP3    H243242   6.119   0.116  16.132  0.0469 -0.8925 -0.6027
 7251TIP3   OH243243   1.533   2.131  11.406  0.3291 -0.0789 -0.5952
 7251TIP3    H143244   1.572   2.101  11.324 -1.4303  1.4977 -2.0723
 7251TIP3    H243245   1.588   2.205  11.434  0.8049 -0.4863 -0.4377
 7252TIP3   OH243246   4.746   5.564  17.065  0.4021 -0.4205 -0.2525
 7252TIP3    H143247   4.759   5.483  17.016 -0.0200 -0.4386 -0.3311
 7252TIP3    H243248   4.788   5.548  17.150  1.4330 -0.2729 -0.7114
 7253TIP3   OH243249   3.831   4.676   4.979 -0.3455  0.2872  0.3546
 7253TIP3    H143250   3.894   4.661   5.049  0.3348 -0.2447 -0.3547
 7253TIP3    H243251   3.794   4.763   4.998 -1.3055 -0.4737  2.2068
 7254TIP3   OH243252   5.972   1.413   1.699 -0.4604  0.0353 -0.1759
 7254TIP3    H143253   5.970   1.490   1.757 -0.2747 -1.1362  1.4651
 7254TIP3    H243254   5.888   1.369   1.714 -0.7036  0.0676 -1.3466
 7255TIP3   OH243255   5.372   0.547  16.054 -0.0026  0.5717 -0.6041
 7255TIP3    H143256   5.387   0.479  15.989  0.6067  0.7931 -0.7048
 7255TIP3    H243257   5.279   0.569  16.046 -0.3468 -0.6610 -0.1502
 7256TIP3   OH243258   1.063   5.158   4.030  0.0168 -0.3526  0.7767
 7256TIP3    H143259   1.050   5.157   4.125 -1.0845  2.0606  0.7210
 7256TIP3    H243260   1.094   5.246   4.010  1.7032 -1.2535 -0.9973
 7257TIP3   OH243261   5.402   5.644  12.799  0.3223  0.3893  0.2145
 7257TIP3    H143262   5.384   5.734  12.829  0.0311  1.6319 -3.2338
 7257TIP3    H243263   5.327   5.622  12.743  1.2658 -1.2832 -0.4598
 7258TIP3   OH243264   6.315   2.060  14.443  0.3280 -0.3706  0.0186
 7258TIP3    H143265   6.268   2.021  14.369 -0.9452  0.0228  0.5843
 7258TIP3    H243266   6.249   2.113  14.488  1.0664 -0.6284  1.4661
 7259TIP3   OH243267   5.731   4.198  14.140 -0.1245 -0.7232  0.7696
 7259TIP3    H143268   5.680   4.147  14.203 -1.6577 -0.8717 -0.5495
 7259TIP3    H243269   5.671   4.216  14.068  1.6863 -0.8973 -0.8602
 7260TIP3   OH243270   3.887   1.538  11.668  0.7385 -0.5663 -0.2970
 7260TIP3    H143271   3.866   1.476  11.738 -1.0879 -0.2272 -0.4988
 7260TIP3    H243272   3.841   1.504  11.591  1.0130  0.1787 -0.8048
 7261TIP3   OH243273   5.610   6.420  15.349  0.4069  0.3226 -0.5213
 7261TIP3    H143274   5.645   6.381  15.428  1.7137 -0.1127 -1.2915
 7261TIP3    H243275   5.635   6.359  15.279  1.8908  2.1444 -1.6658
 7262TIP3   OH243276   4.069   4.553  16.725  0.6069  0.3011  0.1866
 7262TIP3    H143277   3.979   4.530  16.749  0.3740  2.7746  2.0524
 7262TIP3    H243278   4.070   4.548  16.629 -1.2450 -0.6105  0.1696
 7263TIP3   OH243279   6.601   1.823  13.613 -0.0626 -0.1080 -0.0789
 7263TIP3    H143280   6.587   1.881  13.538  2.0782 -0.0755 -0.5170
 7263TIP3    H243281   6.534   1.849  13.677  1.9768  4.2771  0.6006
 7264TIP3   OH243282   1.273   2.073  13.684 -0.5637  0.0869 -0.0966
 7264TIP3    H143283   1.354   2.110  13.649 -0.8859  0.2569 -0.6806
 7264TIP3    H243284   1.292   1.980  13.693 -0.2853  0.1323 -0.1986
 7265TIP3   OH243285   3.434   4.998  14.573 -0.4320 -0.5863 -0.3461
 7265TIP3    H143286   3.420   5.040  14.658  0.3290 -1.4819  0.2531
 7265TIP3    H243287   3.509   4.940  14.588 -0.5022 -1.0074 -1.5460
 7266TIP3   OH243288   5.639   2.299   5.568 -0.4596  0.2739  0.5613
 7266TIP3    H143289   5.688   2.260   5.495  0.3031  0.8666  0.7508
 7266TIP3    H243290   5.643   2.234   5.637 -2.7059 -1.0972 -0.4693
 7267TIP3   OH243291   4.999   3.291   2.788  0.6171  0.1094 -0.1347
 7267TIP3    H143292   5.053   3.285   2.867  0.0744 -2.0976  0.1259
 7267TIP3    H243293   4.915   3.253   2.814 -0.1191  0.8388 -1.3515
 7268TIP3   OH243294   6.583   3.345   5.099 -0.0524  0.2978 -0.2436
 7268TIP3    H143295   6.515   3.337   5.032  1.2624 -2.9679 -1.3916
 7268TIP3    H243296   6.535   3.364   5.180 -2.3812 -1.8103 -0.9981
 7269TIP3   OH243297   1.934   3.499   0.385 -0.2226  0.0414  0.3106
 7269TIP3    H143298   1.989   3.432   0.343  2.1072  1.3295  1.0800
 7269TIP3    H243299   1.879   3.451   0.446 -0.4213 -1.3901 -0.9335
 7270TIP3   OH243300   2.350   1.995  16.569  0.4384 -0.2106  0.2338
 7270TIP3    H143301   2.344   2.085  16.602 -2.1354 -0.3855  0.4667
 7270TIP3    H243302   2.371   1.943  16.646  1.1664  0.1072  0.2519
 7271TIP3   OH243303   1.606   6.085  14.628 -0.1695  0.4076 -0.3685
 7271TIP3    H143304   1.616   6.168  14.674  1.8609 -0.7805  1.5520
 7271TIP3    H243305   1.657   6.095  14.548  0.6643  0.8064  0.1995
 7272TIP3   OH243306   1.531   4.676   0.988 -0.2658 -0.3972  0.1866
 7272TIP3    H143307   1.527   4.737   0.915  0.0361  0.8090  1.1525
 7272TIP3    H243308   1.454   4.696   1.041  0.1107 -0.4937  0.7817
 7273TIP3   OH243309   1.359   5.623   4.850 -0.2098 -0.3211  0.4331
 7273TIP3    H143310   1.349   5.534   4.884 -0.0600 -1.2088 -1.6536
 7273TIP3    H243311   1.287   5.632   4.787 -0.7868  1.4174  1.2843
 7274TIP3   OH243312   0.165   0.933  12.950  0.4124  0.0586  0.0224
 7274TIP3    H143313   0.242   0.988  12.964  1.3116 -0.7725 -1.4251
 7274TIP3    H243314   0.167   0.871  13.023  0.1005  1.0958  0.9587
 7275TIP3   OH243315   3.065   0.727   2.233  0.8351 -0.2632  0.1057
 7275TIP3    H143316   2.973   0.699   2.236  0.3698  1.0340 -1.0783
 7275TIP3    H243317   3.094   0.705   2.145  0.7470  1.9554 -0.5363
 7276TIP3   OH243318   6.323   4.678  11.468 -0.3235  0.1535 -0.0080
 7276TIP3    H143319   6.365   4.757  11.501 -0.6648  0.2485  0.2024
 7276TIP3    H243320   6.329   4.685  11.373 -2.6973  1.7349 -0.1162
 7277TIP3   OH243321   1.397   6.481  13.491  0.2802  0.5400 -0.4841
 7277TIP3    H143322   1.492   6.484  13.488  0.5080 -2.7523 -0.1528
 7277TIP3    H243323   1.369   6.493  13.400  1.3380 -2.3053 -1.2941
 7278TIP3   OH243324   4.340   2.782  15.802 -0.1651  0.1321  0.5210
 7278TIP3    H143325   4.374   2.703  15.845 -1.2438  0.1938  1.5520
 7278TIP3    H243326   4.294   2.750  15.725  1.6657  0.0029 -0.5706
 7279TIP3   OH243327   0.955   0.623  13.591  0.4271  0.7617  0.6607
 7279TIP3    H143328   0.913   0.654  13.511 -0.4346 -0.5337  0.5615
 7279TIP3    H243329   0.985   0.534  13.569  1.0302  0.7495  1.4896
 7280TIP3   OH243330   5.416   6.355  11.092  0.3827  1.3279 -0.6565
 7280TIP3    H143331   5.504   6.318  11.091 -0.2926 -0.3664 -0.3993
 7280TIP3    H243332   5.411   6.407  11.012  1.8753  2.1480 -0.2659
 7281TIP3   OH243333   6.619   3.445  15.605  0.0119  0.2779  0.0903
 7281TIP3    H143334   6.551   3.506  15.631 -0.6386 -1.2932  2.4339
 7281TIP3    H243335   6.688   3.456  15.671  1.5567  1.0022 -1.5647
 7282TIP3   OH243336   6.003   1.076   4.849 -0.1838  0.5185 -0.1661
 7282TIP3    H143337   5.997   0.987   4.815 -1.9695  0.8049 -0.6911
 7282TIP3    H243338   5.955   1.130   4.786  0.2249  1.7378  0.5270
 7283TIP3   OH243339   2.777   1.543  15.776 -0.1917 -0.6618 -0.2788
 7283TIP3    H143340   2.703   1.601  15.793  0.1517  0.1716 -1.5450
 7283TIP3    H243341   2.790   1.547  15.681  0.8058 -1.6287 -0.2057
 7284TIP3   OH243342   0.078   6.356   3.814 -0.1054 -0.5487 -0.2741
 7284TIP3    H143343   0.008   6.409   3.852 -0.3536 -0.8919 -0.2481
 7284TIP3    H243344   0.145   6.420   3.788 -0.2492 -0.2524  0.0698
 7285TIP3   OH243345   0.980   4.109   5.323 -0.1196  0.2425 -0.0223
 7285TIP3    H143346   1.061   4.141   5.364  0.2444 -0.9652  0.2333
 7285TIP3    H243347   0.930   4.069   5.394  0.3863 -1.6058 -0.6351
 7286TIP3   OH243348   2.180   0.164  11.856 -0.4084  0.2362  0.3326
 7286TIP3    H143349   2.087   0.152  11.840 -0.7661  2.1371  0.7218
 7286TIP3    H243350   2.194   0.259  11.847  0.8443  0.4512  3.4429
 7287TIP3   OH243351   0.754   1.022   4.731 -0.5614 -0.0986  1.1160
 7287TIP3    H143352   0.744   1.116   4.749 -0.6632  0.0774  0.2188
 7287TIP3    H243353   0.755   0.981   4.817  0.2435  0.7993  1.5571
 7288TIP3   OH243354   4.785   3.549   0.575 -0.1702 -0.0909 -0.2101
 7288TIP3    H143355   4.823   3.557   0.488  0.0348  0.5354 -0.0644
 7288TIP3    H243356   4.752   3.458   0.578 -2.5069  0.5795 -1.9009
 7289TIP3   OH243357   4.812   2.446   0.749 -0.4574  0.0948  0.9347
 7289TIP3    H143358   4.851   2.532   0.735 -0.8962 -0.0720 -1.8710
 7289TIP3    H243359   4.867   2.386   0.699  0.1894 -1.4350  3.2959
 7290TIP3   OH243360   2.268   2.792  15.500  0.0930  0.7806  0.4418
 7290TIP3    H143361   2.190   2.754  15.461 -1.3922  3.1137  0.8845
 7290TIP3    H243362   2.306   2.847  15.430  2.4668 -1.6355 -0.3576
 7291TIP3   OH243363   1.373   1.649  11.136  0.1690 -0.6089 -0.1926
 7291TIP3    H143364   1.330   1.587  11.077 -0.3903  0.7419 -1.2700
 7291TIP3    H243365   1.306   1.670  11.201  0.5456 -1.5455  0.5119
 7292TIP3   OH243366   3.239   3.493   4.871  0.3508 -0.0652 -0.4228
 7292TIP3    H143367   3.194   3.411   4.893 -0.0906  0.3066  0.0890
 7292TIP3    H243368   3.246   3.491   4.776  1.0561 -1.0589 -0.3682
 7293TIP3   OH243369   4.117   1.045   0.756 -0.7822 -0.3511  0.4090
 7293TIP3    H143370   4.043   1.030   0.814  0.7259 -1.7590  2.0808
 7293TIP3    H243371   4.142   1.136   0.771 -1.5255 -0.1672  0.5669
 7294TIP3   OH243372   1.977   6.543  13.245 -0.3723 -0.2189 -0.2702
 7294TIP3    H143373   1.897   6.588  13.219  0.3059  0.5559 -1.0655
 7294TIP3    H243374   2.046   6.583  13.192  0.1163 -2.8932 -1.8386
 7295TIP3   OH243375   4.997   6.407   1.596 -0.2106  0.2020 -0.1964
 7295TIP3    H143376   4.945   6.328   1.578  0.2971 -0.5411  1.3956
 7295TIP3    H243377   5.059   6.411   1.524 -1.2813  0.0862 -1.1659
 7296TIP3   OH243378   1.924   1.454  12.387 -0.8607 -0.3736  0.4034
 7296TIP3    H143379   1.965   1.498  12.462 -2.0145 -0.6003  1.1893
 7296TIP3    H243380   1.888   1.525  12.334  0.4556 -0.1724 -0.2805
 7297TIP3   OH243381   0.247   2.961  12.502 -0.3596 -0.0581  0.5073
 7297TIP3    H143382   0.181   2.911  12.550 -0.6684  0.4977  0.6656
 7297TIP3    H243383   0.231   3.052  12.526  2.1363 -0.0773  2.6624
 7298TIP3   OH243384   0.092   3.363  12.246 -0.2835  0.6709 -0.0766
 7298TIP3    H143385   0.168   3.369  12.304  0.4152  1.4692 -1.0464
 7298TIP3    H243386   0.028   3.312  12.296  0.7838  0.2044  0.8625
 7299TIP3   OH243387   3.770   0.318  13.526 -0.1970 -0.2397 -0.0490
 7299TIP3    H143388   3.708   0.379  13.568  0.2300 -1.3455  2.3361
 7299TIP3    H243389   3.844   0.373  13.500 -0.6673  0.5548  0.2582
 7300TIP3   OH243390   0.522   2.715  15.242  0.0326  0.5301  0.1589
 7300TIP3    H143391   0.603   2.762  15.221  0.0006  0.1424 -0.8715
 7300TIP3    H243392   0.452   2.776  15.219 -0.0136 -0.0736 -1.3729
 7301TIP3   OH243393   5.981   2.279   1.842 -0.1255  0.2288 -0.1193
 7301TIP3    H143394   6.074   2.298   1.856  0.2899 -0.1051 -2.1918
 7301TIP3    H243395   5.954   2.340   1.774 -1.4143  0.2094  0.3397
 7302TIP3   OH243396   1.244   0.941   4.921  0.5019  0.4482  0.1081
 7302TIP3    H143397   1.195   0.991   4.855  0.8958 -0.8624 -1.2309
 7302TIP3    H243398   1.333   0.976   4.915  0.4365  0.6525  0.2969
 7303TIP3   OH243399   2.706   2.226  12.121 -0.2036  0.2076  0.2158
 7303TIP3    H143400   2.716   2.183  12.206 -0.2232  1.6910  1.0135
 7303TIP3    H243401   2.726   2.158  12.057  2.2659 -0.3329  1.4386
 7304TIP3   OH243402   4.943   2.765  16.917 -0.1232  0.3992  0.5600
 7304TIP3    H143403   4.902   2.716  16.845 -0.7431  1.0631  0.4502
 7304TIP3    H243404   4.963   2.851  16.879  2.4483 -0.2328  0.2606
 7305TIP3   OH243405   0.277   0.478  16.032  0.3468  0.0638 -0.2003
 7305TIP3    H143406   0.322   0.394  16.040  1.4069  0.4701 -1.4740
 7305TIP3    H243407   0.222   0.484  16.110  0.8544 -1.4441  0.3034
 7306TIP3   OH243408   0.677   2.732   5.534 -0.0791  0.0287 -0.0418
 7306TIP3    H143409   0.679   2.821   5.569 -0.3146 -0.0561  0.1970
 7306TIP3    H243410   0.643   2.742   5.445 -1.7336  0.0197  0.5466
 7307TIP3   OH243411   2.232   1.238   1.852  0.4469  0.1728 -0.4869
 7307TIP3    H143412   2.322   1.254   1.880 -0.7411  1.2729  3.2576
 7307TIP3    H243413   2.196   1.326   1.836 -0.7521  0.0241  1.1447
 7308TIP3   OH243414   1.451   4.585  11.961 -0.3203  0.2055 -0.2344
 7308TIP3    H143415   1.515   4.622  12.021 -0.2902  0.9367 -0.7058
 7308TIP3    H243416   1.441   4.494  11.989  1.2914 -0.0610 -0.4757
 7309TIP3   OH243417   6.232   1.908  16.948 -0.0011 -0.6217  0.1372
 7309TIP3    H143418   6.181   1.914  16.867 -0.1898  1.1043  0.3445
 7309TIP3    H243419   6.193   1.974  17.005 -0.6837 -2.6163  2.1311
 7310TIP3   OH243420   0.282   5.054  13.832 -0.6569 -0.0215  0.0030
 7310TIP3    H143421   0.356   5.047  13.892 -0.7754 -0.2410  0.1218
 7310TIP3    H243422   0.308   5.123  13.770 -0.3293 -0.1395  0.0085
 7311TIP3   OH243423   0.789   3.971   0.328  0.1800  0.0416  0.2453
 7311TIP3    H143424   0.835   3.972   0.411 -0.0171 -0.6426  0.3700
 7311TIP3    H243425   0.849   4.011   0.266  0.3376  0.5262  0.7103
 7312TIP3   OH243426   1.151   2.787   2.522  0.1253  0.5601  0.0903
 7312TIP3    H143427   1.156   2.694   2.501 -2.4030  0.7619 -1.8364
 7312TIP3    H243428   1.186   2.793   2.611  0.8169 -2.1381  0.0841
 7313TIP3   OH243429   5.857   5.069  12.663 -0.3340  0.1029 -0.6769
 7313TIP3    H143430   5.920   4.997  12.667 -0.8608 -0.5660 -2.9473
 7313TIP3    H243431   5.835   5.077  12.570 -0.8924  2.7020 -0.3974
 7314TIP3   OH243432   1.644   5.582   4.881 -0.1444  0.1123 -0.1965
 7314TIP3    H143433   1.620   5.491   4.865 -2.6884  0.3092  1.7729
 7314TIP3    H243434   1.560   5.629   4.884  0.7940  1.8745  2.0838
 7315TIP3   OH243435   0.840   2.159  13.262  0.5272 -0.6979 -0.5018
 7315TIP3    H143436   0.824   2.111  13.343  0.6234 -0.6304 -0.4428
 7315TIP3    H243437   0.934   2.150  13.246  0.7934  0.5353  0.1903
 7316TIP3   OH243438   0.812   3.174  15.912  0.5587 -0.0876 -0.5263
 7316TIP3    H143439   0.828   3.259  15.953  0.3863 -0.0221 -0.5939
 7316TIP3    H243440   0.728   3.146  15.947  1.2860 -0.9206  0.6450
 7317TIP3   OH243441   4.092   1.733   2.306  0.2881  0.3752 -0.2695
 7317TIP3    H143442   4.175   1.717   2.260  0.9895  0.6601  0.8387
 7317TIP3    H243443   4.042   1.653   2.293  0.7832  0.1512 -0.8707
 7318TIP3   OH243444   3.790   2.194   5.060  0.1085  0.1138 -0.3407
 7318TIP3    H143445   3.743   2.118   5.096  0.2041  0.4887  0.5972
 7318TIP3    H243446   3.755   2.204   4.971 -0.6628 -0.3884 -0.1049
 7319TIP3   OH243447   1.416   4.226  15.725 -0.2340 -0.3736 -0.0930
 7319TIP3    H143448   1.321   4.226  15.732 -0.4045 -0.2508 -1.9014
 7319TIP3    H243449   1.433   4.252  15.635  1.5486  0.5188  0.4574
 7320TIP3   OH243450   0.257   4.158   3.900 -0.7997  0.2168 -0.3755
 7320TIP3    H143451   0.252   4.063   3.900  0.0477  0.1570  0.5557
 7320TIP3    H243452   0.265   4.182   3.992  1.7150  1.0044 -0.7242
 7321TIP3   OH243453   5.740   3.967   2.424  0.4003  0.6109  0.4543
 7321TIP3    H143454   5.739   4.019   2.344  1.2298  0.8221  0.5735
 7321TIP3    H243455   5.661   3.994   2.471 -0.9617 -0.6592 -0.9929
 7322TIP3   OH243456   4.264   2.086  15.772 -0.1244  0.0715 -0.0162
 7322TIP3    H143457   4.181   2.061  15.813 -0.2148  1.7685  0.9617
 7322TIP3    H243458   4.247   2.085  15.678 -1.3802  0.7670  0.1897
 7323TIP3   OH243459   6.359   4.041   4.964 -0.0487 -0.3174  0.3348
 7323TIP3    H143460   6.409   3.960   4.955 -1.7632 -1.3326 -0.6834
 7323TIP3    H243461   6.300   4.040   4.889  0.9473  2.7036 -0.6152
 7324TIP3   OH243462   5.288   5.299  10.677 -0.2206  0.1530 -0.8569
 7324TIP3    H143463   5.342   5.375  10.697 -1.4816  0.6735  0.8098
 7324TIP3    H243464   5.206   5.335  10.645 -0.6995 -0.4956 -0.3967
 7325TIP3   OH243465   4.471   4.043  14.941 -0.0405 -0.4977 -0.3516
 7325TIP3    H143466   4.563   4.019  14.951 -0.3538 -1.7017 -0.3237
 7325TIP3    H243467   4.424   3.988  15.004 -0.7469  0.4159 -0.0502
 7326TIP3   OH243468   2.834   1.639  12.492 -0.1025 -0.1908  0.4511
 7326TIP3    H143469   2.823   1.659  12.585  0.2546 -0.0420  0.4640
 7326TIP3    H243470   2.851   1.723  12.451  0.1568 -0.3071  0.3163
 7327TIP3   OH243471   5.549   5.282  11.713  0.1694  0.0992  0.1446
 7327TIP3    H143472   5.481   5.349  11.722  0.3461  0.2596  0.2764
 7327TIP3    H243473   5.566   5.279  11.619  0.7413  0.8200  0.2136
 7328TIP3   OH243474   1.177   2.100   5.157  0.3325  0.0344  0.2040
 7328TIP3    H143475   1.200   2.022   5.106 -0.3111  0.3619 -0.5989
 7328TIP3    H243476   1.238   2.098   5.231  0.6832 -0.9376 -0.0908
 7329TIP3   OH243477   5.526   2.005  12.461  1.0700  0.1343 -0.4124
 7329TIP3    H143478   5.493   2.062  12.392  1.5551 -0.3187 -1.0295
 7329TIP3    H243479   5.472   1.927  12.456  0.3032  0.5752  0.5374
 7330TIP3   OH243480   3.390   6.032   4.994  0.3106 -0.0283 -0.2300
 7330TIP3    H143481   3.457   6.089   5.034 -0.2071  0.5499 -0.1771
 7330TIP3    H243482   3.426   6.010   4.908  0.7095  0.0225 -0.0814
 7331TIP3   OH243483   3.042   6.836  13.912 -0.1835  0.1019 -0.9253
 7331TIP3    H143484   2.994   6.753  13.920 -1.2473  0.5911 -1.9380
 7331TIP3    H243485   3.112   6.830  13.978  0.6505 -2.1904 -1.9217
 7332TIP3   OH243486   5.319   2.151  12.290 -0.2413  0.6181  0.0696
 7332TIP3    H143487   5.355   2.224  12.240  1.0470 -0.9188 -1.3689
 7332TIP3    H243488   5.233   2.134  12.251  0.1313  0.3740 -0.6666
 7333TIP3   OH243489   0.781   4.044  12.628 -0.0505  0.0137 -0.2565
 7333TIP3    H143490   0.873   4.068  12.630 -0.2027  0.5816  0.0192
 7333TIP3    H243491   0.757   4.031  12.720  0.1501 -1.6921 -0.4144
 7334TIP3   OH243492   6.701   3.676   0.321 -0.2551 -0.3732 -0.2988
 7334TIP3    H143493   6.729   3.723   0.399 -0.1285 -1.8246  0.5634
 7334TIP3    H243494   6.607   3.664   0.334 -0.4907  0.5201 -1.0258
 7335TIP3   OH243495   0.780   5.534   5.725 -0.4711  0.4510 -0.0145
 7335TIP3    H143496   0.818   5.618   5.701  1.1551 -0.6647 -1.6227
 7335TIP3    H243497   0.685   5.547   5.720 -0.2543  2.2683  0.1860
 7336TIP3   OH243498   3.128   2.759  16.780 -0.3045  0.2781 -0.6253
 7336TIP3    H143499   3.192   2.733  16.714 -0.0580  0.6548 -0.5390
 7336TIP3    H243500   3.173   2.825  16.833 -0.1036 -0.8406  0.6387
 7337TIP3   OH243501   2.880   4.707   3.273 -0.0029  0.7063 -0.3992
 7337TIP3    H143502   2.882   4.615   3.246 -0.8553  1.3135 -2.7707
 7337TIP3    H243503   2.827   4.707   3.353  0.3981 -0.8943 -0.0866
 7338TIP3   OH243504   6.737   0.786  14.317 -0.2862 -0.3592 -0.4603
 7338TIP3    H143505   6.694   0.712  14.360 -2.4389  0.6729 -0.7203
 7338TIP3    H243506   6.791   0.825  14.386  1.2034 -2.3226 -0.4172
 7339TIP3   OH243507   3.429   5.465  14.687  0.0229 -0.6246  0.0091
 7339TIP3    H143508   3.483   5.544  14.677 -1.0571 -0.0777 -2.4118
 7339TIP3    H243509   3.362   5.489  14.751 -1.3941  1.1864 -1.9944
 7340TIP3   OH243510   0.154   0.490   6.295  0.0722  0.2813 -0.4212
 7340TIP3    H143511   0.155   0.411   6.241 -1.0948 -0.2897  0.3510
 7340TIP3    H243512   0.066   0.493   6.331  1.4750 -0.8437  3.5664
 7341TIP3   OH243513   5.486   3.637  16.788 -0.4697 -0.3527 -0.2134
 7341TIP3    H143514   5.511   3.719  16.829  1.7065 -1.0573  0.0063
 7341TIP3    H243515   5.392   3.645  16.772 -0.2118  2.4200 -0.8065
 7342TIP3   OH243516   3.438   2.627  15.549 -0.1461  0.3097  0.1229
 7342TIP3    H143517   3.508   2.666  15.601 -0.6596 -0.6906  1.6055
 7342TIP3    H243518   3.381   2.701  15.528  0.9517  1.0101 -0.4910
 7343TIP3   OH243519   5.825   5.587   4.677 -0.0315  0.1303  0.0145
 7343TIP3    H143520   5.751   5.535   4.708 -1.4757  1.1033 -1.6069
 7343TIP3    H243521   5.902   5.537   4.703 -1.1861 -0.5103  2.5306
 7344TIP3   OH243522   5.876   4.538   4.097  0.3091  0.2548  0.1419
 7344TIP3    H143523   5.929   4.609   4.061  0.6207 -0.3350 -0.5826
 7344TIP3    H243524   5.787   4.558   4.070  0.3978  0.3633 -0.0693
 7345TIP3   OH243525   1.274   2.575   1.763  0.1900 -0.3286  0.5928
 7345TIP3    H143526   1.202   2.521   1.729 -0.4641  0.5402  0.5649
 7345TIP3    H243527   1.312   2.616   1.686  0.9108 -1.0071  0.5790
 7346TIP3   OH243528   5.723   4.828  14.888 -0.3808  0.4446  0.3747
 7346TIP3    H143529   5.791   4.808  14.952 -0.3046  1.9467  0.8156
 7346TIP3    H243530   5.659   4.880  14.936 -0.3076  1.6266 -0.7277
 7347TIP3   OH243531   4.015   6.526  15.891  0.0908 -0.0636  0.1570
 7347TIP3    H143532   4.049   6.611  15.864  0.6198 -0.7036 -1.3111
 7347TIP3    H243533   3.925   6.524  15.858  0.2010 -0.2122 -0.1383
 7348TIP3   OH243534   4.109   3.940  16.796 -0.0792  0.3040 -0.5537
 7348TIP3    H143535   4.087   4.008  16.860 -0.5048 -0.3384 -0.0168
 7348TIP3    H243536   4.205   3.940  16.794 -0.0386 -0.0655  0.5235
 7349TIP3   OH243537   4.657   0.432  14.544 -0.9194 -0.5668  0.0090
 7349TIP3    H143538   4.573   0.392  14.522 -0.9435 -0.6905  0.3253
 7349TIP3    H243539   4.711   0.421  14.466 -0.5875 -2.1067  0.4298
 7350TIP3   OH243540   4.482   3.559  13.859  0.0407  0.2232  0.2063
 7350TIP3    H143541   4.529   3.642  13.868  1.8991 -0.6721 -0.6034
 7350TIP3    H243542   4.539   3.495  13.901 -0.9279 -0.7913  0.0234
 7351TIP3   OH243543   0.114   2.693  14.139 -0.2188  0.2191  0.0779
 7351TIP3    H143544   0.055   2.657  14.205  0.2143 -1.3451 -0.3347
 7351TIP3    H243545   0.196   2.707  14.186  0.0970 -0.9183 -0.0953
 7352TIP3   OH243546   1.356   3.771  14.224 -0.2278 -0.4570 -0.4063
 7352TIP3    H143547   1.363   3.757  14.318 -1.0116 -0.4277 -0.3364
 7352TIP3    H243548   1.266   3.801  14.210  0.2378  0.7730 -1.0096
 7353TIP3   OH243549   5.494   2.202   0.011 -0.1950 -0.0414  0.0280
 7353TIP3    H143550   5.527   2.163   0.092 -0.7278 -1.1429 -0.2650
 7353TIP3    H243551   5.415   2.152  -0.009 -0.6395  0.8966 -0.6297
 7354TIP3   OH243552   4.771   6.309  14.695  0.0374  0.1071 -0.2148
 7354TIP3    H143553   4.768   6.235  14.635 -0.5988 -0.6373  0.7041
 7354TIP3    H243554   4.742   6.273  14.779  0.5742  1.1963  0.4602
 7355TIP3   OH243555   4.728   6.057   5.572 -0.3692  0.0970 -0.0952
 7355TIP3    H143556   4.673   6.126   5.609  0.5287  0.1124  1.3181
 7355TIP3    H243557   4.795   6.103   5.522 -0.7838  0.1486 -0.6102
 7356TIP3   OH243558   4.586   4.361   3.420 -0.1829  0.0374 -0.1997
 7356TIP3    H143559   4.655   4.374   3.484  0.3788  1.0825 -0.9867
 7356TIP3    H243560   4.621   4.296   3.359 -0.3292 -0.2361  0.0073
 7357TIP3   OH243561   6.713   1.400   4.468 -1.3624 -0.4799 -0.5020
 7357TIP3    H143562   6.748   1.356   4.545 -0.1895  1.0228 -0.1437
 7357TIP3    H243563   6.643   1.342   4.438 -2.9952 -0.3516  2.6185
 7358TIP3   OH243564   0.984   2.834   2.174  0.6809  0.1941  0.0721
 7358TIP3    H143565   0.960   2.798   2.259 -1.9931 -0.3627 -0.8193
 7358TIP3    H243566   1.025   2.761   2.128  0.7096  0.0313  0.3516
 7359TIP3   OH243567   6.362   2.221  16.200 -0.3980 -0.5073 -0.2719
 7359TIP3    H143568   6.407   2.196  16.119  0.1274  0.1589 -0.1977
 7359TIP3    H243569   6.326   2.308  16.181 -1.5211 -0.9625 -0.2757
 7360TIP3   OH243570   3.728   4.629   0.792 -0.2780  0.0656 -0.1148
 7360TIP3    H143571   3.806   4.627   0.848 -0.5347 -0.4034  0.2401
 7360TIP3    H243572   3.716   4.537   0.765 -0.1707  0.2843 -0.9272
 7361TIP3   OH243573   1.459   6.395   0.919 -0.3347  0.4005  0.1589
 7361TIP3    H143574   1.382   6.402   0.975 -0.1396  1.3484  0.3361
 7361TIP3    H243575   1.521   6.458   0.956 -0.3336  1.3285 -1.3250
 7362TIP3   OH243576   3.831   1.720  15.985  0.2909  0.1529  0.2553
 7362TIP3    H143577   3.818   1.685  15.897 -0.4329  0.3324  0.2850
 7362TIP3    H243578   3.746   1.710  16.028  0.7853 -0.4686  1.1326
 7363TIP3   OH243579   1.020   6.048  13.270  0.0064  0.2379 -0.1030
 7363TIP3    H143580   1.046   5.980  13.332 -1.6479 -0.6486 -0.3193
 7363TIP3    H243581   1.003   6.125  13.324  0.2882 -0.0121  0.3418
 7364TIP3   OH243582   0.786   1.881   2.145  0.0678  0.5427  0.3018
 7364TIP3    H143583   0.795   1.880   2.240 -0.9540  0.0024  0.4096
 7364TIP3    H243584   0.777   1.974   2.123 -0.3871  0.6268  0.8144
 7365TIP3   OH243585   0.985   4.235  12.674  0.4633  0.3330 -0.1658
 7365TIP3    H143586   1.040   4.249  12.751  0.7555 -0.4887 -0.2152
 7365TIP3    H243587   1.033   4.279  12.603  0.8201  0.0406 -0.1121
 7366TIP3   OH243588   6.309   5.126  16.392  0.3986  0.3265 -0.8604
 7366TIP3    H143589   6.359   5.066  16.336 -0.8913 -0.9531 -0.7101
 7366TIP3    H243590   6.263   5.068  16.453 -3.1464  1.2128 -2.4621
 7367TIP3   OH243591   1.561   0.248   1.528 -0.0434  0.0921  1.1597
 7367TIP3    H143592   1.573   0.161   1.490 -0.4281  0.9576 -1.0749
 7367TIP3    H243593   1.633   0.300   1.493 -1.7877  1.5488 -0.4962
 7368TIP3   OH243594   2.570   6.660  14.427 -0.6255 -0.5024 -0.3655
 7368TIP3    H143595   2.566   6.718  14.504  0.9914 -0.4229 -0.3065
 7368TIP3    H243596   2.496   6.601  14.438 -1.0698  0.2147  0.6906
 7369TIP3   OH243597   2.365   3.915   3.020  0.2391  0.2698  0.6541
 7369TIP3    H143598   2.300   3.969   2.976 -1.2755  1.2527  3.7827
 7369TIP3    H243599   2.449   3.945   2.985 -0.8480 -0.3033 -2.7341
 7370TIP3   OH243600   0.103   2.790  12.682 -0.7407  0.1693  0.7986
 7370TIP3    H143601   0.142   2.764  12.765  0.6062 -0.9438 -0.1139
 7370TIP3    H243602   0.025   2.735  12.673  0.7684 -1.9973  0.0025
 7371TIP3   OH243603   0.158   5.174  15.292 -0.6724 -0.2648 -0.1391
 7371TIP3    H143604   0.201   5.127  15.220 -0.7649  0.0547 -0.4066
 7371TIP3    H243605   0.125   5.105  15.349  1.8816 -0.5691  1.1391
 7372TIP3   OH243606   2.655   6.108  13.173 -0.5346 -0.3644 -0.6316
 7372TIP3    H143607   2.721   6.120  13.105 -0.0150  4.2844  0.3697
 7372TIP3    H243608   2.706   6.091  13.253 -0.5041  1.7073 -0.1461
 7373TIP3   OH243609   6.192   2.314  12.622  0.5114 -0.0585  0.5603
 7373TIP3    H143610   6.141   2.294  12.543 -0.7693  0.1097  1.3213
 7373TIP3    H243611   6.278   2.275  12.605  0.7501  1.1706 -1.5140
 7374TIP3   OH243612   1.224   1.716  16.825 -0.3689 -0.4959  0.4307
 7374TIP3    H143613   1.273   1.747  16.750 -0.4475  1.3925  1.1029
 7374TIP3    H243614   1.285   1.659  16.872  0.4949  0.2195  0.1967
 7375TIP3   OH243615   2.594   3.129  15.984 -0.1960  0.1263 -0.0314
 7375TIP3    H143616   2.609   3.203  16.043  1.3677  0.2811 -0.5905
 7375TIP3    H243617   2.654   3.144  15.911 -0.7258 -1.0754 -0.7367
 7376TIP3   OH243618   6.597   3.450  15.329 -0.4264 -0.7387 -0.2808
 7376TIP3    H143619   6.584   3.539  15.298 -1.2339 -0.9257 -0.5042
 7376TIP3    H243620   6.627   3.459  15.419  0.2417 -0.2323 -0.5440
 7377TIP3   OH243621   1.323   2.303  15.966  0.7026  0.2730 -0.3087
 7377TIP3    H143622   1.257   2.260  15.911  0.7129  0.5481 -0.5354
 7377TIP3    H243623   1.361   2.231  16.017  2.1060 -0.3298 -2.0845
 7378TIP3   OH243624   4.828   1.718  16.695 -0.1108 -0.0805 -0.0853
 7378TIP3    H143625   4.754   1.734  16.637  0.2704 -1.1360 -0.8858
 7378TIP3    H243626   4.858   1.630  16.673 -0.8877 -1.1760  2.7396
 7379TIP3   OH243627   5.612   5.318   5.282 -0.3055 -0.1029 -0.3030
 7379TIP3    H143628   5.579   5.307   5.371  0.4235 -0.5052 -0.0762
 7379TIP3    H243629   5.675   5.247   5.271 -0.7702 -0.3783 -1.3215
 7380TIP3   OH243630   0.246   0.679   2.797  0.2478 -0.2601 -0.1908
 7380TIP3    H143631   0.235   0.638   2.711 -2.2318  0.5660 -0.3322
 7380TIP3    H243632   0.157   0.690   2.831  1.1365 -1.4466  2.9550
 7381TIP3   OH243633   6.314   0.959   0.862 -0.2005 -0.0398 -0.0970
 7381TIP3    H143634   6.312   1.023   0.791  0.0405  0.2720  0.1744
 7381TIP3    H243635   6.225   0.923   0.864 -0.8837  1.6124  0.9558
 7382TIP3   OH243636   1.753   2.361   2.830  0.5411 -0.5690  0.1841
 7382TIP3    H143637   1.839   2.378   2.866  0.1542  1.0483  0.4185
 7382TIP3    H243638   1.753   2.268   2.809  2.1475 -0.6930  0.6664
 7383TIP3   OH243639   6.390   3.921   1.167 -0.6522 -0.7947  0.5769
 7383TIP3    H143640   6.362   3.970   1.245  0.3572 -0.4532  0.7434
 7383TIP3    H243641   6.485   3.931   1.166 -0.7379  0.1325 -1.3278
 7384TIP3   OH243642   5.574   3.998  14.272  0.7450 -0.6863 -0.4394
 7384TIP3    H143643   5.512   4.014  14.343 -0.1954  2.0081 -1.7401
 7384TIP3    H243644   5.520   3.977  14.196  1.3117  1.3868 -1.5164
 7385TIP3   OH243645   4.333   2.372   2.894 -0.0610 -0.2374  0.1978
 7385TIP3    H143646   4.253   2.348   2.940  0.6411 -0.9349  1.0888
 7385TIP3    H243647   4.303   2.418   2.816 -1.3359 -0.7745  0.3537
 7386TIP3   OH243648   0.546   1.838   4.784 -0.4767 -0.3991 -0.5778
 7386TIP3    H143649   0.453   1.851   4.765 -0.5487 -1.5001 -1.0540
 7386TIP3    H243650   0.577   1.779   4.716  0.3649 -0.7643  0.0938
 7387TIP3   OH243651   1.628   2.012  11.180 -0.0721  0.2240  0.6014
 7387TIP3    H143652   1.649   1.922  11.203  1.1212  0.3730  0.1853
 7387TIP3    H243653   1.587   2.007  11.093 -0.0474  0.0781  0.5999
 7388TIP3   OH243654   1.168   3.203   0.636 -0.5071 -0.3217 -0.1880
 7388TIP3    H143655   1.121   3.122   0.619 -1.5322 -0.2891  2.1018
 7388TIP3    H243656   1.249   3.175   0.679  0.3483 -0.2147 -1.6418
 7389TIP3   OH243657   1.755   2.595   1.120 -0.1842  0.1156 -0.6559
 7389TIP3    H143658   1.680   2.541   1.098 -0.5631  1.2079 -2.1701
 7389TIP3    H243659   1.750   2.670   1.061  1.4762  0.7766 -0.0370
 7390TIP3   OH243660   0.668   5.432  14.310  0.2357  0.1830 -0.4861
 7390TIP3    H143661   0.581   5.401  14.335  0.5278 -0.3320 -0.0825
 7390TIP3    H243662   0.681   5.398  14.222 -0.3562  1.0764 -0.9293
 7391TIP3   OH243663   1.814   3.890   3.251  0.4045 -0.3147 -0.0562
 7391TIP3    H143664   1.854   3.826   3.192 -0.2374 -1.0963  0.3310
 7391TIP3    H243665   1.750   3.937   3.196  0.3945 -0.4721 -0.1791
 7392TIP3   OH243666   6.684   4.134  16.849 -0.2165 -0.2695  0.0601
 7392TIP3    H143667   6.589   4.134  16.850 -0.3421  2.5195  2.6673
 7392TIP3    H243668   6.707   4.180  16.768 -1.0076 -1.3402 -0.8087
 7393TIP3   OH243669   5.636   6.109   4.849  0.3066  0.1612  0.1607
 7393TIP3    H143670   5.715   6.117   4.903  1.5064  1.7479 -1.6706
 7393TIP3    H243671   5.583   6.185   4.873 -1.4337 -1.6232  2.3825
 7394TIP3   OH243672   4.907   6.049   3.026  0.0110 -0.1471 -0.1120
 7394TIP3    H143673   4.952   6.122   3.069 -0.1778 -0.2385  0.2431
 7394TIP3    H243674   4.974   5.982   3.015 -0.4379 -1.0532  2.1637
 7395TIP3   OH243675   0.730   4.856  16.105 -0.1368 -0.4890  0.1118
 7395TIP3    H143676   0.759   4.886  16.019  1.5950  0.8007  1.0703
 7395TIP3    H243677   0.774   4.772  16.117  1.8769  0.5792  0.7706
 7396TIP3   OH243678   4.189   0.572  12.824 -0.1664 -0.2757 -0.6050
 7396TIP3    H143679   4.275   0.614  12.820  0.4086 -1.3238  0.1786
 7396TIP3    H243680   4.161   0.583  12.915  0.4586 -2.3766 -0.0874
 7397TIP3   OH243681   5.856   5.864   4.753  0.2249 -0.2311  0.1018
 7397TIP3    H143682   5.810   5.925   4.694  1.3446 -0.1268 -0.6835
 7397TIP3    H243683   5.834   5.777   4.719 -2.8800 -0.4832  2.2948
 7398TIP3   OH243684   6.135   6.272  12.946  0.2416  0.5375  0.0397
 7398TIP3    H143685   6.069   6.229  13.000  1.1004  0.7107  1.2824
 7398TIP3    H243686   6.087   6.339  12.897 -0.4888  0.7787  1.0513
 7399TIP3   OH243687   0.814   3.035  11.375 -0.5700 -0.2187  0.0081
 7399TIP3    H143688   0.790   2.943  11.377 -1.7057  0.0737  0.0312
 7399TIP3    H243689   0.783   3.066  11.290 -0.7028  0.2808  0.2343
 7400TIP3   OH243690   5.599   3.021  15.776 -0.1833 -0.2102  0.0082
 7400TIP3    H143691   5.550   3.063  15.705 -0.6021  0.2349  0.5471
 7400TIP3    H243692   5.601   3.087  15.846  4.0073  1.1500 -1.0866
 7401TIP3   OH243693   0.644   3.362   5.386 -0.0808  0.1307 -0.5604
 7401TIP3    H143694   0.602   3.447   5.400  1.2365  0.3928  2.8518
 7401TIP3    H243695   0.702   3.375   5.311  0.1929  2.2914 -0.0219
 7402TIP3   OH243696   6.332   3.752  16.070  0.3227  0.2461  0.3368
 7402TIP3    H143697   6.362   3.838  16.041 -1.3669  0.6534 -0.3340
 7402TIP3    H243698   6.245   3.768  16.107 -0.3584 -1.2694 -0.5160
 7403TIP3   OH243699   3.332   4.217  11.386 -0.2542  0.2553 -0.3081
 7403TIP3    H143700   3.303   4.234  11.296 -1.6785 -3.1603 -0.6670
 7403TIP3    H243701   3.283   4.139  11.412  0.5928  0.7631  3.2544
 7404TIP3   OH243702   4.533   4.826   5.241  0.0027  0.0835  0.4356
 7404TIP3    H143703   4.565   4.735   5.240 -0.6230 -0.1367 -0.2152
 7404TIP3    H243704   4.569   4.862   5.322 -0.5487 -1.0370  1.2146
 7405TIP3   OH243705   1.796   5.566  11.759 -0.2663 -0.0314  0.5807
 7405TIP3    H143706   1.770   5.653  11.789  3.2289  0.8589  1.4315
 7405TIP3    H243707   1.805   5.575  11.664  0.8857  0.8064  0.7548
 7406TIP3   OH243708   0.202   5.808   4.146  0.6763 -0.2216  0.3613
 7406TIP3    H143709   0.232   5.897   4.166  1.7233 -0.7897  1.4698
 7406TIP3    H243710   0.137   5.788   4.214 -0.2019 -0.0080 -0.3964
 7407TIP3   OH243711   1.514   5.404  12.546 -0.2908 -0.2913  0.1623
 7407TIP3    H143712   1.591   5.453  12.576  0.7612 -2.0177  0.4121
 7407TIP3    H243713   1.508   5.330  12.606 -2.6194  0.1826  0.5998
 7408TIP3   OH243714   3.753   2.839  15.929 -0.3833 -0.1919 -0.1143
 7408TIP3    H143715   3.822   2.883  15.880  0.0961 -1.2157 -0.3890
 7408TIP3    H243716   3.743   2.891  16.009  1.4930 -0.6139  0.4466
 7409TIP3   OH243717   4.803   6.319  16.689  0.4642  0.2363  0.5118
 7409TIP3    H143718   4.823   6.226  16.681  0.6929  0.2479  0.9181
 7409TIP3    H243719   4.717   6.321  16.730 -0.8627  0.1726 -2.0978
 7410TIP3   OH243720   6.820   5.518  16.171 -0.3000 -0.7834 -0.3534
 7410TIP3    H143721   6.862   5.435  16.196 -0.0294 -0.7140 -0.5677
 7410TIP3    H243722   6.894   5.578  16.158 -0.4924 -0.5308 -0.2739
 7411TIP3   OH243723   0.345   0.547  15.272 -1.0097 -0.1026 -0.2166
 7411TIP3    H143724   0.343   0.639  15.249  1.1904 -0.2150 -1.1015
 7411TIP3    H243725   0.305   0.543  15.359  0.3133  1.9349  0.5581
 7412TIP3   OH243726   4.245   0.330   1.686 -0.0389  0.1819  0.0098
 7412TIP3    H143727   4.222   0.345   1.777 -0.6478 -0.7567  0.0147
 7412TIP3    H243728   4.172   0.281   1.650 -0.1847  1.2493 -1.2105
 7413TIP3   OH243729   1.603   6.413  15.774 -0.0765  0.3103 -0.2407
 7413TIP3    H143730   1.616   6.505  15.753 -1.5387  0.5008 -0.4622
 7413TIP3    H243731   1.549   6.380  15.702  1.3476 -1.0189 -0.7530
 7414TIP3   OH243732   2.669   4.508   2.331 -0.0426  0.3377  0.0389
 7414TIP3    H143733   2.735   4.488   2.264 -1.2553 -1.3914 -0.7005
 7414TIP3    H243734   2.590   4.463   2.302 -2.2306  3.8347 -0.1280
 7415TIP3   OH243735   3.805   4.873  16.195 -0.1095  0.7506 -0.3603
 7415TIP3    H143736   3.744   4.912  16.258 -1.5589  2.2012 -2.5360
 7415TIP3    H243737   3.749   4.838  16.126  1.4153 -1.0957 -0.7345
 7416TIP3   OH243738   1.643   5.718   0.287 -0.1041  0.0714  0.1909
 7416TIP3    H143739   1.716   5.778   0.272  0.6659 -0.8468  0.1890
 7416TIP3    H243740   1.607   5.703   0.200  1.2716 -1.3919 -0.1721
 7417TIP3   OH243741   3.347   4.793  14.860  0.0079  0.6073  0.0276
 7417TIP3    H143742   3.326   4.768  14.770 -1.3023 -0.9130  0.7078
 7417TIP3    H243743   3.278   4.856  14.884 -0.2273  0.2527  0.2862
 7418TIP3   OH243744   0.743   5.477  14.958 -0.5065  0.3553 -0.0432
 7418TIP3    H143745   0.785   5.417  14.896 -1.4931  0.6646 -1.0411
 7418TIP3    H243746   0.663   5.504  14.914  0.4339  3.2916 -0.1402
 7419TIP3   OH243747   2.140   3.077   3.770  0.2871 -0.1789  0.1049
 7419TIP3    H143748   2.114   3.151   3.825  1.2375  0.0898  0.2030
 7419TIP3    H243749   2.135   3.001   3.829 -0.3587 -0.1554  0.0928
 7420TIP3   OH243750   5.624   1.131  13.208  0.1900 -0.0790  0.2838
 7420TIP3    H143751   5.661   1.062  13.264  0.2790 -0.1209  0.1726
 7420TIP3    H243752   5.607   1.088  13.125  0.6943  0.1489  0.0609
 7421TIP3   OH243753   6.726   0.534  13.539  0.0002 -0.1847 -0.3516
 7421TIP3    H143754   6.663   0.533  13.468  0.0090 -1.3348 -0.3639
 7421TIP3    H243755   6.709   0.454  13.588  0.6717  0.0775  0.3420
 7422TIP3   OH243756   1.588   2.868   2.407  0.1737  0.3676 -0.9023
 7422TIP3    H143757   1.541   2.790   2.436 -1.6014  0.8922 -2.1676
 7422TIP3    H243758   1.521   2.923   2.366  1.5650  2.0762 -1.0211
 7423TIP3   OH243759   2.168   4.992  15.795  0.3869  0.6160 -0.0018
 7423TIP3    H143760   2.238   4.989  15.860  1.2614 -1.3394 -0.9717
 7423TIP3    H243761   2.213   5.000  15.711 -0.6678  1.6612 -0.4976
 7424TIP3   OH243762   2.885   0.764   0.088  0.3965 -0.6960 -0.0492
 7424TIP3    H143763   2.793   0.736   0.081  0.4166 -0.4162 -2.1480
 7424TIP3    H243764   2.880   0.859   0.095  0.5131 -0.6672 -0.3315
 7425TIP3   OH243765   0.187   1.312  14.240  0.2801  0.1896 -0.1946
 7425TIP3    H143766   0.126   1.347  14.176 -1.5418 -0.6294  1.0152
 7425TIP3    H243767   0.207   1.224  14.208  1.2142  0.6038 -0.8092
 7426TIP3   OH243768   1.911   1.348   2.367  0.1626  0.2900 -0.4358
 7426TIP3    H143769   1.849   1.323   2.299  0.0325  0.4517 -0.3761
 7426TIP3    H243770   1.980   1.395   2.320 -0.6820  1.7300 -0.2562
 7427TIP3   OH243771   4.528   6.539   2.044 -0.0024 -0.5189  0.4094
 7427TIP3    H143772   4.576   6.533   1.962 -0.2671 -0.3332  0.2389
 7427TIP3    H243773   4.590   6.577   2.106 -0.2901  0.8521 -0.1139
 7428TIP3   OH243774   2.807   5.485  12.795  0.3625  0.0349  0.2234
 7428TIP3    H143775   2.799   5.575  12.826  1.0347 -0.5842  2.3533
 7428TIP3    H243776   2.839   5.493  12.705 -1.0070  1.9288 -0.1585
 7429TIP3   OH243777   0.798   3.251  16.955 -0.5091  0.0802  0.2675
 7429TIP3    H143778   0.829   3.253  16.865 -1.1271 -0.8197  0.0231
 7429TIP3    H243779   0.741   3.328  16.963  0.4465  0.8025  0.2388
 7430TIP3   OH243780   6.662   0.275  13.041  0.4532  0.1145 -0.3977
 7430TIP3    H143781   6.711   0.281  12.959 -0.6055 -1.9695 -1.2468
 7430TIP3    H243782   6.577   0.239  13.017  0.1975 -0.8138  1.6357
 7431TIP3   OH243783   0.294   3.003  16.299  0.3286 -0.0157 -0.0914
 7431TIP3    H143784   0.233   3.071  16.327  1.2031  0.5037  0.6295
 7431TIP3    H243785   0.359   3.049  16.246  0.0650 -0.5726 -0.9110
 7432TIP3   OH243786   1.091   5.473   5.338 -0.1674  0.2407  0.3686
 7432TIP3    H143787   1.127   5.475   5.427  0.1836 -1.3379  0.3056
 7432TIP3    H243788   0.997   5.482   5.349  0.0108  2.0426  0.7205
 7433TIP3   OH243789   4.750   5.330  16.905 -0.1110 -0.1846 -0.1024
 7433TIP3    H143790   4.833   5.328  16.856  0.1324  1.5163  0.1928
 7433TIP3    H243791   4.693   5.270  16.857  1.3383 -1.5937 -0.1765
 7434TIP3   OH243792   2.328   6.335  15.646 -0.8361 -0.5533  0.0656
 7434TIP3    H143793   2.308   6.263  15.586  1.0156 -0.7958 -0.3424
 7434TIP3    H243794   2.349   6.292  15.729  0.3764 -0.5229 -0.2082
 7435TIP3   OH243795   3.973   3.023  16.362  0.1141 -0.3223  0.3082
 7435TIP3    H143796   4.008   2.959  16.425 -0.6458  0.3647  1.4699
 7435TIP3    H243797   4.050   3.058  16.318  0.6919 -0.6674  1.0144
 7436TIP3   OH243798   3.966   6.137  17.036 -0.1851  0.1322 -0.1143
 7436TIP3    H143799   3.911   6.079  17.089 -1.2800  1.7906  0.6378
 7436TIP3    H243800   3.917   6.149  16.954 -0.6243  1.0134  0.2595
 7437TIP3   OH243801   3.227   5.974   1.857  0.8222 -0.4527  0.1792
 7437TIP3    H143802   3.140   5.973   1.816 -0.1634 -1.4056  2.1564
 7437TIP3    H243803   3.258   5.884   1.851  0.5970 -0.6432  1.5781
 7438TIP3   OH243804   6.745   4.348   4.189  0.1279  0.2818 -0.1670
 7438TIP3    H143805   6.762   4.442   4.188  0.2859  0.3092 -2.9994
 7438TIP3    H243806   6.651   4.341   4.208  0.2388  0.9530  0.6833
 7439TIP3   OH243807   2.146   0.349   3.618  0.2433  0.3287  0.2045
 7439TIP3    H143808   2.192   0.339   3.535  0.6530  3.2753 -0.0416
 7439TIP3    H243809   2.056   0.322   3.600  0.5793 -0.0972 -0.8883
 7440TIP3   OH243810   1.523   6.256   1.430 -0.2017 -0.1403  0.1445
 7440TIP3    H143811   1.568   6.250   1.346 -0.6790 -0.1333 -0.1175
 7440TIP3    H243812   1.585   6.300   1.488  0.4545 -0.9113  0.0271
 7441TIP3   OH243813   3.028   2.112   0.760  0.3645  0.0068  0.1248
 7441TIP3    H143814   3.107   2.126   0.813  0.7416 -0.4517 -0.3230
 7441TIP3    H243815   3.053   2.050   0.693 -0.1792  0.4240 -0.4789
 7442TIP3   OH243816   2.400   0.529   3.384 -0.1096 -0.2258  0.7126
 7442TIP3    H143817   2.494   0.521   3.368 -0.5545 -2.6890 -1.3860
 7442TIP3    H243818   2.375   0.612   3.344  0.8695 -0.5442 -0.6069
 7443TIP3   OH243819   0.377   0.902  11.721 -0.8474 -0.4973  0.1984
 7443TIP3    H143820   0.355   0.882  11.630 -0.4429  0.3572 -0.1025
 7443TIP3    H243821   0.410   0.992  11.718 -0.0698 -0.7426  1.0659
 7444TIP3   OH243822   2.724   3.192   4.606 -0.2160  0.0693 -0.4495
 7444TIP3    H143823   2.711   3.279   4.643  1.5833 -0.4844  1.7054
 7444TIP3    H243824   2.638   3.167   4.574 -1.5812  1.3196  1.9237
 7445TIP3   OH243825   6.014   5.108   3.887 -0.4142  0.0677 -0.3802
 7445TIP3    H143826   6.004   5.150   3.973 -2.2165  0.5006 -0.7681
 7445TIP3    H243827   6.066   5.030   3.905  2.0184  1.7836  0.5560
 7446TIP3   OH243828   6.441   6.190   5.548  0.0951  0.1519 -0.1034
 7446TIP3    H143829   6.358   6.180   5.595 -0.4681  2.3693 -0.5365
 7446TIP3    H243830   6.450   6.284   5.535  1.0107 -0.2531 -3.0270
 7447TIP3   OH243831   2.265   4.024   0.863 -0.0705  0.6393  0.0329
 7447TIP3    H143832   2.283   3.976   0.782  0.1688  1.8620 -0.6676
 7447TIP3    H243833   2.314   3.976   0.930 -0.3347 -0.4438 -0.5134
 7448TIP3   OH243834   0.298   0.636   0.259 -0.3232  0.2210  0.3726
 7448TIP3    H143835   0.319   0.553   0.218 -1.3320  0.6951 -1.1762
 7448TIP3    H243836   0.378   0.688   0.251 -0.4330  0.2253 -0.8419
 7449TIP3   OH243837   0.119   1.111  13.241 -0.4273 -0.3806 -0.5417
 7449TIP3    H143838   0.100   1.183  13.181 -0.1289 -0.1285 -0.3382
 7449TIP3    H243839   0.206   1.080  13.213  0.1801  0.4149  0.4096
 7450TIP3   OH243840   1.651   4.840   5.076 -0.3705  0.1625  0.2802
 7450TIP3    H143841   1.609   4.926   5.074 -0.1332  0.2699 -0.6084
 7450TIP3    H243842   1.671   4.821   4.984  0.1296 -0.5735  0.5311
 7451TIP3   OH243843   3.278   2.942   2.643  0.1068 -0.2095  0.3112
 7451TIP3    H143844   3.212   2.958   2.710  1.7426 -0.0949  2.0065
 7451TIP3    H243845   3.230   2.905   2.569 -2.3966  3.1141  0.0096
 7452TIP3   OH243846   1.717   0.009   0.584  0.2924 -0.0877  0.1796
 7452TIP3    H143847   1.793   0.015   0.526 -0.1373  2.0730 -0.2394
 7452TIP3    H243848   1.692   0.099   0.600 -1.2303 -0.7169  1.6152
 7453TIP3   OH243849   4.883   2.071   3.313 -0.0359 -0.1186  0.4494
 7453TIP3    H143850   4.822   2.129   3.267  0.4276 -0.2261 -0.3182
 7453TIP3    H243851   4.938   2.034   3.244 -0.3661 -1.5322  0.9075
 7454TIP3   OH243852   5.309   5.801   3.563 -0.3154  0.0986  0.0280
 7454TIP3    H143853   5.327   5.865   3.632 -0.8239  1.2672 -0.8973
 7454TIP3    H243854   5.380   5.813   3.500 -0.1500 -0.5936  0.0742
 7455TIP3   OH243855   4.963   3.341  16.256  0.3401 -0.5713  0.0459
 7455TIP3    H143856   4.878   3.296  16.251  0.1001 -0.3354  1.4441
 7455TIP3    H243857   4.955   3.414  16.195 -0.1860 -0.9853 -0.3945
 7456TIP3   OH243858   5.540   3.133  13.704  0.0274 -0.3511 -0.5727
 7456TIP3    H143859   5.610   3.198  13.715 -1.6512  1.8719 -2.2258
 7456TIP3    H243860   5.477   3.154  13.773 -0.6839  0.0467 -1.3255
 7457TIP3   OH243861   0.060   5.995   3.532 -0.1194  0.5421  0.3735
 7457TIP3    H143862   0.134   5.936   3.515 -1.2005 -1.3332  1.6919
 7457TIP3    H243863  -0.017   5.946   3.502 -1.0678  1.2893  1.4855
 7458TIP3   OH243864   0.795   0.091   0.031 -0.2081 -0.2535  0.1554
 7458TIP3    H143865   0.702   0.103   0.011 -0.0547 -0.6227 -0.8676
 7458TIP3    H243866   0.808   0.134   0.115 -1.4384 -0.7490  0.6155
 7459TIP3   OH243867   0.981   4.374   1.552  0.1837  0.5985 -0.1587
 7459TIP3    H143868   0.892   4.400   1.527  0.0653 -0.4074 -0.8198
 7459TIP3    H243869   1.022   4.455   1.583 -1.2843  0.8930  1.1288
 7460TIP3   OH243870   5.966   0.491   4.978 -0.5537  0.2337  0.3739
 7460TIP3    H143871   6.028   0.474   5.049 -0.1991 -1.5873 -0.3251
 7460TIP3    H243872   6.020   0.526   4.907 -0.9739  2.4896  1.0971
 7461TIP3   OH243873   5.890   3.188   5.284  0.0658 -0.3295 -0.0093
 7461TIP3    H143874   5.827   3.260   5.279  0.4784 -0.0578 -2.1250
 7461TIP3    H243875   5.955   3.217   5.348 -0.0953  0.9327 -0.3836
 7462TIP3   OH243876   2.880   4.618   4.298  0.1614  0.1800 -0.5857
 7462TIP3    H143877   2.903   4.676   4.371 -1.3767  0.3624 -0.2061
 7462TIP3    H243878   2.785   4.609   4.305  0.2675 -1.6568 -1.1938
 7463TIP3   OH243879   2.296   4.370  15.311  0.4821  0.0324  0.3625
 7463TIP3    H143880   2.362   4.382  15.379  0.5339 -0.5042  0.4144
 7463TIP3    H243881   2.245   4.295  15.341 -0.9588  1.2207  0.9473
 7464TIP3   OH243882   4.023   5.944  16.359 -0.0270 -0.6648 -0.2895
 7464TIP3    H143883   4.073   5.924  16.438  2.4366 -1.4222 -1.9119
 7464TIP3    H243884   4.020   5.861  16.311 -2.0053 -0.3711 -0.7397
 7465TIP3   OH243885   0.731   3.015   0.329 -0.1920  0.1611 -0.4598
 7465TIP3    H143886   0.733   2.979   0.240 -2.3184  0.4719 -0.6866
 7465TIP3    H243887   0.638   3.034   0.345  0.0233 -0.5820  2.1191
 7466TIP3   OH243888   5.965   3.212  10.814 -0.0095 -0.2730  0.0187
 7466TIP3    H143889   6.055   3.203  10.781 -0.1373 -0.3354 -0.3181
 7466TIP3    H243890   5.916   3.146  10.766 -0.2588 -0.1668  0.1283
 7467TIP3   OH243891   4.031   5.368   0.287  0.2474 -0.4760 -0.0153
 7467TIP3    H143892   3.957   5.422   0.315  0.1160 -1.7264  2.3300
 7467TIP3    H243893   4.100   5.389   0.350  1.1350 -0.9985 -0.7845
 7468TIP3   OH243894   0.242   5.378  12.908 -0.2734  0.5255  0.3002
 7468TIP3    H143895   0.257   5.321  12.983 -0.5290  1.3398  0.9923
 7468TIP3    H243896   0.160   5.347  12.870  0.3474 -0.5018 -0.2318
 7469TIP3   OH243897   2.276   1.373  12.517 -0.1490  0.6946 -0.2279
 7469TIP3    H143898   2.240   1.454  12.553 -0.5278  0.2373  0.4331
 7469TIP3    H243899   2.369   1.394  12.501 -0.1208  1.0986  0.4173
 7470TIP3   OH243900   1.811   0.528   3.336  0.4476  0.6506  0.9353
 7470TIP3    H143901   1.763   0.557   3.414 -0.6959 -0.5665  0.7231
 7470TIP3    H243902   1.779   0.585   3.266 -1.3296 -0.6341  0.6417
 7471TIP3   OH243903   4.385   4.100   3.444 -0.1295 -0.1970  0.9560
 7471TIP3    H143904   4.388   4.004   3.449  3.1357 -0.2348  0.8198
 7471TIP3    H243905   4.460   4.128   3.497 -0.9705  2.3173  0.9274
 7472TIP3   OH243906   6.222   0.457  14.630  0.3239  0.3597 -0.2447
 7472TIP3    H143907   6.291   0.507  14.586  2.7887 -0.3671  2.4534
 7472TIP3    H243908   6.232   0.368  14.597 -1.3031  0.7511 -1.9455
 7473TIP3   OH243909   3.776   1.731  11.432 -0.6778 -0.1708  0.1096
 7473TIP3    H143910   3.727   1.648  11.427 -0.3662 -0.5040  2.0413
 7473TIP3    H243911   3.710   1.796  11.458 -0.9926  0.3141 -1.7156
 7474TIP3   OH243912   1.959   6.448  14.905  0.1452 -0.2785 -0.3448
 7474TIP3    H143913   1.977   6.536  14.871  0.5917 -0.1424  0.2175
 7474TIP3    H243914   1.889   6.414  14.849 -1.2503  1.0953  0.4769
 7475TIP3   OH243915   1.409   6.028   6.645  0.5301 -0.3750  0.5759
 7475TIP3    H143916   1.322   6.007   6.679  1.9619 -1.7151  3.8530
 7475TIP3    H243917   1.425   6.118   6.674  0.1176  0.0166 -0.3801
 7476TIP3   OH243918   5.430   0.876   0.548 -0.4156  0.0342  0.1663
 7476TIP3    H143919   5.500   0.928   0.507 -0.1789 -0.9003 -0.6483
 7476TIP3    H243920   5.471   0.791   0.565 -1.6405 -0.8987 -1.3347
 7477TIP3   OH243921   2.674   2.364   1.240  0.3247  0.1451 -0.0251
 7477TIP3    H143922   2.765   2.373   1.213  0.2601 -0.9104 -0.6300
 7477TIP3    H243923   2.655   2.446   1.286  0.9347  1.3122 -1.7433
 7478TIP3   OH243924   1.503   6.800   3.613  0.1481 -0.6423  0.2173
 7478TIP3    H143925   1.461   6.732   3.560 -1.0010 -0.3999  0.7726
 7478TIP3    H243926   1.538   6.861   3.549  0.2072 -1.1849 -0.2799
 7479TIP3   OH243927   4.743   2.657  11.335 -0.0811 -0.1601  0.4066
 7479TIP3    H143928   4.650   2.672  11.352  0.1195 -0.0703  1.5107
 7479TIP3    H243929   4.760   2.569  11.367  0.0517 -0.4892 -0.5373
 7480TIP3   OH243930   1.951   2.663   2.381  0.3737 -0.4601  0.4211
 7480TIP3    H143931   2.003   2.741   2.361 -0.4285  0.3675  1.4261
 7480TIP3    H243932   1.925   2.674   2.472  0.1682 -1.8746  0.5593
 7481TIP3   OH243933   3.552   4.270  15.533  0.1911  0.3435 -0.4997
 7481TIP3    H143934   3.479   4.330  15.522 -2.8790 -2.8276  0.5065
 7481TIP3    H243935   3.566   4.266  15.628 -0.1214 -0.9458 -0.4863
 7482TIP3   OH243936   0.715   5.000  14.756  0.3819  0.0927 -0.5996
 7482TIP3    H143937   0.718   4.971  14.665  0.0662 -1.3295 -0.1753
 7482TIP3    H243938   0.675   5.087  14.752  0.2480 -0.0103 -1.7992
 7483TIP3   OH243939   6.424   2.352   3.242  0.0905 -0.1837  0.1980
 7483TIP3    H143940   6.486   2.282   3.261 -0.3499 -0.4317  0.7498
 7483TIP3    H243941   6.365   2.315   3.178  0.7711  0.2045 -0.6753
 7484TIP3   OH243942   5.496   6.562  11.278 -0.1636  0.0306 -0.1582
 7484TIP3    H143943   5.588   6.590  11.274  0.0325 -0.5851 -0.0076
 7484TIP3    H243944   5.469   6.556  11.187  0.0394 -0.0928 -0.2105
 7485TIP3   OH243945   3.793   5.430   1.212  0.3995 -0.0544  1.2190
 7485TIP3    H143946   3.843   5.396   1.137 -1.1525  0.0806  0.0878
 7485TIP3    H243947   3.855   5.487   1.257  1.4598 -0.3333  0.1832
 7486TIP3   OH243948   1.961   5.427   1.164  0.0720 -0.1706 -0.2464
 7486TIP3    H143949   1.911   5.497   1.123  0.1457 -0.2937 -0.5435
 7486TIP3    H243950   2.019   5.473   1.226 -0.2278 -0.0107 -0.0817
 7487TIP3   OH243951   4.499   6.368  15.503  0.0021 -0.1285  0.2657
 7487TIP3    H143952   4.593   6.384  15.509  0.3051 -1.4526 -0.5364
 7487TIP3    H243953   4.459   6.455  15.509  1.4186  0.8177 -2.4622
 7488TIP3   OH243954   1.591   2.477   0.194 -0.0351 -0.1722  0.3336
 7488TIP3    H143955   1.587   2.532   0.272  1.1752 -0.6751  0.7729
 7488TIP3    H243956   1.557   2.392   0.222 -1.4656  0.1922 -0.2230
 7489TIP3   OH243957   2.747   6.421   5.606 -0.5198 -0.6377  0.1999
 7489TIP3    H143958   2.781   6.495   5.656  1.2135  0.0638 -1.8647
 7489TIP3    H243959   2.776   6.344   5.655  1.1789  0.0150  0.2923
 7490TIP3   OH243960   0.743   4.881   3.386 -0.6611  0.0550  0.2483
 7490TIP3    H143961   0.650   4.875   3.363 -0.6324 -0.9601  0.3833
 7490TIP3    H243962   0.789   4.863   3.304 -0.5715  0.4764  0.2002
 7491TIP3   OH243963   1.332   5.277  11.677  0.3529  0.4321  0.0092
 7491TIP3    H143964   1.400   5.335  11.645  0.4283  0.7458  0.7114
 7491TIP3    H243965   1.361   5.189  11.653  0.6169  0.6242 -0.3778
 7492TIP3   OH243966   2.586   0.354   2.632 -0.3792  0.5666  0.6606
 7492TIP3    H143967   2.645   0.312   2.694 -0.4353  0.2347  0.4922
 7492TIP3    H243968   2.499   0.322   2.656 -0.3254 -0.1391 -0.0358
 7493TIP3   OH243969   1.122   2.699  13.234  0.4772 -0.3492  0.0110
 7493TIP3    H143970   1.076   2.635  13.181 -1.3657  1.1089 -0.2506
 7493TIP3    H243971   1.125   2.660  13.322 -1.6610 -0.3207  0.1269
 7494TIP3   OH243972   5.067   4.573  12.979  1.1586  0.2648 -0.1891
 7494TIP3    H143973   5.081   4.585  13.073  0.9248  2.7970 -0.4027
 7494TIP3    H243974   5.036   4.658  12.949  1.5780 -0.3823 -2.6376
 7495TIP3   OH243975   6.188   6.739   0.340  0.4136 -0.4967  0.2011
 7495TIP3    H143976   6.276   6.725   0.374  0.7896 -0.1096 -0.5880
 7495TIP3    H243977   6.130   6.727   0.416  1.1421 -0.7295  0.7256
 7496TIP3   OH243978   1.124   4.071   2.494  0.3640  0.2469 -0.7116
 7496TIP3    H143979   1.177   4.066   2.573 -0.5960 -0.6197 -0.1093
 7496TIP3    H243980   1.034   4.067   2.524 -0.0693  1.3588 -1.7512
 7497TIP3   OH243981   1.002   1.143   2.055 -0.2660  0.3879 -0.2794
 7497TIP3    H143982   1.022   1.079   1.987  2.1467  0.4288  0.2991
 7497TIP3    H243983   0.943   1.098   2.114 -0.3811 -0.5226 -1.0685
 7498TIP3   OH243984   4.480   0.870  12.134  0.2337  0.0054  0.0129
 7498TIP3    H143985   4.562   0.838  12.173  0.3982  0.1089 -0.2436
 7498TIP3    H243986   4.418   0.872  12.207  0.2431 -0.8215  0.0584
 7499TIP3   OH243987   5.681   0.160  16.463  0.4036 -0.3380 -0.1316
 7499TIP3    H143988   5.721   0.244  16.485 -1.3102  0.5656 -0.3049
 7499TIP3    H243989   5.743   0.119  16.404  1.2946  0.7933 -0.0239
 7500TIP3   OH243990   2.137   3.710  12.405  0.2477  0.2317  0.3584
 7500TIP3    H143991   2.053   3.680  12.369  0.4381  0.3652 -0.1996
 7500TIP3    H243992   2.119   3.799  12.436 -0.5460 -0.6837  2.7911
 7501TIP3   OH243993   5.067   6.458   4.037  0.3807  0.3334  0.4246
 7501TIP3    H143994   5.105   6.478   3.952 -0.5487 -2.0075 -0.6471
 7501TIP3    H243995   5.129   6.398   4.078  0.5939  1.0805  1.2393
 7502TIP3   OH243996   4.521   0.960  11.875  0.0683 -0.0574  0.0436
 7502TIP3    H143997   4.488   0.936  11.961  1.1446  0.8835  0.7444
 7502TIP3    H243998   4.575   0.886  11.848  0.6911  0.1454  0.7161
 7503TIP3   OH243999   4.744   5.691   3.499  0.2993  0.5524 -0.0701
 7503TIP3    H144000   4.738   5.717   3.407  0.0386  1.6885  0.2511
 7503TIP3    H244001   4.835   5.709   3.523  0.1189  1.2204  0.1520
 7504TIP3   OH244002   0.279   4.207   1.885 -0.5589 -0.8581 -0.6550
 7504TIP3    H144003   0.273   4.284   1.829 -0.7855 -0.3377  0.0747
 7504TIP3    H244004   0.368   4.174   1.872 -0.6927 -0.8941 -1.5109
 7505TIP3   OH244005   2.863   5.129  14.711 -0.0450  0.1299 -0.0203
 7505TIP3    H144006   2.818   5.172  14.782 -0.2226 -0.1058  0.0108
 7505TIP3    H244007   2.940   5.184  14.694  1.6729 -1.3281  2.3337
 7506TIP3   OH244008   6.105   1.488  12.544  0.0194 -0.3454 -0.5105
 7506TIP3    H144009   6.177   1.424  12.540  0.0737 -0.2616 -0.8966
 7506TIP3    H244010   6.126   1.543  12.619 -0.7838 -1.6812  0.7401
 7507TIP3   OH244011   5.921   5.151   2.619  0.5081  0.3185  0.3328
 7507TIP3    H144012   5.905   5.217   2.687  0.5336  0.1827  0.4706
 7507TIP3    H244013   5.940   5.202   2.540 -0.6735  0.4979  0.1378
 7508TIP3   OH244014   3.186   5.923  17.107 -0.4072  0.1516  0.0457
 7508TIP3    H144015   3.139   5.919  17.024  0.8515 -0.2136 -0.6844
 7508TIP3    H244016   3.140   5.862  17.164 -3.1000  2.5108  0.6495
 7509TIP3   OH244017   1.579   1.920   2.802  0.2565  1.0806  0.5081
 7509TIP3    H144018   1.588   1.938   2.895  0.2734  1.6833  0.3962
 7509TIP3    H244019   1.538   1.999   2.766 -0.5465  0.5146  0.1395
 7510TIP3   OH244020   4.864   5.523  12.656  0.4657 -0.0380 -0.2504
 7510TIP3    H144021   4.775   5.492  12.641  0.5043  0.5210 -1.7106
 7510TIP3    H244022   4.892   5.477  12.736 -1.1555 -0.1233  0.2997
 7511TIP3   OH244023   5.763   3.835   1.924  0.0105  0.2667  0.1624
 7511TIP3    H144024   5.803   3.871   1.845  0.8635  1.9786  1.3051
 7511TIP3    H244025   5.834   3.830   1.987 -0.8626 -0.0795  1.1616
 7512TIP3   OH244026   4.847   2.755   3.274  0.4725  0.7920  0.2477
 7512TIP3    H144027   4.924   2.699   3.275  1.2908  1.8130  2.9852
 7512TIP3    H244028   4.782   2.708   3.326  1.1632  2.2590  2.5652
 7513TIP3   OH244029   5.446   3.809  14.064 -0.1394 -0.0345 -0.0111
 7513TIP3    H144030   5.357   3.796  14.096  0.4094 -1.2091  1.1143
 7513TIP3    H244031   5.492   3.728  14.087  0.8784 -0.0257 -1.8047
 7514TIP3   OH244032   6.508   5.281   4.542 -0.0719 -0.2362  0.0025
 7514TIP3    H144033   6.444   5.278   4.613 -0.5337  0.6407 -0.3598
 7514TIP3    H244034   6.573   5.344   4.571  0.0855 -0.3607 -0.0775
 7515TIP3   OH244035   2.032   0.955  12.435 -0.1909  0.0932  0.6820
 7515TIP3    H144036   2.041   1.033  12.488  0.2570  0.7612 -0.3304
 7515TIP3    H244037   2.089   0.891  12.476 -0.7945  0.1908  1.6927
 7516TIP3   OH244038   0.972   3.999   3.421  0.0790 -0.3236 -0.5317
 7516TIP3    H144039   0.891   4.045   3.399  0.1284  0.7231  1.3271
 7516TIP3    H244040   1.037   4.037   3.362 -0.4448  0.0209 -0.9044
 7517TIP3   OH244041   2.419   0.898  16.590  0.0137 -0.0168  0.1471
 7517TIP3    H144042   2.340   0.947  16.568  0.8331  0.9645 -0.7529
 7517TIP3    H244043   2.490   0.962  16.583  0.7961 -0.6249  1.9185
 7518TIP3   OH244044   4.011   6.807   1.279 -0.4265 -0.6687  0.4413
 7518TIP3    H144045   4.105   6.788   1.273 -0.4618 -0.7753  0.2166
 7518TIP3    H244046   4.002   6.894   1.239 -0.2979 -0.2629  1.2699
 7519TIP3   OH244047   6.311   5.669  12.773 -0.0017  0.0586  0.6091
 7519TIP3    H144048   6.365   5.747  12.783 -1.1413  0.9096  0.2170
 7519TIP3    H244049   6.300   5.636  12.863 -1.6494  1.8391  1.1322
 7520TIP3   OH244050   6.326   5.708   5.438 -0.2891  0.3337  0.7206
 7520TIP3    H144051   6.235   5.725   5.462 -0.3308 -0.0178  0.8032
 7520TIP3    H244052   6.350   5.628   5.485 -0.6323 -0.8425 -1.0153
 7521TIP3   OH244053   0.993   0.043   4.599 -0.0217  0.3167  0.0759
 7521TIP3    H144054   0.926   0.041   4.530 -1.2098 -1.9698  1.1525
 7521TIP3    H244055   1.071   0.077   4.556 -0.8997 -0.3355 -2.1987
 7522TIP3   OH244056   1.330   0.507   5.095  0.0575  0.2984 -0.2734
 7522TIP3    H144057   1.406   0.564   5.108 -0.4696  1.0721 -0.5306
 7522TIP3    H244058   1.257   0.567   5.083 -0.4995 -0.4372 -0.6135
 7523TIP3   OH244059   5.777   3.366   3.804  0.0834 -0.0693 -0.0899
 7523TIP3    H144060   5.803   3.452   3.769  1.2603 -0.0373  0.7899
 7523TIP3    H244061   5.682   3.367   3.802  0.0233  1.7834  1.0563
 7524TIP3   OH244062   5.302   0.022   3.209 -0.2175  0.4812 -0.1096
 7524TIP3    H144063   5.344   0.108   3.203 -1.7456  1.1853 -1.2870
 7524TIP3    H244064   5.372  -0.039   3.187  0.4223  1.5601 -1.2056
 7525TIP3   OH244065   0.607   3.830   1.490  0.5941 -0.7024  0.4051
 7525TIP3    H144066   0.560   3.897   1.539  1.7514 -0.1133  0.7390
 7525TIP3    H244067   0.562   3.827   1.405 -0.3128 -0.4861  0.8601
 7526TIP3   OH244068   4.892   1.554  12.421 -0.3511 -0.4880 -0.2061
 7526TIP3    H144069   4.896   1.460  12.407  0.2216 -0.2716 -1.6354
 7526TIP3    H244070   4.918   1.566  12.513 -1.4182 -1.7776  0.2925
 7527TIP3   OH244071   3.317   0.001   3.231 -0.5378  0.8031  0.4504
 7527TIP3    H144072   3.394  -0.053   3.214 -2.2744 -1.4358 -0.8683
 7527TIP3    H244073   3.279  -0.035   3.311 -1.0983  0.7911  0.1838
 7528TIP3   OH244074   5.214   0.805   2.752  0.2250  0.2180 -0.3377
 7528TIP3    H144075   5.288   0.851   2.792  0.4118 -2.4404  2.7368
 7528TIP3    H244076   5.252   0.728   2.711 -0.4179  1.1737 -2.9392
 7529TIP3   OH244077   4.329   6.339   3.180  0.1860  0.2445  0.0118
 7529TIP3    H144078   4.380   6.263   3.208 -0.8137  0.3258  2.1850
 7529TIP3    H244079   4.274   6.305   3.109  1.0292 -0.5889 -0.2745
 7530TIP3   OH244080   6.052   1.103  12.468 -0.1874 -0.2298 -0.0754
 7530TIP3    H144081   6.035   1.178  12.411 -1.9515 -0.2605  0.3351
 7530TIP3    H244082   6.055   1.028  12.409 -1.0243 -0.1357 -0.2543
 7531TIP3   OH244083   1.057   2.201  15.830 -0.4470 -0.5001 -0.1736
 7531TIP3    H144084   1.077   2.177  15.740 -1.5882 -1.7992 -0.1097
 7531TIP3    H244085   1.014   2.286  15.823  1.3626  0.4436 -0.6294
 7532TIP3   OH244086   6.710   5.814   5.368  0.8198 -0.5024 -0.0077
 7532TIP3    H144087   6.670   5.727   5.372 -0.9232  0.3042  2.1300
 7532TIP3    H244088   6.692   5.844   5.279 -0.5879 -1.4501 -0.0770
 7533TIP3   OH244089   2.722   3.023   6.579 -0.5818  0.1488  0.7006
 7533TIP3    H144090   2.740   2.944   6.528  0.5325  0.7148  0.1843
 7533TIP3    H244091   2.793   3.027   6.643 -1.1482  0.2454  1.3370
 7534TIP3   OH244092   2.644   6.042  15.967  0.3398  0.4421  0.0329
 7534TIP3    H144093   2.637   6.126  16.013  1.5646  0.6262 -0.0846
 7534TIP3    H244094   2.695   6.062  15.889 -0.5181 -0.1539 -0.6994
 7535TIP3   OH244095   0.464   6.350  16.780  0.2148 -0.1574  0.3191
 7535TIP3    H144096   0.408   6.284  16.821 -3.3517  1.4737 -1.4541
 7535TIP3    H244097   0.504   6.305  16.706 -2.9494 -0.3003 -1.4744
 7536TIP3   OH244098   2.237   0.235  13.295  0.3114 -0.6420 -0.3679
 7536TIP3    H144099   2.301   0.164  13.306 -0.9104 -1.9707 -1.3548
 7536TIP3    H244100   2.225   0.270  13.384  0.0664 -2.5135  0.3949
 7537TIP3   OH244101   2.883   0.541   0.526  0.3248  0.1019 -0.3676
 7537TIP3    H144102   2.823   0.546   0.600  0.2554 -0.2612 -0.3990
 7537TIP3    H244103   2.836   0.491   0.460  1.2334 -1.5123  0.1641
 7538TIP3   OH244104   5.711   1.982   1.208  0.0604  0.2774  0.3408
 7538TIP3    H144105   5.790   1.930   1.191  0.3415  0.6795  0.4079
 7538TIP3    H244106   5.712   1.997   1.303 -1.8668 -2.5473  0.9302
 7539TIP3   OH244107   3.982   6.634   0.928 -0.2915  0.1416 -0.4601
 7539TIP3    H144108   3.916   6.594   0.871 -0.1167 -0.0275 -0.5437
 7539TIP3    H244109   3.972   6.728   0.914 -2.3965  0.3067  1.5777
 7540TIP3   OH244110   4.735   5.453  13.573 -0.2140  0.0509  0.1906
 7540TIP3    H144111   4.799   5.488  13.511 -0.2657 -0.4102 -0.1292
 7540TIP3    H244112   4.741   5.358  13.562  0.5596 -0.0955  1.6816
 7541TIP3   OH244113   3.102   3.669   5.339  0.2203 -0.1966 -0.1120
 7541TIP3    H144114   3.072   3.588   5.379 -1.7755  1.2025  1.4146
 7541TIP3    H244115   3.164   3.705   5.403 -0.0802  0.2077 -0.0431
 7542TIP3   OH244116   2.487   2.958   4.775  0.3296 -0.1230 -0.0737
 7542TIP3    H144117   2.459   2.867   4.785 -0.3883  0.1782  0.8262
 7542TIP3    H244118   2.507   2.988   4.864  3.6873 -0.3161 -0.6603
 7543TIP3   OH244119   6.634   0.474  10.704 -0.1908  0.3078 -0.1872
 7543TIP3    H144120   6.609   0.417  10.631 -1.0897  0.2575  0.1397
 7543TIP3    H244121   6.552   0.487  10.752  0.6573 -0.8651  1.6696
 7544TIP3   OH244122   3.156   1.270  16.995 -0.4813  0.4531  0.4350
 7544TIP3    H144123   3.138   1.294  16.904  0.7329  2.7630  0.7272
 7544TIP3    H244124   3.111   1.338  17.046 -0.3788 -0.2900  1.5360
 7545TIP3   OH244125   3.471   1.386  11.093  0.7800  0.7158  0.3278
 7545TIP3    H144126   3.482   1.340  11.009  3.0100  0.9197  0.4568
 7545TIP3    H244127   3.378   1.379  11.111  0.5814 -1.2549 -1.0899
 7546TIP3   OH244128   0.088   2.560   2.040  0.5947 -0.1824  0.2267
 7546TIP3    H144129   0.032   2.484   2.055  0.8472 -0.4269 -0.0642
 7546TIP3    H244130   0.175   2.531   2.065  0.5719  0.2507  0.8424
 7547TIP3   OH244131   6.821   6.639  17.120 -0.1392 -0.0281  0.2061
 7547TIP3    H144132   6.803   6.732  17.115 -0.9482  0.0768  3.1569
 7547TIP3    H244133   6.763   6.599  17.055 -0.7453  1.4090 -0.1695
 7548TIP3   OH244134   5.591   6.791  14.457 -0.4078 -0.1261  0.2311
 7548TIP3    H144135   5.607   6.819  14.367 -1.0577  3.0862  0.9880
 7548TIP3    H244136   5.670   6.742  14.482  0.8547  1.0214 -1.3107
 7549TIP3   OH244137   4.955   6.747   2.701 -0.3331 -0.3413  0.1411
 7549TIP3    H144138   5.043   6.786   2.699  0.3829 -1.8846 -0.6993
 7549TIP3    H244139   4.908   6.798   2.767  1.5614 -0.2144  1.5016
 7550TIP3   OH244140   4.793   5.407   0.494 -0.5102  0.2486 -0.5401
 7550TIP3    H144141   4.858   5.419   0.563  1.3307  0.1728 -2.1727
 7550TIP3    H244142   4.715   5.374   0.539  0.1753  1.4091  1.6417
 7551TIP3   OH244143   6.173   4.694  12.547 -0.3992  0.2492 -0.1016
 7551TIP3    H144144   6.250   4.751  12.546  0.4685 -0.8511  1.1150
 7551TIP3    H244145   6.209   4.605  12.541 -1.6465 -0.2412 -0.6603
 7552TIP3   OH244146   4.789   0.445   4.092 -0.4694  0.1220 -0.5244
 7552TIP3    H144147   4.729   0.520   4.094 -0.6258  0.0180 -1.2428
 7552TIP3    H244148   4.859   0.469   4.152 -0.9318  0.4973 -0.1245
 7553TIP3   OH244149   2.439   2.714  14.440 -0.3354 -0.1581 -0.1807
 7553TIP3    H144150   2.354   2.759  14.432 -0.5526 -0.7983 -2.1933
 7553TIP3    H244151   2.499   2.782  14.469 -1.3593  0.5142  0.4595
 7554TIP3   OH244152   2.963   0.949  12.335 -0.3261 -0.1696 -0.1915
 7554TIP3    H144153   2.928   1.019  12.280  1.2153 -0.3828 -1.5086
 7554TIP3    H244154   3.036   0.913  12.285  1.7951  0.2405  2.3909
 7555TIP3   OH244155   0.764   3.803   1.916 -0.0092  0.3499  0.0073
 7555TIP3    H144156   0.774   3.767   2.004  0.2539  2.8696  1.1014
 7555TIP3    H244157   0.847   3.783   1.872 -0.3647 -1.4524  0.0603
 7556TIP3   OH244158   0.665   6.108   4.334 -0.1061  0.0871  0.0558
 7556TIP3    H144159   0.727   6.170   4.374  1.8574 -1.8255  0.1493
 7556TIP3    H244160   0.591   6.106   4.394  1.6198 -0.7045  2.2835
 7557TIP3   OH244161   5.203   1.872  16.244 -0.2149 -0.0822  0.4596
 7557TIP3    H144162   5.233   1.963  16.241 -0.4004 -0.0444 -0.5231
 7557TIP3    H244163   5.243   1.831  16.168 -1.0373 -0.5408  0.2645
 7558TIP3   OH244164   6.463   3.587  11.537 -0.1739  0.3759  0.2629
 7558TIP3    H144165   6.538   3.624  11.583  0.2140  0.2701 -0.2788
 7558TIP3    H244166   6.434   3.514  11.592  1.3240 -0.8240 -0.4709
 7559TIP3   OH244167   5.880   0.757  13.548  0.0054 -0.2925  0.0466
 7559TIP3    H144168   5.926   0.720  13.472 -0.1520 -0.3149 -0.0362
 7559TIP3    H244169   5.938   0.826  13.580  0.5054 -0.8828  0.4516
 7560TIP3   OH244170   3.091   1.853   1.491 -0.5247 -0.0747  0.3327
 7560TIP3    H144171   3.126   1.781   1.543  0.0162 -0.0747 -0.0179
 7560TIP3    H244172   3.092   1.928   1.549 -2.3861 -0.6182  1.1494
 7561TIP3   OH244173   5.386   5.620  16.321  0.8729  0.2791  0.4697
 7561TIP3    H144174   5.475   5.657  16.321  0.1994  2.0898 -1.0616
 7561TIP3    H244175   5.329   5.697  16.313 -0.6621 -0.9920 -2.4387
 7562TIP3   OH244176   4.295   2.751  13.293 -0.7024  0.1765  0.0655
 7562TIP3    H144177   4.305   2.846  13.297 -0.2753  0.1037  0.9372
 7562TIP3    H244178   4.309   2.721  13.383 -0.7192 -0.7229 -0.2188
 7563TIP3   OH244179   2.499   5.753  13.368 -0.1400  0.0191 -0.1525
 7563TIP3    H144180   2.479   5.673  13.416  0.7494  0.1287  0.4390
 7563TIP3    H244181   2.501   5.821  13.435 -3.5584  1.0893 -0.9825
 7564TIP3   OH244182   4.748   5.987   2.777  0.0923  0.0564  0.5432
 7564TIP3    H144183   4.718   6.005   2.866  0.3270 -0.0777  0.6521
 7564TIP3    H244184   4.827   6.040   2.767 -0.2104  0.4506  0.2405
 7565TIP3   OH244185   4.622   1.136   5.704  0.2946  0.0158  0.1835
 7565TIP3    H144186   4.556   1.106   5.767  0.5796 -1.4716 -0.1806
 7565TIP3    H244187   4.658   1.055   5.667  2.1620  0.7990  0.1839
 7566TIP3   OH244188   1.223   2.194  10.970  0.5153  0.1651 -0.2102
 7566TIP3    H144189   1.149   2.133  10.967 -0.0530  0.8484 -0.2570
 7566TIP3    H244190   1.252   2.201  10.879 -0.1377  0.8318 -0.3682
 7567TIP3   OH244191   5.527   0.447   5.722 -0.1374 -0.7215 -0.5104
 7567TIP3    H144192   5.571   0.531   5.734 -0.2781 -0.5319 -1.2747
 7567TIP3    H244193   5.533   0.429   5.628 -2.5492 -0.1801 -0.8384
 7568TIP3   OH244194   2.217   0.029  16.771  0.4508  1.0663  0.4167
 7568TIP3    H144195   2.123   0.021  16.784  0.0321 -0.9354 -2.7373
 7568TIP3    H244196   2.228   0.113  16.728  0.0903  1.1720  0.5230
 7569TIP3   OH244197   5.127   4.030  11.976 -0.3359  0.0460  0.2798
 7569TIP3    H144198   5.051   4.062  12.024 -1.5113 -0.5679 -1.1007
 7569TIP3    H244199   5.091   3.986  11.899  1.4390  0.3548 -0.8003
 7570TIP3   OH244200   1.490   5.339   1.460  0.0599 -0.1683 -0.3103
 7570TIP3    H144201   1.538   5.336   1.377 -0.5023  1.0078 -0.7098
 7570TIP3    H244202   1.515   5.422   1.500  0.7881 -0.9934  1.0155
 7571TIP3   OH244203   2.706   1.087   2.296  0.2499 -0.4831  0.1878
 7571TIP3    H144204   2.700   1.039   2.379  1.7843 -2.8194 -0.9112
 7571TIP3    H244205   2.717   1.018   2.230  2.3666  1.3737 -1.5782
 7572TIP3   OH244206   3.235   6.339  10.318  0.4620 -0.2081  0.0146
 7572TIP3    H144207   3.330   6.350  10.314  0.2844  1.6364  0.3466
 7572TIP3    H244208   3.216   6.274  10.250  1.7912  0.6060 -1.1974
 7573TIP3   OH244209   4.581   0.432  11.377  0.1340  0.1399 -0.8565
 7573TIP3    H144210   4.628   0.350  11.368 -0.0817 -0.2666  1.2864
 7573TIP3    H244211   4.604   0.482  11.298  2.3653 -0.9115 -0.9325
 7574TIP3   OH244212   5.405   1.463   5.735 -0.2408 -0.0874 -0.2924
 7574TIP3    H144213   5.482   1.411   5.711  0.9735  1.0585  0.9172
 7574TIP3    H244214   5.405   1.462   5.831 -1.9082 -0.2805 -0.2765
 7575TIP3   OH244215   0.811   4.854  11.895 -0.2155 -0.0441 -0.1062
 7575TIP3    H144216   0.724   4.890  11.916  0.4490  1.1154  0.8211
 7575TIP3    H244217   0.854   4.924  11.845  0.7034  0.0205  0.7423
 7576TIP3   OH244218   5.671   0.680  15.921  0.2024 -0.3234  0.2213
 7576TIP3    H144219   5.740   0.624  15.886 -0.7646 -0.5376 -1.4893
 7576TIP3    H244220   5.698   0.769  15.896 -0.4233 -0.4650 -1.0407
 7577TIP3   OH244221   2.788   4.947   0.651  0.3024  0.3154  0.1372
 7577TIP3    H144222   2.743   5.018   0.605  1.4429 -0.0805 -1.7115
 7577TIP3    H244223   2.724   4.876   0.653 -0.1472  0.7158  0.1554
 7578TIP3   OH244224   5.497   2.426  14.582  0.1498 -0.4522  0.4092
 7578TIP3    H144225   5.545   2.344  14.595 -1.2898 -1.1430  1.5655
 7578TIP3    H244226   5.536   2.487  14.646 -0.3350 -0.9446  1.1875
 7579TIP3   OH244227   2.458   1.639   5.728 -0.6425  0.3905 -0.1471
 7579TIP3    H144228   2.373   1.643   5.772 -1.2208 -2.7088 -0.7406
 7579TIP3    H244229   2.448   1.696   5.652 -1.6114  1.3169  0.6379
 7580TIP3   OH244230   4.783   6.713   0.216 -0.1709  0.3009  0.0180
 7580TIP3    H144231   4.787   6.808   0.222  1.2470  0.2384  0.3394
 7580TIP3    H244232   4.766   6.684   0.306 -1.4493  0.2591 -0.2127
 7581TIP3   OH244233   4.399   0.663  17.062  0.6784  0.5752  0.6615
 7581TIP3    H144234   4.451   0.689  16.986  0.9857  1.7940  1.2655
 7581TIP3    H244235   4.459   0.669  17.136  0.2068  0.0448  1.1024
 7582TIP3   OH244236   2.942   4.064  12.708  0.0316  0.1573 -0.0041
 7582TIP3    H144237   2.985   4.146  12.732  0.9212  0.0756 -1.2432
 7582TIP3    H244238   2.881   4.087  12.638 -2.1617  0.2952  1.8225
 7583TIP3   OH244239   6.639   3.209   1.513  0.5126  0.0284  0.4365
 7583TIP3    H144240   6.719   3.250   1.481 -0.3884  0.6067 -1.1851
 7583TIP3    H244241   6.623   3.250   1.599  2.6478 -1.1079  1.4509
 7584TIP3   OH244242   5.766   0.192  14.181 -0.3944  0.6166  0.4141
 7584TIP3    H144243   5.680   0.233  14.165  0.1912  1.3831 -0.9237
 7584TIP3    H244244   5.820   0.220  14.107  0.8745 -0.2743  0.9723
 7585TIP3   OH244245   3.504   4.132   2.504 -0.0271  0.0857 -0.1314
 7585TIP3    H144246   3.422   4.154   2.549  1.0458  0.4702  1.7103
 7585TIP3    H244247   3.542   4.216   2.481 -0.5234 -0.1052 -1.7642
 7586TIP3   OH244248   0.501   5.450   0.417  0.0468 -0.2124 -0.2448
 7586TIP3    H144249   0.552   5.398   0.355  1.1054  0.4746  0.0318
 7586TIP3    H244250   0.526   5.540   0.400 -0.8025  0.1054  0.1566
 7587TIP3   OH244251   6.674   6.431  16.366  0.7819  0.1405 -0.3963
 7587TIP3    H144252   6.743   6.426  16.433  0.0945 -0.2079  0.3005
 7587TIP3    H244253   6.719   6.409  16.284  1.1630 -1.8318  0.2945
 7588TIP3   OH244254   4.116   6.326  16.093  0.6906  0.0520 -0.2157
 7588TIP3    H144255   4.099   6.420  16.083 -1.6561 -0.1934  0.7566
 7588TIP3    H244256   4.099   6.309  16.186  1.5201 -1.2776 -0.2895
 7589TIP3   OH244257   0.443   4.752   4.335  0.1238 -0.2688 -0.1659
 7589TIP3    H144258   0.390   4.804   4.275  0.5486 -1.1515 -1.3300
 7589TIP3    H244259   0.398   4.760   4.419 -1.9948 -1.1514 -1.1548
 7590TIP3   OH244260   5.105   6.049   5.597  0.7962  0.0981 -0.6186
 7590TIP3    H144261   5.118   5.962   5.560 -4.6395 -2.2128  1.8230
 7590TIP3    H244262   5.064   6.100   5.527  0.0014 -0.8335 -0.8589
 7591TIP3   OH244263   2.197   2.067   4.053  0.1741 -0.2961  0.2937
 7591TIP3    H144264   2.183   2.085   3.960  1.1249 -0.9463  0.0094
 7591TIP3    H244265   2.282   2.107   4.072  0.7294 -1.5262  0.4804
 7592TIP3   OH244266   6.068   1.122  13.666  0.0257  0.1016 -0.4149
 7592TIP3    H144267   6.025   1.069  13.734 -0.4363  2.7616  1.5383
 7592TIP3    H244268   6.161   1.100  13.674 -0.3288 -1.9280 -1.1715
 7593TIP3   OH244269   2.104   2.700  15.276  0.0960  0.0256 -0.0402
 7593TIP3    H144270   2.152   2.675  15.197  0.2874  0.0775  0.0576
 7593TIP3    H244271   2.015   2.716  15.246 -0.6320 -2.9844  0.2213
 7594TIP3   OH244272   3.742   3.924   4.997  0.5243 -0.0960 -0.6369
 7594TIP3    H144273   3.724   3.880   5.080 -0.0312  1.0611 -0.1127
 7594TIP3    H244274   3.834   3.949   5.003  0.8438 -1.1562 -0.9412
 7595TIP3   OH244275   0.027   6.491  16.816 -0.7434  0.2600  0.1830
 7595TIP3    H144276   0.001   6.490  16.724  0.9825  0.8568 -0.3662
 7595TIP3    H244277  -0.029   6.426  16.858 -1.4885 -0.1032 -1.3052
 7596TIP3   OH244278   1.731   5.354  12.186  0.6053  0.0404 -0.2174
 7596TIP3    H144279   1.725   5.450  12.186  0.6547  0.0627  0.8114
 7596TIP3    H244280   1.776   5.334  12.268  0.0353 -0.8938 -0.1243
 7597TIP3   OH244281   1.894   0.730   5.588 -0.1046 -0.3533 -0.0985
 7597TIP3    H144282   1.929   0.717   5.676 -2.9411  1.0527  1.3695
 7597TIP3    H244283   1.901   0.825   5.573 -0.4587 -0.4621 -1.0220
 7598TIP3   OH244284   1.891   4.825  12.508 -0.2907 -1.2871 -0.1915
 7598TIP3    H144285   1.842   4.772  12.445  0.4218 -1.6710 -0.4316
 7598TIP3    H244286   1.938   4.762  12.562  0.8713 -0.9079 -0.7302
 7599TIP3   OH244287   2.271   0.665   2.174  0.1915 -0.1184 -0.2484
 7599TIP3    H144288   2.279   0.705   2.087 -1.2541 -1.1302 -0.9016
 7599TIP3    H244289   2.356   0.678   2.215  1.1107 -0.1437 -2.0540
 7600TIP3   OH244290   4.776   4.691  15.602  0.4283 -0.7743  0.4962
 7600TIP3    H144291   4.793   4.630  15.530  1.0647  0.6283 -0.5787
 7600TIP3    H244292   4.783   4.778  15.563  0.2583  0.0232  2.1423
 7601TIP3   OH244293   4.941   5.736   4.241  0.4121 -0.2062 -0.0598
 7601TIP3    H144294   4.960   5.646   4.218  2.0361 -0.1039  0.7244
 7601TIP3    H244295   4.913   5.733   4.332  0.5698  0.0717  0.0032
 7602TIP3   OH244296   6.667   2.808  16.242  0.1938 -0.2480 -0.3580
 7602TIP3    H144297   6.694   2.816  16.333  1.5221 -3.1205 -0.4041
 7602TIP3    H244298   6.748   2.793  16.193 -0.6345 -0.1587 -1.8405
 7603TIP3   OH244299   0.729   2.770   1.818 -0.5767 -0.3783 -0.3166
 7603TIP3    H144300   0.651   2.824   1.828  0.0728  0.2205  2.3900
 7603TIP3    H244301   0.699   2.692   1.770 -3.1416 -0.6925  1.5680
 7604TIP3   OH244302   1.871   2.808   0.672 -0.3264  0.8157 -0.3896
 7604TIP3    H144303   1.859   2.745   0.601 -0.0607  1.0502 -0.6460
 7604TIP3    H244304   1.870   2.755   0.752 -2.3137  0.7332 -0.4263
 7605TIP3   OH244305   2.869   0.425  14.832  0.0993 -0.1514  0.4710
 7605TIP3    H144306   2.866   0.475  14.750  0.5549 -0.5237  0.2263
 7605TIP3    H244307   2.929   0.353  14.814  0.0695 -0.3316  1.0836
 7606TIP3   OH244308   0.296   1.572  14.206  0.2023  0.1307  0.5561
 7606TIP3    H144309   0.257   1.582  14.293 -0.0416  0.1936  0.4392
 7606TIP3    H244310   0.372   1.631  14.207 -0.7352  1.3969  0.1698
 7607TIP3   OH244311   2.300   0.601  14.568  0.1285 -0.7384 -0.5566
 7607TIP3    H144312   2.296   0.508  14.591  1.8706 -0.5440  0.6919
 7607TIP3    H244313   2.393   0.623  14.569 -0.2396  1.0237 -0.8625
 7608TIP3   OH244314   4.535   6.356   0.898  0.0332  0.1513  0.1827
 7608TIP3    H144315   4.457   6.362   0.953  0.2687  0.5258  0.4802
 7608TIP3    H244316   4.584   6.282   0.933  0.2608  0.4868  0.5831
 7609TIP3   OH244317   1.274   4.208   4.698 -0.2532 -0.6422 -0.3998
 7609TIP3    H144318   1.323   4.129   4.677 -0.0745 -0.4689 -0.6478
 7609TIP3    H244319   1.334   4.280   4.676 -0.4851 -0.4343 -0.3617
 7610TIP3   OH244320   2.143   6.786   3.580 -0.0904  0.3151 -0.3505
 7610TIP3    H144321   2.200   6.859   3.601 -1.9971  2.1712 -1.2110
 7610TIP3    H244322   2.089   6.818   3.507 -2.1431 -1.2996  0.3572
 7611TIP3   OH244323   1.552   3.795  12.542 -0.2168  0.1271  0.3374
 7611TIP3    H144324   1.549   3.709  12.585 -0.2023 -0.8168 -1.4764
 7611TIP3    H244325   1.462   3.828  12.550 -0.1195  0.1604  1.4330
 7612TIP3   OH244326   4.531   5.987   3.234 -0.6257  0.1054  0.2823
 7612TIP3    H144327   4.576   6.004   3.317 -0.1844  1.7411 -0.2538
 7612TIP3    H244328   4.438   6.001   3.253 -0.9121 -2.4992  1.1973
 7613TIP3   OH244329   2.676   3.950  12.153 -0.0036 -0.5766  0.0689
 7613TIP3    H144330   2.742   3.905  12.206 -1.4106 -2.3050  0.4442
 7613TIP3    H244331   2.593   3.916  12.185 -1.0784  1.2310 -0.6753
 7614TIP3   OH244332   4.003   1.424  16.368  0.0086  0.5458 -0.2425
 7614TIP3    H144333   4.076   1.433  16.429  0.6684 -0.0545 -0.9192
 7614TIP3    H244334   4.044   1.421  16.282 -0.6926 -1.0744 -0.5631
 7615TIP3   OH244335   4.115   4.220  12.546  0.7316 -0.6879  0.2084
 7615TIP3    H144336   4.107   4.194  12.454  1.2386 -2.7887  0.6876
 7615TIP3    H244337   4.037   4.184  12.588  0.7822 -0.2327  0.7008
 7616TIP3   OH244338   3.758   1.145  12.881 -0.1977 -0.5518  0.1461
 7616TIP3    H144339   3.823   1.197  12.833 -0.8264  0.6878  0.6166
 7616TIP3    H244340   3.751   1.187  12.966 -0.5186 -1.5972  0.6554
 7617TIP3   OH244341   4.852   3.425  15.216 -0.0085 -0.1223 -0.4308
 7617TIP3    H144342   4.853   3.329  15.219 -3.2804 -0.2633  2.1929
 7617TIP3    H244343   4.775   3.446  15.163  0.9160  1.1186 -1.3342
 7618TIP3   OH244344   1.901   4.159   3.245  0.0325  0.9421 -0.4714
 7618TIP3    H144345   1.808   4.169   3.226 -0.4599 -1.6111  0.1892
 7618TIP3    H244346   1.909   4.071   3.282  2.6156  1.3523  0.1789
 7619TIP3   OH244347   1.681   3.186   0.661  1.1548  0.1824  0.3045
 7619TIP3    H144348   1.673   3.251   0.592  0.1011 -0.5216 -0.2724
 7619TIP3    H244349   1.622   3.115   0.634  0.4878  0.0050  2.0507
 7620TIP3   OH244350   3.049   2.282   5.117 -0.1464 -0.2710 -0.8507
 7620TIP3    H144351   3.040   2.376   5.126 -0.5349 -0.3680 -0.1796
 7620TIP3    H244352   3.073   2.251   5.204 -1.8969 -0.9967 -0.5953
 7621TIP3   OH244353   1.534   3.692   7.208  0.4600 -0.0288 -0.3178
 7621TIP3    H144354   1.449   3.704   7.251  1.3498 -0.7033  1.7268
 7621TIP3    H244355   1.525   3.611   7.158 -0.9432  1.3308 -2.4490
 7622TIP3   OH244356   0.394   4.243  14.198 -1.0134  0.4679  0.3585
 7622TIP3    H144357   0.397   4.148  14.190 -1.9751  0.5085 -0.9282
 7622TIP3    H244358   0.485   4.271  14.186 -0.4136 -0.3578  2.5664
 7623TIP3   OH244359   2.763   6.004  12.333 -0.7980  0.2709 -1.0573
 7623TIP3    H144360   2.676   6.005  12.294 -1.4750  2.4797  0.3381
 7623TIP3    H244361   2.813   6.067  12.282 -0.2077 -0.4623 -1.4028
 7624TIP3   OH244362   1.427   5.582   6.245 -0.0724 -0.6269 -0.4863
 7624TIP3    H144363   1.510   5.561   6.288  0.0428  0.8170  0.0389
 7624TIP3    H244364   1.385   5.646   6.303 -1.2144 -0.7668 -1.1238
 7625TIP3   OH244365   6.247   1.635  16.954 -0.5587  0.0821 -0.0327
 7625TIP3    H144366   6.232   1.617  16.861 -0.9924 -1.7834  0.3668
 7625TIP3    H244367   6.249   1.731  16.960 -2.6092  0.2803 -1.6442
 7626TIP3   OH244368   6.451   2.327   2.090 -0.5813 -0.1960 -0.1087
 7626TIP3    H144369   6.532   2.362   2.052 -0.8791 -0.1737 -0.7321
 7626TIP3    H244370   6.424   2.393   2.154 -0.3667  0.0274 -0.2460
 7627TIP3   OH244371   5.475   0.424   5.042  0.2296 -0.6609  0.5781
 7627TIP3    H144372   5.512   0.342   5.009  0.7114  0.4720 -1.9613
 7627TIP3    H244373   5.552   0.477   5.066 -0.0616 -0.7819  1.8276
 7628TIP3   OH244374   3.811   0.670  15.843  0.1691  0.3016 -0.6294
 7628TIP3    H144375   3.777   0.753  15.876  0.2930 -0.0713  0.4632
 7628TIP3    H244376   3.739   0.608  15.854  1.2683 -0.6170  2.1783
 7629TIP3   OH244377   2.138   4.310  13.563 -0.0373  0.5258 -0.3204
 7629TIP3    H144378   2.080   4.371  13.609  1.4287  2.5218 -0.9489
 7629TIP3    H244379   2.155   4.240  13.626 -1.3267  1.0451  0.6459
 7630TIP3   OH244380   2.708   2.288   3.628  0.0989  0.6576  0.0863
 7630TIP3    H144381   2.756   2.368   3.606  0.1059  0.8015  0.5884
 7630TIP3    H244382   2.660   2.266   3.549  0.4584  0.9019 -0.2015
 7631TIP3   OH244383   2.025   1.016   4.027 -0.6597 -0.0538 -0.2221
 7631TIP3    H144384   2.004   0.932   3.985  1.3607 -1.1518  0.7800
 7631TIP3    H244385   2.054   1.072   3.955  0.6185 -1.1707 -0.6288
 7632TIP3   OH244386   6.435   6.140  17.071 -0.4028 -0.3857 -0.3239
 7632TIP3    H144387   6.518   6.155  17.117 -1.4534 -0.8742  1.8464
 7632TIP3    H244388   6.437   6.202  16.998  1.9746 -0.5718 -0.5052
 7633TIP3   OH244389   2.394   1.176  16.020 -0.1776 -0.2295 -0.2085
 7633TIP3    H144390   2.437   1.258  15.996 -0.1142 -0.5184 -1.1434
 7633TIP3    H244391   2.454   1.135  16.082  0.8872 -0.5928 -1.4413
 7634TIP3   OH244392   6.575   1.480   3.039 -0.4110 -0.0767 -0.0771
 7634TIP3    H144393   6.547   1.537   3.110 -0.1193 -0.4465  0.3425
 7634TIP3    H244394   6.510   1.493   2.970  0.4758  1.9184 -0.5990
 7635TIP3   OH244395   5.127   4.329  15.434  0.2541 -0.8337  0.4053
 7635TIP3    H144396   5.097   4.249  15.477  2.3392 -0.7343  2.2124
 7635TIP3    H244397   5.219   4.313  15.414  0.9555  1.3479  1.5526
 7636TIP3   OH244398   2.930   3.788   3.984  0.5874 -0.4846 -0.5826
 7636TIP3    H144399   2.929   3.876   3.947 -0.1552 -0.4669 -0.5353
 7636TIP3    H244400   2.991   3.793   4.058  1.2509 -0.2507 -1.1386
 7637TIP3   OH244401   1.036   0.071  15.512 -0.2722 -0.9026 -0.7279
 7637TIP3    H144402   1.064   0.161  15.531  1.6794 -1.6236  0.0421
 7637TIP3    H244403   1.058   0.022  15.591 -1.1167 -2.1258 -1.2205
 7638TIP3   OH244404   4.542   3.061   3.224  0.1503  0.2644 -0.4546
 7638TIP3    H144405   4.559   3.149   3.188 -0.1510 -0.4851 -2.6140
 7638TIP3    H244406   4.618   3.010   3.198  1.3087  0.2757  2.5485
 7639TIP3   OH244407   1.937   2.793  10.583 -0.0705 -0.7203 -0.0190
 7639TIP3    H144408   2.023   2.834  10.573  0.4511 -2.0097 -1.0769
 7639TIP3    H244409   1.879   2.865  10.607  1.3081  0.1684  0.8262
 7640TIP3   OH244410   6.805   4.235  17.071  0.0778  0.9050 -0.3737
 7640TIP3    H144411   6.758   4.237  16.988  0.0969  0.0882 -0.4083
 7640TIP3    H244412   6.738   4.248  17.138 -0.0304  0.9034 -0.4828
 7641TIP3   OH244413   4.949   0.268  13.067 -0.4140  0.3939 -0.1550
 7641TIP3    H144414   4.858   0.249  13.044 -0.4047 -0.4169  0.4080
 7641TIP3    H244415   4.985   0.312  12.990 -0.9691 -0.3031 -0.8322
 7642TIP3   OH244416   2.351   0.474  15.932 -0.0448 -0.6687 -0.2696
 7642TIP3    H144417   2.434   0.513  15.960 -0.3594  1.6601 -2.2770
 7642TIP3    H244418   2.284   0.526  15.976 -0.4914 -1.9777  0.6532
 7643TIP3   OH244419   3.970   0.527  10.970  0.6209  0.2458 -0.2820
 7643TIP3    H144420   3.955   0.539  11.063  1.4023  0.0633 -0.1277
 7643TIP3    H244421   3.886   0.548  10.929  0.2422  0.2106  0.4684
 7644TIP3   OH244422   0.242   3.968   6.133 -0.4195  0.0577  0.0853
 7644TIP3    H144423   0.198   3.945   6.215  1.4199 -3.0442  0.3929
 7644TIP3    H244424   0.309   4.031   6.159 -1.1020  0.5881  0.5891
 7645TIP3   OH244425   4.590   1.432   4.305 -0.5805  0.3858  0.2475
 7645TIP3    H144426   4.587   1.480   4.388  0.3449 -1.5595  1.4823
 7645TIP3    H244427   4.677   1.393   4.303 -1.7197 -2.3219  0.0064
 7646TIP3   OH244428   0.548   1.334  12.289 -0.3848  0.1531 -0.1978
 7646TIP3    H144429   0.498   1.290  12.357 -0.3847 -1.5868 -1.2572
 7646TIP3    H244430   0.631   1.357  12.331 -0.4129 -0.8177  0.4193
 7647TIP3   OH244431   3.056   0.153   2.894  0.4372 -0.0787  0.6068
 7647TIP3    H144432   2.969   0.188   2.912  0.0451 -0.8166  0.2369
 7647TIP3    H244433   3.079   0.104   2.972  0.2296 -0.4214  0.4582
 7648TIP3   OH244434   4.335   3.485   4.537  0.4225  0.3417  0.2180
 7648TIP3    H144435   4.260   3.496   4.478  0.9158  3.6231 -0.0060
 7648TIP3    H244436   4.298   3.495   4.625  0.1350 -1.5957  0.3558
 7649TIP3   OH244437   3.189   4.789   2.413  0.0794  0.1722  0.0452
 7649TIP3    H144438   3.210   4.697   2.428  0.3704  0.1047 -0.7502
 7649TIP3    H244439   3.095   4.790   2.397 -0.2433  0.2427  1.7705
 7650TIP3   OH244440   5.000   3.429   2.270 -0.0461  0.7037  0.2113
 7650TIP3    H144441   4.964   3.377   2.197  0.8164 -0.4884  0.5943
 7650TIP3    H244442   4.995   3.370   2.345  0.0579  1.5495  0.8960
 7651TIP3   OH244443   2.840   0.165  16.774 -0.2210  0.9099  0.4583
 7651TIP3    H144444   2.831   0.126  16.687  0.0084  0.6635  0.5449
 7651TIP3    H244445   2.922   0.129  16.808 -0.4476  0.7911  0.8852
 7652TIP3   OH244446   3.178   4.577  12.240  0.2024 -0.3417 -0.3064
 7652TIP3    H144447   3.261   4.607  12.277  1.5345 -1.7240 -2.0098
 7652TIP3    H244448   3.143   4.518  12.307 -0.2187  1.3905  1.0807
 7653TIP3   OH244449   3.098   5.288   3.501  0.6139 -0.4138 -0.0133
 7653TIP3    H144450   3.034   5.344   3.546  0.5800 -2.2250  2.3438
 7653TIP3    H244451   3.044   5.220   3.459  0.8654 -0.9151  0.4654
 7654TIP3   OH244452   0.299   4.583  11.545  0.6075 -0.1480  0.9733
 7654TIP3    H144453   0.228   4.607  11.486  0.7783  1.8077  1.4751
 7654TIP3    H244454   0.287   4.490  11.561  0.9295 -0.9871 -2.6241
 7655TIP3   OH244455   2.649   4.409   6.215 -0.3132 -0.8844 -0.6094
 7655TIP3    H144456   2.741   4.414   6.242 -0.3026 -2.6449 -0.2006
 7655TIP3    H244457   2.642   4.325   6.170 -1.6932 -0.6998 -0.7695
 7656TIP3   OH244458   2.649   0.489  17.157  0.0129 -0.0055 -0.6399
 7656TIP3    H144459   2.649   0.530  17.244 -0.2481  0.0183 -0.6505
 7656TIP3    H244460   2.627   0.397  17.174 -0.5662  0.1146 -0.7315
 7657TIP3   OH244461   2.093   4.929  12.918  0.4217 -0.1752  0.3132
 7657TIP3    H144462   2.052   4.866  12.857 -0.2969  0.2273  0.3682
 7657TIP3    H244463   2.034   5.004  12.917  1.7367  0.8900 -0.4403
 7658TIP3   OH244464   4.546   1.157  11.196 -0.5975 -0.1861 -0.2249
 7658TIP3    H144465   4.512   1.119  11.277  0.1755  0.4992  0.4341
 7658TIP3    H244466   4.635   1.122  11.189 -1.0489 -1.1653 -1.4016
 7659TIP3   OH244467   1.175   0.098   6.375  0.4541 -0.9010  0.1275
 7659TIP3    H144468   1.148   0.052   6.455  0.4441  0.5503  1.0144
 7659TIP3    H244469   1.267   0.121   6.391 -0.4728  2.5545  1.4245
 7660TIP3   OH244470   5.082   5.020  13.666 -0.0634  0.0255  0.7742
 7660TIP3    H144471   5.162   5.072  13.678 -1.5991  3.0487 -0.7458
 7660TIP3    H244472   5.038   5.024  13.751  2.2741 -3.6806  2.3959
 7661TIP3   OH244473   3.441   5.863   5.635  0.3646  0.1409  0.4445
 7661TIP3    H144474   3.533   5.867   5.661  0.5765 -1.9058  0.2119
 7661TIP3    H244475   3.436   5.914   5.554  1.3281  0.1398  0.3759
 7662TIP3   OH244476   2.856   5.617  11.717 -0.3955  0.0428 -0.5388
 7662TIP3    H144477   2.931   5.585  11.768 -0.6694 -2.3425 -1.4661
 7662TIP3    H244478   2.789   5.549  11.729 -1.5616  0.9702 -1.5840
 7663TIP3   OH244479   3.477   5.461   4.681 -1.0062  0.2025  0.2167
 7663TIP3    H144480   3.420   5.393   4.645 -2.7529  1.3883  0.6232
 7663TIP3    H244481   3.426   5.542   4.674 -0.3636  0.9315  2.8075
 7664TIP3   OH244482   4.579   5.729   2.047  0.3255 -0.3408  0.0901
 7664TIP3    H144483   4.623   5.793   2.102  1.3837  1.9819 -3.1333
 7664TIP3    H244484   4.607   5.751   1.958 -2.5431 -2.7295 -1.5878
 7665TIP3   OH244485   0.707   4.204  15.347  0.2223  0.2461  0.2398
 7665TIP3    H144486   0.749   4.124  15.315 -0.7830 -0.0746 -0.3543
 7665TIP3    H244487   0.713   4.265  15.274  0.0081  0.3218  0.2830
 7666TIP3   OH244488   4.252   5.235   4.695  0.9298  0.3844  0.4877
 7666TIP3    H144489   4.231   5.243   4.788  1.3225  3.1921  0.4274
 7666TIP3    H244490   4.292   5.149   4.686 -0.5208 -0.5736  2.6077
 7667TIP3   OH244491   5.182   5.728   3.246  0.6196  0.5587  0.3857
 7667TIP3    H144492   5.147   5.658   3.301  0.2510  1.8667  1.9007
 7667TIP3    H244493   5.149   5.809   3.286  2.3470  1.6731 -0.3146
 7668TIP3   OH244494   4.746   3.643  16.622 -0.5371 -0.0514 -0.5084
 7668TIP3    H144495   4.751   3.721  16.678  0.7439  0.5724 -1.4275
 7668TIP3    H244496   4.746   3.678  16.533 -0.3304 -1.0916 -0.9274
 7669TIP3   OH244497   2.671   1.741   0.957  0.0178  0.2608  0.1169
 7669TIP3    H144498   2.612   1.814   0.973  0.2118  0.4287  0.0665
 7669TIP3    H244499   2.758   1.779   0.962  0.1491 -0.1256  0.9574
 7670TIP3   OH244500   6.305   1.209   1.354 -0.2881 -0.3074  0.6376
 7670TIP3    H144501   6.237   1.250   1.301 -1.7697  0.6970  3.1350
 7670TIP3    H244502   6.372   1.183   1.291 -1.9236  0.7525 -1.6883
 7671TIP3   OH244503   2.767   2.820   6.399 -0.3524  0.6857 -0.2619
 7671TIP3    H144504   2.780   2.736   6.355 -1.1919 -0.2643  1.2160
 7671TIP3    H244505   2.724   2.875   6.333  2.0067  0.6833 -1.9216
 7672TIP3   OH244506   3.382   3.229   2.874  0.1647 -0.0555  0.3442
 7672TIP3    H144507   3.464   3.254   2.832  1.1223 -2.2386  0.7778
 7672TIP3    H244508   3.323   3.210   2.801  0.9740 -1.2369 -0.0307
 7673TIP3   OH244509   3.362   0.633  11.985  0.5546  0.0403  0.2046
 7673TIP3    H144510   3.432   0.585  11.940  1.0332  1.1079 -0.2070
 7673TIP3    H244511   3.368   0.604  12.076  0.6548 -0.8873 -0.0866
 7674TIP3   OH244512   3.947   2.465   1.404 -0.3083  0.7902  0.3804
 7674TIP3    H144513   3.852   2.478   1.409 -0.7365 -1.8593  0.5900
 7674TIP3    H244514   3.975   2.457   1.495 -0.6045 -2.3417  0.2808
 7675TIP3   OH244515   0.793   5.845   0.066 -0.2459 -0.6580 -0.4647
 7675TIP3    H144516   0.712   5.795   0.070 -0.9075  0.4184 -0.0235
 7675TIP3    H244517   0.773   5.919   0.008 -0.1203  0.5325  0.9576
 7676TIP3   OH244518   0.020   1.570   2.933  0.4163 -0.1666 -0.0140
 7676TIP3    H144519  -0.072   1.542   2.936  0.2942  0.3097  1.8194
 7676TIP3    H244520   0.044   1.564   2.841 -1.0292 -1.6764 -0.3364
 7677TIP3   OH244521   4.512   6.225   5.585  0.4429  0.3286  0.6516
 7677TIP3    H144522   4.578   6.293   5.595 -0.2174  1.3547 -1.3287
 7677TIP3    H244523   4.429   6.270   5.601 -0.1307  0.4963 -2.2139
 7678TIP3   OH244524   6.476   5.753  16.861 -0.3179 -0.0331  0.6189
 7678TIP3    H144525   6.535   5.681  16.840  0.1996 -0.1679  2.3412
 7678TIP3    H244526   6.527   5.832  16.843  0.2601 -0.1475  1.6865
 7679TIP3   OH244527   2.810   1.039   3.356  0.1594 -0.5848 -0.7372
 7679TIP3    H144528   2.824   1.130   3.329 -1.2186 -0.6513 -1.7696
 7679TIP3    H244529   2.857   0.987   3.290  0.1483 -0.6538 -0.6909
 7680TIP3   OH244530   3.002   1.691   0.784 -0.0976  0.1719 -0.2500
 7680TIP3    H144531   2.954   1.698   0.702 -0.5340  0.9513  0.0655
 7680TIP3    H244532   3.029   1.599   0.788 -1.5354 -0.2830 -0.4504
 7681TIP3   OH244533   0.212   3.890   0.694 -0.1342  0.1126 -0.2251
 7681TIP3    H144534   0.216   3.801   0.729  1.4403  0.0108 -0.5952
 7681TIP3    H244535   0.136   3.930   0.737 -0.7036 -1.3147  0.1377
 7682TIP3   OH244536   1.362   3.642   3.876  0.1272  0.4125 -1.1748
 7682TIP3    H144537   1.370   3.729   3.837 -1.3411  0.1944 -2.0283
 7682TIP3    H244538   1.271   3.637   3.906  0.8985  0.1621  1.3446
 7683TIP3   OH244539   2.532   2.903   2.840  0.2055  0.1449  0.4058
 7683TIP3    H144540   2.617   2.904   2.796  0.5918  0.5588  1.1491
 7683TIP3    H244541   2.469   2.893   2.769  0.8576  0.0483 -0.1745
 7684TIP3   OH244542   6.587   3.410  11.352 -0.0792 -0.5424 -0.5061
 7684TIP3    H144543   6.567   3.341  11.416  1.7492 -0.1292  0.5672
 7684TIP3    H244544   6.534   3.484  11.382 -1.5057 -1.2056 -1.2526
 7685TIP3   OH244545   1.116   2.542  16.740 -0.2213  0.2909 -0.3906
 7685TIP3    H144546   1.210   2.542  16.759 -0.2815  0.4429 -0.0887
 7685TIP3    H244547   1.106   2.479  16.669 -0.2586 -1.9169  1.4515
 7686TIP3   OH244548   3.046   5.141   0.534 -0.3043 -0.3771  0.8073
 7686TIP3    H144549   3.092   5.089   0.600  1.2358 -0.0207  0.0474
 7686TIP3    H244550   3.000   5.208   0.584  0.6339 -0.2748  1.5658
 7687TIP3   OH244551   1.551   4.524  13.977  0.0451 -0.4838 -0.3346
 7687TIP3    H144552   1.480   4.461  13.963 -0.9805  1.0405 -2.8237
 7687TIP3    H244553   1.509   4.610  13.968  2.0946  0.4893 -1.3562
 7688TIP3   OH244554   6.166   1.000  11.007  0.0070 -0.4800  0.9868
 7688TIP3    H144555   6.187   1.094  11.006 -0.9494 -0.2634  0.5808
 7688TIP3    H244556   6.246   0.958  10.974 -0.0258  0.2950 -0.1280
 7689TIP3   OH244557   2.920   5.489  10.973 -0.6733 -0.2902  0.2759
 7689TIP3    H144558   2.826   5.481  10.960 -0.9211 -0.3116  1.8573
 7689TIP3    H244559   2.936   5.583  10.973 -0.5780 -0.3008 -0.6648
 7690TIP3   OH244560   3.081   0.504   5.301 -0.6159 -0.1152 -0.3982
 7690TIP3    H144561   3.036   0.446   5.361 -0.4521 -0.8495 -0.9739
 7690TIP3    H244562   3.021   0.577   5.288 -0.9370 -0.2846  0.1177
 7691TIP3   OH244563   2.931   4.986  16.244  0.4710  0.9399  0.9664
 7691TIP3    H144564   3.018   4.958  16.215  0.4548 -0.2088  1.9690
 7691TIP3    H244565   2.918   4.943  16.328 -0.6486  1.9360  1.3320
 7692TIP3   OH244566   6.548   2.963  13.746  0.3281  0.0656  0.4213
 7692TIP3    H144567   6.463   2.918  13.746  0.3985 -0.1013 -0.9495
 7692TIP3    H244568   6.528   3.051  13.714  0.4517  0.5169  1.5379
 7693TIP3   OH244569   0.809   0.663   5.756 -0.1065  0.1163 -0.3142
 7693TIP3    H144570   0.740   0.663   5.823 -1.0131  1.9102 -1.1929
 7693TIP3    H244571   0.774   0.607   5.687  0.8015 -1.6825  0.6121
 7694TIP3   OH244572   3.851   5.338  16.554 -0.7572  0.1440 -0.0633
 7694TIP3    H144573   3.944   5.362  16.547 -1.1030  1.2910 -1.1606
 7694TIP3    H244574   3.836   5.327  16.648  0.6223 -0.6581  0.0899
 7695TIP3   OH244575   4.598   2.489  16.888 -0.1365  1.0528 -0.6047
 7695TIP3    H144576   4.679   2.448  16.858  1.9266  2.9756  1.7828
 7695TIP3    H244577   4.563   2.429  16.954  0.0663  0.8112 -0.7149
 7696TIP3   OH244578   2.856   5.278   0.158  0.1407 -0.2694 -0.0875
 7696TIP3    H144579   2.796   5.331   0.105  1.0230  0.8678  0.0037
 7696TIP3    H244580   2.810   5.195   0.170 -1.1625  0.3588 -0.4956
 7697TIP3   OH244581   2.381   1.786   3.233  0.3665 -0.0343 -0.0422
 7697TIP3    H144582   2.361   1.707   3.283  1.1016 -0.0862  0.1873
 7697TIP3    H244583   2.298   1.810   3.191 -0.2821  0.0394  1.2295
 7698TIP3   OH244584   2.606   4.041   5.773  0.7897  0.0433  0.1016
 7698TIP3    H144585   2.658   3.960   5.779 -0.3008 -0.5944  1.6228
 7698TIP3    H244586   2.518   4.014   5.797 -0.1707  1.2205 -1.8770
 7699TIP3   OH244587   4.217   3.887  13.125 -0.4107  0.5828  0.2724
 7699TIP3    H144588   4.241   3.976  13.101  2.1353  0.7223  2.8727
 7699TIP3    H244589   4.299   3.839  13.127 -1.0485 -0.6231  3.3447
 7700TIP3   OH244590   6.223   2.719  16.920  0.0315  0.8186 -0.2406
 7700TIP3    H144591   6.166   2.709  16.997 -1.2676  1.2982 -1.1063
 7700TIP3    H244592   6.216   2.636  16.874  1.1157  0.3890  0.3261
 7701TIP3   OH244593   6.444   6.353  12.214 -0.0741  0.7795  0.1722
 7701TIP3    H144594   6.475   6.390  12.297 -0.0347 -0.5082  0.7604
 7701TIP3    H244595   6.424   6.262  12.235 -1.7323  0.8640 -0.8167
 7702TIP3   OH244596   4.080   2.697   4.893 -0.4583  0.0440  0.6468
 7702TIP3    H144597   4.051   2.605   4.893  0.7624 -0.3660  0.1394
 7702TIP3    H244598   4.100   2.715   4.984 -1.9856  0.2590  0.9748
 7703TIP3   OH244599   4.430   1.328  10.740  0.5853  0.8676 -0.3226
 7703TIP3    H144600   4.518   1.291  10.752  0.9249  1.1379 -1.8339
 7703TIP3    H244601   4.392   1.327  10.828  1.2182 -1.4590  0.0067
 7704TIP3   OH244602   0.169   0.860   5.988  0.1223 -0.1717  0.4117
 7704TIP3    H144603   0.161   0.819   6.074 -0.8325  0.6807  0.7572
 7704TIP3    H244604   0.187   0.788   5.928  1.2946 -0.7244  1.3796
 7705TIP3   OH244605   2.833   0.641  15.781  0.3817 -0.5154 -0.8207
 7705TIP3    H144606   2.906   0.650  15.843 -0.7107  4.0303  0.1687
 7705TIP3    H244607   2.770   0.586  15.826  0.6378  0.7206  1.1888
 7706TIP3   OH244608   1.765   6.377   2.535  0.4405 -0.3813 -0.1565
 7706TIP3    H144609   1.798   6.438   2.468  1.6717  0.7324  1.3763
 7706TIP3    H244610   1.825   6.389   2.609 -1.9092 -0.2021  1.8397
 7707TIP3   OH244611   3.731   6.501  16.436  0.4875  0.3810  0.5581
 7707TIP3    H144612   3.689   6.586  16.449 -3.4575 -1.2601  0.1507
 7707TIP3    H244613   3.742   6.494  16.341 -0.3826 -0.0101  0.4760
 7708TIP3   OH244614   2.054   5.261  13.117 -0.0686 -0.3313  0.3492
 7708TIP3    H144615   2.141   5.242  13.082 -0.2549  0.6544 -0.6982
 7708TIP3    H244616   1.994   5.247  13.043 -0.6608  0.1682  0.7236
 7709TIP3   OH244617   5.152   4.603  16.810 -0.0980 -0.1322  0.0447
 7709TIP3    H144618   5.239   4.642  16.799 -0.7235  1.2199 -0.2792
 7709TIP3    H244619   5.128   4.623  16.900 -0.4577  0.3081 -0.1477
 7710TIP3   OH244620   3.361   5.840  14.415 -0.2094 -0.5543  0.3243
 7710TIP3    H144621   3.315   5.923  14.402  1.7656  0.5745  0.0850
 7710TIP3    H244622   3.308   5.794  14.480 -2.2002  0.1809 -0.6802
 7711TIP3   OH244623   4.456   1.213  13.439 -0.2664  0.2122 -0.1499
 7711TIP3    H144624   4.507   1.290  13.412  0.4987  0.2347  1.2502
 7711TIP3    H244625   4.381   1.212  13.381  0.3751  1.2853 -1.0322
 7712TIP3   OH244626   1.905   2.272   4.882 -0.3835 -0.0241  0.1642
 7712TIP3    H144627   1.854   2.291   4.804 -0.4675  0.2419  0.2836
 7712TIP3    H244628   1.850   2.303   4.955 -0.8007 -1.2607  0.4003
 7713TIP3   OH244629   0.972   6.021   4.541  0.0052 -0.4527  0.6717
 7713TIP3    H144630   1.039   6.030   4.609 -1.4750 -0.7709  2.2481
 7713TIP3    H244631   0.948   6.111   4.518  1.7768 -0.3010 -0.8144
 7714TIP3   OH244632   3.803   3.240  15.228  0.2140  0.1867 -0.2956
 7714TIP3    H144633   3.862   3.172  15.258  2.1381  2.1052  0.5646
 7714TIP3    H244634   3.730   3.239  15.290  0.1471 -1.1411 -0.3806
 7715TIP3   OH244635   6.362   3.851  13.086  0.0024 -0.4239 -0.8535
 7715TIP3    H144636   6.408   3.904  13.021 -1.3162 -0.7926 -2.1705
 7715TIP3    H244637   6.269   3.869  13.070 -0.4165 -1.8715 -0.2525
 7716TIP3   OH244638   3.042   0.828   3.942 -0.2660 -0.5670 -0.0938
 7716TIP3    H144639   3.117   0.772   3.920  0.5329  0.4907 -0.1158
 7716TIP3    H244640   2.993   0.833   3.860  0.0665 -0.6132 -0.2995
 7717TIP3   OH244641   4.639   5.337  11.502  0.4387  0.4161  0.0303
 7717TIP3    H144642   4.564   5.278  11.489 -0.5651  1.3618  1.2692
 7717TIP3    H244643   4.636   5.396  11.427  2.2072 -1.7518 -1.9319
 7718TIP3   OH244644   5.835   4.706   6.554  0.1021  0.6406  0.7856
 7718TIP3    H144645   5.907   4.768   6.541  0.4250  0.0350 -0.5468
 7718TIP3    H244646   5.788   4.739   6.630  0.8171  1.9855  0.6766
 7719TIP3   OH244647   3.174   2.331  11.134 -0.5580  0.1528  0.0218
 7719TIP3    H144648   3.228   2.293  11.204 -1.0724  1.0791  0.9422
 7719TIP3    H244649   3.234   2.390  11.087 -0.3786  0.0220  0.0836
 7720TIP3   OH244650   0.803   0.411   0.162 -0.4152  0.8156  0.1690
 7720TIP3    H144651   0.874   0.435   0.222  0.9704  0.6945 -1.3482
 7720TIP3    H244652   0.758   0.340   0.207  0.8127  0.4794  0.9328
 7721TIP3   OH244653   1.485   5.315   2.768 -0.2366  0.2703 -0.2647
 7721TIP3    H144654   1.391   5.299   2.778 -0.4519  1.3778 -0.3089
 7721TIP3    H244655   1.516   5.246   2.710 -1.0148 -0.1357 -0.2041
 7722TIP3   OH244656   0.139   2.735   2.639 -0.4309  0.3801  0.1270
 7722TIP3    H144657   0.203   2.677   2.680 -0.7336 -1.7714 -2.1523
 7722TIP3    H244658   0.058   2.685   2.640 -1.1360  1.4705 -0.4270
 7723TIP3   OH244659   2.568   5.308   5.529  0.1494  0.3350  0.1703
 7723TIP3    H144660   2.629   5.377   5.558 -1.1872  2.3025 -1.3799
 7723TIP3    H244661   2.492   5.318   5.587 -0.2699  0.5508 -0.4112
 7724TIP3   OH244662   3.536   1.953   2.854  0.5926 -0.2921  0.0808
 7724TIP3    H144663   3.510   1.978   2.765  1.0625 -1.6788 -0.4812
 7724TIP3    H244664   3.628   1.979   2.861  0.0706  1.4960  0.8515
 7725TIP3   OH244665   1.835   0.019   5.720  0.1104  0.1476  0.3147
 7725TIP3    H144666   1.883   0.051   5.644 -1.0386 -0.0471 -0.5111
 7725TIP3    H244667   1.781   0.094   5.747 -0.1740 -0.0771  0.3688
 7726TIP3   OH244668   0.556   3.107  16.537  0.1516 -1.0109  0.1737
 7726TIP3    H144669   0.491   3.172  16.510  1.1702  1.2248  2.7180
 7726TIP3    H244670   0.511   3.023  16.523 -1.7950  0.2292 -1.7833
 7727TIP3   OH244671   1.509   6.674   4.506  0.4209  0.1221  0.8080
 7727TIP3    H144672   1.499   6.766   4.531  0.8862  0.7240 -1.0671
 7727TIP3    H244673   1.423   6.648   4.474  0.9574  0.7966 -1.3118
 7728TIP3   OH244674   4.392   2.889   1.785 -0.1907 -0.2861  0.1008
 7728TIP3    H144675   4.302   2.918   1.799 -0.0634  0.1038  0.1066
 7728TIP3    H244676   4.445   2.968   1.791  0.7133 -0.9697  4.7197
 7729TIP3   OH244677   5.208   6.093  14.203  0.1845 -0.1972  0.5637
 7729TIP3    H144678   5.159   6.034  14.145 -0.7318 -0.1878  1.2992
 7729TIP3    H244679   5.140   6.136  14.256  0.9117  0.7586  0.7427
 7730TIP3   OH244680   5.843   4.758   3.817 -0.4416 -0.3494  0.0917
 7730TIP3    H144681   5.816   4.678   3.772  0.6637 -0.7326  0.0886
 7730TIP3    H244682   5.938   4.751   3.824 -0.3828  0.7214  0.5610
 7731TIP3   OH244683   6.588   1.118  15.892  0.1687 -0.2052 -0.1058
 7731TIP3    H144684   6.493   1.125  15.906  0.1511 -2.0631  0.9614
 7731TIP3    H244685   6.627   1.165  15.966  0.1228  1.2081 -0.9404
 7732TIP3   OH244686   6.252   0.325  12.132 -0.4252  0.4885  0.4517
 7732TIP3    H144687   6.219   0.245  12.173  2.7175 -1.2038 -0.0031
 7732TIP3    H244688   6.226   0.317  12.040 -1.3585  0.7627  0.6765
 7733TIP3   OH244689   3.929   2.319   1.946  0.0728 -0.0452 -0.4468
 7733TIP3    H144690   3.862   2.255   1.970 -1.3611  0.8826 -1.7545
 7733TIP3    H244691   3.936   2.376   2.023  0.9791 -1.3967  0.5223
 7734TIP3   OH244692   6.536   0.043   5.793 -0.0413 -0.4214 -0.2019
 7734TIP3    H144693   6.523   0.122   5.740 -0.9898 -0.5632 -0.2054
 7734TIP3    H244694   6.546   0.075   5.883  1.0354 -0.2165 -0.3791
 7735TIP3   OH244695   0.913   2.216  16.829 -0.1748  0.6294 -0.7507
 7735TIP3    H144696   0.963   2.160  16.888 -0.5880  0.5714 -0.4542
 7735TIP3    H244697   0.840   2.161  16.799  0.4533  0.3986 -1.9266
 7736TIP3   OH244698   2.095   5.863  16.227 -0.0940 -0.4285 -0.1245
 7736TIP3    H144699   2.044   5.924  16.281 -0.7342 -0.4840 -0.6455
 7736TIP3    H244700   2.029   5.809  16.183  0.3900 -0.2719 -1.0883
 7737TIP3   OH244701   0.836   6.271   3.343  0.0179 -0.5052 -0.4097
 7737TIP3    H144702   0.901   6.219   3.295  1.1653 -1.0860  1.6321
 7737TIP3    H244703   0.865   6.267   3.435 -2.1876  0.3279  0.4027
 7738TIP3   OH244704   4.180   3.596   2.499  0.0234  0.1124  0.2646
 7738TIP3    H144705   4.096   3.642   2.496 -0.2035 -0.3293 -0.5018
 7738TIP3    H244706   4.157   3.506   2.523  0.0258 -0.5281 -1.9813
 7739TIP3   OH244707   1.279   2.297   0.776  0.9218 -0.0898  0.2456
 7739TIP3    H144708   1.329   2.377   0.762 -1.1748  1.0972 -1.0563
 7739TIP3    H244709   1.284   2.251   0.692  2.4220 -1.5718  1.0982
 7740TIP3   OH244710   0.974   0.509   5.161  0.4978  0.2582  0.2891
 7740TIP3    H144711   0.975   0.531   5.254  1.9108 -0.6150  0.5030
 7740TIP3    H244712   1.035   0.572   5.121  0.5790  0.0670  0.1062
 7741TIP3   OH244713   1.189   4.070   0.459 -0.0111  0.1720 -0.3328
 7741TIP3    H144714   1.258   4.129   0.428 -0.3687  0.3344 -0.8251
 7741TIP3    H244715   1.214   3.984   0.423 -0.7658  0.4787 -1.6291
 7742TIP3   OH244716   1.827   3.169  15.817 -0.1883 -0.4306  0.0985
 7742TIP3    H144717   1.808   3.076  15.828 -2.3548 -0.4684 -2.6368
 7742TIP3    H244718   1.898   3.171  15.752  1.6449 -0.1185  2.0130
 7743TIP3   OH244719   5.363   0.609  12.727  0.2548  0.5394 -0.5610
 7743TIP3    H144720   5.404   0.564  12.801 -0.8838 -0.2088 -0.3616
 7743TIP3    H244721   5.325   0.539  12.675  0.1749  1.1401 -1.3211
 7744TIP3   OH244722   1.479   5.859   1.462 -0.1662 -0.0844  0.9751
 7744TIP3    H144723   1.396   5.841   1.417 -0.4734 -0.8073  1.7945
 7744TIP3    H244724   1.528   5.914   1.401 -0.6353 -0.8917 -0.1735
 7745TIP3   OH244725   2.398   1.082  12.016  0.8118  0.0640  0.4773
 7745TIP3    H144726   2.331   1.150  12.014  0.1928 -0.4468  2.2713
 7745TIP3    H244727   2.429   1.077  11.925 -0.0439  1.7954  0.0365
 7746TIP3   OH244728   6.278   1.326   4.086 -0.3108 -0.0872  0.5698
 7746TIP3    H144729   6.278   1.329   3.991  0.9879 -0.7330  0.5223
 7746TIP3    H244730   6.214   1.258   4.108  0.1816 -0.7127  0.1068
 7747TIP3   OH244731   0.125   6.288  11.791  0.0000 -0.7326  0.8460
 7747TIP3    H144732   0.148   6.345  11.718  1.5081 -0.7194  1.2927
 7747TIP3    H244733   0.032   6.304  11.806  0.0473  0.4812 -0.0156
 7748TIP3   OH244734   5.455   1.712   0.531 -0.7077  0.2673 -0.1777
 7748TIP3    H144735   5.406   1.706   0.614 -0.3243  0.7324  0.0860
 7748TIP3    H244736   5.537   1.754   0.555  0.2045 -1.2790 -0.4578
 7749TIP3   OH244737   0.606   0.476  11.487 -0.1483 -0.2417 -0.2427
 7749TIP3    H144738   0.555   0.463  11.406 -0.4646  0.6576 -0.1963
 7749TIP3    H244739   0.594   0.394  11.535 -2.2020  0.2064  0.1105
 7750TIP3   OH244740   3.375   1.648  13.017  0.1948 -0.3998  0.1799
 7750TIP3    H144741   3.333   1.640  12.931 -0.1922 -0.9197  0.4128
 7750TIP3    H244742   3.311   1.695  13.071  1.1297  1.5074 -0.2669
 7751TIP3   OH244743   0.447   6.328  16.339 -0.0509  0.7789  0.2661
 7751TIP3    H144744   0.469   6.311  16.431  0.6027 -0.9824 -0.1576
 7751TIP3    H244745   0.358   6.362  16.341  0.2443  1.5281  1.6001
 7752TIP3   OH244746   0.181   2.534   0.415 -0.2169  0.4343  0.2610
 7752TIP3    H144747   0.172   2.525   0.320 -0.2187 -2.0491  0.4308
 7752TIP3    H244748   0.245   2.605   0.426  1.1817 -0.4196 -1.6607
 7753TIP3   OH244749   5.139   3.839   0.854 -0.5161 -0.2693 -0.1400
 7753TIP3    H144750   5.100   3.862   0.939 -0.6307 -1.2697  0.0827
 7753TIP3    H244751   5.067   3.847   0.792 -1.0105 -1.7659  0.2171
 7754TIP3   OH244752   1.614   2.520  16.008 -0.3792 -0.5267 -0.4576
 7754TIP3    H144753   1.563   2.599  16.025 -0.4110 -0.2855 -1.5577
 7754TIP3    H244754   1.590   2.496  15.918 -0.8454 -2.1431  0.0642
 7755TIP3   OH244755   5.071   3.580  12.674 -0.2928 -0.4857  0.2397
 7755TIP3    H144756   5.056   3.609  12.584 -1.3233  1.6686  1.0374
 7755TIP3    H244757   5.119   3.652  12.715 -1.4491 -0.5991  1.8824
 7756TIP3   OH244758   1.021   2.568   2.222  0.2279 -0.1860  0.6556
 7756TIP3    H144759   1.042   2.523   2.140  2.3634 -2.0531  2.1082
 7756TIP3    H244760   0.926   2.566   2.227 -0.0730  1.0317 -2.2717
 7757TIP3   OH244761   1.430   6.436  13.760 -0.4180  0.6632 -0.1023
 7757TIP3    H144762   1.400   6.456  13.672  0.5388 -1.1435 -0.8741
 7757TIP3    H244763   1.366   6.374  13.794 -1.0089  1.6570  0.6586
 7758TIP3   OH244764   0.761   2.104  15.380  0.3191  0.0175  0.2713
 7758TIP3    H144765   0.688   2.091  15.440  0.0970  1.3158  0.3015
 7758TIP3    H244766   0.808   2.180  15.415  1.2309 -0.3222 -0.1890
 7759TIP3   OH244767   6.035   4.240   3.914  0.2264  0.5990 -0.2929
 7759TIP3    H144768   6.057   4.259   4.005 -1.0639  2.2681 -0.2671
 7759TIP3    H244769   6.119   4.246   3.868  1.1357 -1.6350  0.9146
 7760TIP3   OH244770   3.840   6.810   3.893  0.4050  0.2830  0.2289
 7760TIP3    H144771   3.750   6.780   3.907  1.2142 -3.8227 -1.8992
 7760TIP3    H244772   3.895   6.742   3.932  2.5768  1.4954 -0.5469
 7761TIP3   OH244773   5.766   6.256   1.129  0.3129  0.9033  0.4576
 7761TIP3    H144774   5.729   6.179   1.086  1.8241 -0.3258  1.2608
 7761TIP3    H244775   5.751   6.241   1.223 -0.2181  2.0596  0.5701
 7762TIP3   OH244776   3.762   4.420   4.834  0.7357  0.5513 -0.6097
 7762TIP3    H144777   3.804   4.505   4.848 -0.2473  0.9538 -0.0381
 7762TIP3    H244778   3.675   4.441   4.800  0.5776 -0.2362 -0.7150
 7763TIP3   OH244779   5.370   0.529   1.986  0.1444  0.7733 -0.0684
 7763TIP3    H144780   5.306   0.600   1.988  0.4299  1.1180 -1.6927
 7763TIP3    H244781   5.455   0.573   1.990  0.3460  0.3209  2.0575
 7764TIP3   OH244782   5.602   0.855   4.831 -0.1135 -0.3401  0.2128
 7764TIP3    H144783   5.611   0.793   4.758  1.5809  0.6125 -0.4245
 7764TIP3    H244784   5.657   0.819   4.900  0.6381  0.2864 -0.0521
 7765TIP3   OH244785   1.446   0.460   3.452  0.1191  0.2198  0.2363
 7765TIP3    H144786   1.459   0.449   3.357  2.2752 -0.6441  0.5716
 7765TIP3    H244787   1.399   0.381   3.478 -0.1315  0.2707 -0.0543
 7766TIP3   OH244788   1.939   6.833   5.032 -0.5144  0.0866 -0.2030
 7766TIP3    H144789   2.023   6.794   5.053 -0.9088 -0.4686  0.3944
 7766TIP3    H244790   1.876   6.761   5.039 -1.0401  0.4917 -0.6189
 7767TIP3   OH244791   3.307   1.231  15.944 -0.2063 -0.1835  0.3657
 7767TIP3    H144792   3.285   1.237  15.851 -0.4881 -1.3695  0.3285
 7767TIP3    H244793   3.237   1.277  15.989 -1.4806 -1.7825  0.1032
 7768TIP3   OH244794   6.201   0.235   4.956  0.2800 -0.0090 -0.7922
 7768TIP3    H144795   6.277   0.195   4.998 -0.9820 -3.2022 -1.2719
 7768TIP3    H244796   6.132   0.233   5.023 -0.2907 -0.2568 -1.3761
 7769TIP3   OH244797   3.764   3.834   3.920  0.1916 -0.4735  0.0692
 7769TIP3    H144798   3.820   3.881   3.859  0.4570  0.7157  1.1988
 7769TIP3    H244799   3.742   3.898   3.987 -0.8019 -1.5113  0.7760
 7770TIP3   OH244800   0.436   2.967   5.322 -0.2079 -0.4650 -0.7181
 7770TIP3    H144801   0.416   2.945   5.413  0.2612  1.0611 -0.2047
 7770TIP3    H244802   0.531   2.954   5.315 -0.3207 -1.0837 -1.1510
 7771TIP3   OH244803   1.121   2.033  13.129  0.1924 -0.2799 -0.2092
 7771TIP3    H144804   1.118   1.977  13.207  0.0992  1.0110  0.7578
 7771TIP3    H244805   1.184   2.101  13.152  1.5528 -0.8675 -1.9906
 7772TIP3   OH244806   5.148   3.238   1.307 -0.1285  0.0888  0.0831
 7772TIP3    H144807   5.225   3.195   1.271  0.2052  0.7435  0.0136
 7772TIP3    H244808   5.082   3.231   1.238  0.3084  0.7682 -0.4067
 7773TIP3   OH244809   4.560   2.847  10.410 -0.1739  0.1717  0.0842
 7773TIP3    H144810   4.645   2.845  10.365 -0.8528  0.6084 -1.2985
 7773TIP3    H244811   4.512   2.773  10.372 -1.1102  1.1363 -0.6526
 7774TIP3   OH244812   5.964   2.093  16.598  0.4703  0.2846  0.1177
 7774TIP3    H144813   5.939   2.067  16.509  1.6051 -0.7727  0.0901
 7774TIP3    H244814   5.910   2.171  16.616  0.5819  0.8090 -1.6624
 7775TIP3   OH244815   4.898   5.209  11.273 -0.0663  0.0026 -0.0326
 7775TIP3    H144816   4.988   5.182  11.289 -0.9806 -1.3098  4.4094
 7775TIP3    H244817   4.887   5.288  11.326 -1.9169 -0.9006  1.0408
 7776TIP3   OH244818   0.995   6.175   5.625  0.2212 -0.4828 -0.5584
 7776TIP3    H144819   1.015   6.137   5.710  0.7171  1.5420  0.2892
 7776TIP3    H244820   1.040   6.260   5.625  0.4992 -0.5374 -2.9613
 7777TIP3   OH244821   4.185   0.504  15.340 -0.1562  0.0750  0.0200
 7777TIP3    H144822   4.152   0.474  15.255 -1.1599  0.6451  0.1951
 7777TIP3    H244823   4.185   0.599  15.333  1.2769  0.1052  0.1115
 7778TIP3   OH244824   4.090   2.071   5.070  0.3959 -0.3685 -0.2601
 7778TIP3    H144825   4.015   2.106   5.118  0.8584 -0.0057  0.2097
 7778TIP3    H244826   4.054   2.044   4.985 -0.5590 -1.6189  0.5203
 7779TIP3   OH244827   0.111   5.982  15.386  0.3025  0.2695  0.7782
 7779TIP3    H144828   0.110   5.887  15.398 -0.3488  0.3988  1.9602
 7779TIP3    H244829   0.041   6.013  15.444 -0.4816  1.3488 -0.6993
 7780TIP3   OH244830   1.650   0.307   4.283  0.0292 -0.3064  0.4283
 7780TIP3    H144831   1.684   0.375   4.224 -4.4180  1.5813 -0.3448
 7780TIP3    H244832   1.649   0.349   4.369 -0.5250 -0.2662  0.4020
 7781TIP3   OH244833   5.852   2.660   3.367 -0.0514  0.1902 -0.8624
 7781TIP3    H144834   5.815   2.742   3.335  2.3311  0.9636 -1.8008
 7781TIP3    H244835   5.846   2.600   3.293  1.3588  0.6026 -1.3282
 7782TIP3   OH244836   3.405   0.868   4.310 -0.0370 -0.0474 -0.0144
 7782TIP3    H144837   3.488   0.854   4.264  0.0955  0.8190 -0.0533
 7782TIP3    H244838   3.348   0.911   4.246 -0.4658 -0.4772  0.0683
 7783TIP3   OH244839   4.516   3.348  13.631 -0.4094 -0.1350 -0.2390
 7783TIP3    H144840   4.606   3.339  13.600 -0.0876 -0.0544  0.6294
 7783TIP3    H244841   4.517   3.429  13.683 -1.1023  0.1299 -0.6309
 7784TIP3   OH244842   0.839   5.782  11.368 -0.4401 -0.1798 -0.1084
 7784TIP3    H144843   0.744   5.768  11.367 -0.5442  0.3147  0.8936
 7784TIP3    H244844   0.851   5.872  11.338 -0.5105  0.5958  1.9846
 7785TIP3   OH244845   3.383   5.019  13.292  0.5010 -0.5704  1.0276
 7785TIP3    H144846   3.345   4.966  13.222 -0.4574 -0.3732  1.3732
 7785TIP3    H244847   3.332   4.996  13.370  2.6447 -2.0643  2.0835
 7786TIP3   OH244848   0.479   2.744  16.240 -0.1660  0.1200 -0.9955
 7786TIP3    H144849   0.439   2.807  16.180 -0.1482  1.8167  0.6894
 7786TIP3    H244850   0.408   2.683  16.260 -0.6558  0.5329 -1.4242
 7787TIP3   OH244851   5.161   5.088  11.274 -0.0388  0.2812 -0.2766
 7787TIP3    H144852   5.228   5.039  11.321 -0.1731  2.0142  1.8568
 7787TIP3    H244853   5.132   5.028  11.205  0.7435 -2.1016  1.3437
 7788TIP3   OH244854   1.281   2.130   0.538  0.2282  0.5225 -0.2901
 7788TIP3    H144855   1.310   2.045   0.571 -2.9763 -0.4566  0.3482
 7788TIP3    H244856   1.254   2.113   0.448 -0.4699  0.8371 -0.1488
 7789TIP3   OH244857   4.668   0.069   5.838 -0.2208 -0.3568  0.8719
 7789TIP3    H144858   4.737   0.064   5.773  0.2656  1.1235  1.2231
 7789TIP3    H244859   4.711   0.102   5.917 -0.9232 -1.4729  1.7519
 7790TIP3   OH244860   4.676   0.430   5.238 -0.2879 -0.0694  0.1886
 7790TIP3    H144861   4.647   0.339   5.233  2.5177 -1.0296 -0.1285
 7790TIP3    H244862   4.702   0.452   5.149  3.9711 -0.8378  1.0487
 7791TIP3   OH244863   0.850   4.474   3.294  0.0314  0.4553  0.1464
 7791TIP3    H144864   0.785   4.424   3.344  0.6601 -0.1988  0.3384
 7791TIP3    H244865   0.798   4.533   3.240 -0.8404 -1.3038 -1.0590
 7792TIP3   OH244866   4.076   3.349   2.511  1.2884  0.0588 -0.4742
 7792TIP3    H144867   4.152   3.293   2.492 -0.3056 -3.2327  2.0212
 7792TIP3    H244868   4.004   3.309   2.463  0.3135  0.6674  0.4440
 7793TIP3   OH244869   4.790   4.701   1.099 -0.1905 -0.1037 -0.0180
 7793TIP3    H144870   4.778   4.634   1.166 -1.9034  0.7396  0.5799
 7793TIP3    H244871   4.880   4.731   1.111  1.1550 -3.1921 -1.2287
 7794TIP3   OH244872   4.854   4.302  10.973 -0.3427  0.5988 -0.0598
 7794TIP3    H144873   4.779   4.243  10.970  0.8258 -1.0041  0.6986
 7794TIP3    H244874   4.895   4.292  10.887  1.1474 -1.5619  0.8144
 7795TIP3   OH244875   0.372   3.074  13.169 -0.3317  0.6593 -0.2480
 7795TIP3    H144876   0.435   3.015  13.127  0.0764  0.9184 -0.0142
 7795TIP3    H244877   0.392   3.160  13.132  1.2029  1.2117  1.7023
 7796TIP3   OH244878   3.900   6.254   6.362  1.0534 -0.3809 -0.4674
 7796TIP3    H144879   3.940   6.167   6.360  1.7419 -0.0762 -0.4144
 7796TIP3    H244880   3.943   6.301   6.290 -0.6605 -0.6455 -1.7193
 7797TIP3   OH244881   2.487   5.669  11.938 -0.3128 -0.1624  0.0577
 7797TIP3    H144882   2.427   5.645  11.868  0.1785 -1.5637  0.0673
 7797TIP3    H244883   2.443   5.738  11.986 -2.0822 -1.3642  0.2574
 7798TIP3   OH244884   5.741   1.348  16.918 -0.5855  0.0603 -0.1681
 7798TIP3    H144885   5.776   1.425  16.874  0.3042 -0.0461  0.3321
 7798TIP3    H244886   5.707   1.293  16.848 -1.4066  0.9744 -0.5225
 7799TIP3   OH244887   1.270   4.192  14.700  0.2274 -0.4638  0.1779
 7799TIP3    H144888   1.280   4.270  14.645  0.7495 -0.2243  0.6078
 7799TIP3    H244889   1.176   4.186  14.717  0.2646  0.5481  0.8207
 7800TIP3   OH244890   3.458   0.182  10.378  0.4304 -0.6191  0.2370
 7800TIP3    H144891   3.497   0.228  10.303 -1.5749 -0.2034 -0.6067
 7800TIP3    H244892   3.371   0.221  10.388 -0.2237 -2.2361  1.3498
 7801TIP3   OH244893   1.703   2.008  13.013 -0.0427  0.2892 -0.2607
 7801TIP3    H144894   1.688   2.101  12.997 -1.6502  0.2449  0.7097
 7801TIP3    H244895   1.619   1.976  13.046  0.1120 -1.7880 -1.7016
 7802TIP3   OH244896   3.343   4.289  12.283 -0.1905 -0.2039 -0.2382
 7802TIP3    H144897   3.284   4.256  12.351  0.9702  0.5444  1.1787
 7802TIP3    H244898   3.431   4.269  12.315  0.3775 -0.2773 -1.7706
 7803TIP3   OH244899   5.278   4.868   2.756 -0.0779  0.2282 -0.1359
 7803TIP3    H144900   5.299   4.805   2.687  1.5992 -1.3512  1.7180
 7803TIP3    H244901   5.359   4.918   2.768 -0.5077  0.8207  0.3557
 7804TIP3   OH244902   5.688   2.238   3.077  0.0101  0.3385  0.0146
 7804TIP3    H144903   5.685   2.324   3.035  1.8551  0.6883  0.5470
 7804TIP3    H244904   5.774   2.234   3.119  0.0367 -1.8461 -0.1421
 7805TIP3   OH244905   3.105   4.577   2.890 -0.1213 -0.0170  0.0161
 7805TIP3    H144906   3.013   4.560   2.869  0.2438 -0.3441 -1.3664
 7805TIP3    H244907   3.101   4.648   2.955 -1.3477 -0.0757  0.0353
 7806TIP3   OH244908   1.224   4.215   6.471 -0.2563  0.1317 -0.4823
 7806TIP3    H144909   1.305   4.193   6.517 -0.4977 -0.5460 -0.3619
 7806TIP3    H244910   1.154   4.188   6.531 -0.6022  2.3386  0.1778
 7807TIP3   OH244911   5.571   0.348  14.047 -0.1556  0.1423  0.0925
 7807TIP3    H144912   5.547   0.404  14.122  0.3639  1.1373 -0.4623
 7807TIP3    H244913   5.544   0.399  13.970  2.3388  0.6989 -0.5231
 7808TIP3   OH244914   4.233   4.273  16.382  0.2455 -0.2077 -0.6842
 7808TIP3    H144915   4.239   4.324  16.301  2.6024 -0.1557 -0.5382
 7808TIP3    H244916   4.322   4.243  16.398 -0.2058 -0.3977  1.7977
 7809TIP3   OH244917   2.962   0.235   2.295 -0.1941  0.0763  0.5721
 7809TIP3    H144918   2.958   0.153   2.245  0.6675  1.6166 -2.2329
 7809TIP3    H244919   2.955   0.304   2.229 -1.4016  2.3195  2.8741
 7810TIP3   OH244920   5.983   3.632   3.844 -0.0052 -0.8859  0.5956
 7810TIP3    H144921   6.066   3.587   3.832  0.8774  1.1854 -1.8048
 7810TIP3    H244922   6.006   3.725   3.852 -2.0099 -0.3846  1.2605
 7811TIP3   OH244923   5.709   6.452  17.147 -0.8462 -0.0242 -0.1375
 7811TIP3    H144924   5.765   6.403  17.208 -0.3788  0.6992  0.0307
 7811TIP3    H244925   5.729   6.544  17.165 -0.6690  0.2080 -1.4092
 7812TIP3   OH244926   6.055   0.252   3.408  0.5361  0.3091 -0.2320
 7812TIP3    H144927   6.022   0.328   3.456  0.9524  1.6409 -1.9428
 7812TIP3    H244928   6.146   0.245   3.436  0.9425  1.4339 -1.1897
 7813TIP3   OH244929   1.956   2.146   5.876 -0.4794  0.4655  0.0421
 7813TIP3    H144930   1.968   2.083   5.805  0.3850  0.4006  0.2354
 7813TIP3    H244931   2.044   2.178   5.895 -0.7308  0.6715  0.9166
 7814TIP3   OH244932   4.008   0.745   2.038  0.3558  0.0336 -0.5641
 7814TIP3    H144933   4.101   0.732   2.019  0.9799 -1.3837  2.7419
 7814TIP3    H244934   3.970   0.658   2.035 -0.4045  0.3343  0.0637
 7815TIP3   OH244935   3.095   3.297  11.818  0.2043  0.4144  0.3388
 7815TIP3    H144936   3.109   3.391  11.811 -1.1729  0.5430 -2.0936
 7815TIP3    H244937   3.182   3.260  11.830  1.0277  1.8867 -0.7936
 7816TIP3   OH244938   3.094   3.821   3.639 -0.3015 -0.3419 -0.1047
 7816TIP3    H144939   3.143   3.900   3.664 -1.1237  0.2310 -0.2635
 7816TIP3    H244940   3.147   3.780   3.571  0.4675 -0.2976  0.4496
 7817TIP3   OH244941   0.507   3.731   3.381  0.3436  0.3546  0.4437
 7817TIP3    H144942   0.587   3.783   3.380 -0.6464  2.0403  1.6615
 7817TIP3    H244943   0.529   3.653   3.431  1.7407 -0.2278 -0.9895
 7818TIP3   OH244944   5.534   5.614  15.488  0.0084  0.4672 -0.3916
 7818TIP3    H144945   5.566   5.536  15.534  0.7022  1.9322  1.7489
 7818TIP3    H244946   5.469   5.580  15.426 -0.5100 -1.7029  1.2126
 7819TIP3   OH244947   3.657   2.384  13.416  0.1594 -0.3873 -0.3768
 7819TIP3    H144948   3.663   2.371  13.321 -1.7760 -0.3365 -0.5295
 7819TIP3    H244949   3.566   2.408  13.431  0.3079 -0.9324  1.5729
 7820TIP3   OH244950   1.718   0.757   3.214  0.0747 -0.4554  0.1519
 7820TIP3    H144951   1.639   0.741   3.164 -0.4240 -0.3001  0.8762
 7820TIP3    H244952   1.689   0.804   3.292  0.9327 -0.0252  0.2312
 7821TIP3   OH244953   6.580   6.129  16.253  0.7978 -0.6749  0.2274
 7821TIP3    H144954   6.662   6.178  16.264  1.7837 -1.8482 -1.4318
 7821TIP3    H244955   6.605   6.038  16.267 -0.3658 -0.9938  0.2879
 7822TIP3   OH244956   1.939   2.455  12.080 -0.3513  0.1080  0.3305
 7822TIP3    H144957   1.901   2.370  12.102 -4.0257  1.0673 -1.3929
 7822TIP3    H244958   1.900   2.516  12.143  0.9531  0.7836  0.5266
 7823TIP3   OH244959   3.805   1.438   4.036 -0.2095  0.1092 -0.3352
 7823TIP3    H144960   3.747   1.373   3.996  0.0639  0.2522 -0.9790
 7823TIP3    H244961   3.846   1.482   3.961 -0.7075  1.3129  0.0780
 7824TIP3   OH244962   0.232   1.391  12.926 -0.3012  0.5253  0.1616
 7824TIP3    H144963   0.258   1.408  13.016  0.9082 -1.5985  0.2938
 7824TIP3    H244964   0.314   1.397  12.876  0.2273 -3.5658  0.1505
 7825TIP3   OH244965   3.430   5.486  16.463  0.1121  0.0937 -0.3797
 7825TIP3    H144966   3.412   5.452  16.551 -0.3626  1.2485 -0.0032
 7825TIP3    H244967   3.348   5.475  16.416 -0.4591  1.7949  0.1329
 7826TIP3   OH244968   0.248   6.717  12.177  0.6784  0.3642  0.3771
 7826TIP3    H144969   0.252   6.667  12.095  0.2696  1.7689 -0.5451
 7826TIP3    H244970   0.255   6.809  12.149 -0.8576  0.9601  1.7752
 7827TIP3   OH244971   5.464   4.461   3.856 -0.1590  0.1207  0.1613
 7827TIP3    H144972   5.444   4.367   3.861 -0.4146  0.2226  1.3622
 7827TIP3    H244973   5.380   4.504   3.867 -0.6412  0.5381 -3.7527
 7828TIP3   OH244974   1.845   1.247   4.196 -0.2243 -0.5978  0.1914
 7828TIP3    H144975   1.882   1.200   4.271 -0.8101 -0.0671  0.8260
 7828TIP3    H244976   1.847   1.183   4.124  2.0583 -0.5465  0.1304
 7829TIP3   OH244977   1.399   6.237  16.698 -0.2842 -0.1008  0.0304
 7829TIP3    H144978   1.462   6.294  16.741  0.6553 -1.3482  0.3625
 7829TIP3    H244979   1.450   6.193  16.629 -1.0768 -0.2524 -0.4701
 7830TIP3   OH244980   4.072   3.494  15.590 -0.2826 -0.7874  0.9903
 7830TIP3    H144981   4.127   3.423  15.559 -0.2138 -0.1142 -0.5365
 7830TIP3    H244982   4.129   3.571  15.591 -0.5088 -0.6229  2.0186
 7831TIP3   OH244983   3.294   5.916   2.216  0.4503  0.8512  0.7175
 7831TIP3    H144984   3.262   5.843   2.269 -1.4904 -0.2508 -1.8015
 7831TIP3    H244985   3.215   5.960   2.185  1.5020  1.5720 -1.1011
 7832TIP3   OH244986   3.484   6.619   4.453 -0.0143 -0.0637  0.3270
 7832TIP3    H144987   3.457   6.709   4.468  0.8694  0.0848  1.1221
 7832TIP3    H244988   3.516   6.589   4.539  0.5099 -0.8447 -0.1332
 7833TIP3   OH244989   1.020   6.263  11.044 -0.6324  0.2975 -0.1651
 7833TIP3    H144990   1.101   6.293  11.002  0.4831 -1.1745  0.8752
 7833TIP3    H244991   0.962   6.339  11.039  0.1057  0.8033 -2.6172
 7834TIP3   OH244992   1.307   6.166  14.573  0.8691  0.0645 -0.1316
 7834TIP3    H144993   1.360   6.203  14.502 -1.3888 -0.0774 -1.9922
 7834TIP3    H244994   1.271   6.086  14.537 -1.4393  0.6809  0.6421
 7835TIP3   OH244995   4.000   6.141  13.895  0.2601 -0.0516 -0.1632
 7835TIP3    H144996   3.919   6.186  13.870 -0.2198 -1.0469 -0.4551
 7835TIP3    H244997   4.058   6.211  13.927 -0.0184  0.9385 -1.7166
 7836TIP3   OH244998   0.278   4.415  16.746  0.0924  0.1630  0.4338
 7836TIP3    H144999   0.217   4.350  16.710  1.2970 -0.3919 -0.6693
 7836TIP3    H245000   0.342   4.364  16.794  1.5496  0.4168 -1.1630
 7837TIP3   OH245001   4.441   2.608  16.496 -0.6506 -0.0782 -0.1755
 7837TIP3    H145002   4.428   2.608  16.402  0.3558  2.8681 -0.4023
 7837TIP3    H245003   4.518   2.553  16.510  0.7240  1.4563 -1.4018
 7838TIP3   OH245004   2.425   3.912  14.653 -0.6889 -0.6535 -0.4693
 7838TIP3    H145005   2.362   3.983  14.664 -0.0440  0.1060 -1.4871
 7838TIP3    H245006   2.391   3.862  14.579 -1.1328 -1.4221  0.2350
 7839TIP3   OH245007   2.834   0.193   3.175 -0.5252  0.5169  0.3014
 7839TIP3    H145008   2.824   0.114   3.229 -1.5142 -1.9875 -3.1974
 7839TIP3    H245009   2.747   0.233   3.175 -1.6043 -1.5542 -2.1350
 7840TIP3   OH245010   6.586   0.036  16.115  0.3177  0.4059  0.2000
 7840TIP3    H145011   6.681   0.029  16.109  0.3061  0.9118 -0.7248
 7840TIP3    H245012   6.571   0.120  16.159  0.3024  0.2799  0.4352
 7841TIP3   OH245013   1.290   3.724  13.394  0.3097  0.2186 -0.0559
 7841TIP3    H145014   1.376   3.738  13.434  0.7706 -1.4719 -0.3736
 7841TIP3    H245015   1.273   3.631  13.406 -0.7352  0.1995 -1.4875
 7842TIP3   OH245016   1.007   6.301  11.942  0.0734 -0.0550  0.2485
 7842TIP3    H145017   1.041   6.242  12.009  0.7067  0.0047 -0.0069
 7842TIP3    H245018   0.967   6.244  11.877  2.0312 -0.3697 -0.7710
 7843TIP3   OH245019   0.019   3.751   1.332  0.0496  0.1621 -0.7835
 7843TIP3    H145020   0.008   3.713   1.245  0.1572  0.2882 -0.8524
 7843TIP3    H245021  -0.054   3.811   1.342  1.4573  2.2016 -1.8695
 7844TIP3   OH245022   4.291   0.913   0.577  0.4803 -0.5081  0.0346
 7844TIP3    H145023   4.239   0.933   0.499  0.3662  0.3182  0.3028
 7844TIP3    H245024   4.252   0.969   0.645  0.0596 -1.8010  0.8878
 7845TIP3   OH245025   2.655   6.767   6.486 -0.4927  0.4863  0.1759
 7845TIP3    H145026   2.742   6.807   6.491 -0.1083 -0.1742 -0.8073
 7845TIP3    H245027   2.617   6.804   6.406  0.1973 -1.6534 -1.2272
 7846TIP3   OH245028   1.132   0.694   5.012 -0.1593  0.3151  0.7611
 7846TIP3    H145029   1.077   0.687   4.935 -0.1556  0.8268  0.7094
 7846TIP3    H245030   1.154   0.787   5.018  0.9668  0.0738  0.5918
 7847TIP3   OH245031   4.389   4.671  13.625  0.1652 -0.4547  0.0066
 7847TIP3    H145032   4.475   4.630  13.618  0.9101  0.9726  0.3535
 7847TIP3    H245033   4.328   4.604  13.593  1.1634 -2.2444  1.6141
 7848TIP3   OH245034   0.457   6.651   1.240  0.4716 -0.1223  0.0764
 7848TIP3    H145035   0.505   6.571   1.262  0.3145  0.1060  1.3198
 7848TIP3    H245036   0.490   6.676   1.154  1.4903 -0.7877  0.2604
 7849TIP3   OH245037   3.276   6.104  12.951 -0.3261  0.4122 -0.2994
 7849TIP3    H145038   3.204   6.117  13.013 -1.1454  1.1592 -1.3594
 7849TIP3    H245039   3.331   6.182  12.961  0.1968 -0.0212  0.3026
 7850TIP3   OH245040   0.162   2.598   1.508  0.1352 -0.4233  0.5295
 7850TIP3    H145041   0.219   2.666   1.543 -0.0080 -0.1388  0.2193
 7850TIP3    H245042   0.078   2.642   1.494  0.4418 -0.2628 -1.0722
 7851TIP3   OH245043   0.522   2.568   1.430 -0.7374 -0.5121  0.1144
 7851TIP3    H145044   0.507   2.603   1.342 -3.2222  0.6256  0.9110
 7851TIP3    H245045   0.481   2.482   1.429  3.2615 -2.6859 -1.0948
 7852TIP3   OH245046   2.244   0.805   0.190  0.1515  0.0471 -1.1458
 7852TIP3    H145047   2.150   0.807   0.208  0.4391  0.1226  0.5039
 7852TIP3    H245048   2.267   0.712   0.194  0.5719  0.2019  1.0722
 7853TIP3   OH245049   6.774   2.179  15.887 -0.2882  0.1017  0.3508
 7853TIP3    H145050   6.746   2.123  15.815 -1.7908  1.1478  0.0935
 7853TIP3    H245051   6.770   2.268  15.853 -2.3616  0.7522  2.0668
 7854TIP3   OH245052   4.433   2.362  14.207  0.0096 -0.2194  0.5657
 7854TIP3    H145053   4.473   2.313  14.135 -2.1250 -2.4696  0.7743
 7854TIP3    H245054   4.349   2.392  14.172 -0.4262 -0.0934  1.6961
 7855TIP3   OH245055   5.052   6.823   4.710 -0.3625  0.0326  0.4522
 7855TIP3    H145056   5.144   6.852   4.706  0.4970 -2.5290 -0.1206
 7855TIP3    H245057   5.007   6.895   4.754  1.6567  1.9556 -0.3940
 7856TIP3   OH245058   3.332   3.444   3.518  0.1667 -0.0099 -0.3427
 7856TIP3    H145059   3.367   3.505   3.583  0.4889  0.5465 -1.0168
 7856TIP3    H245060   3.390   3.455   3.442 -0.0762 -0.7942 -0.6485
 7857TIP3   OH245061   0.367   6.379  12.065  0.3056 -0.1313 -0.2345
 7857TIP3    H145062   0.294   6.434  12.038 -0.6012 -0.7437  0.9005
 7857TIP3    H245063   0.346   6.292  12.032 -0.5913 -0.7934  1.9108
 7858TIP3   OH245064   3.144   4.871  16.112  0.3158 -0.1730  0.2813
 7858TIP3    H145065   3.196   4.849  16.189  1.2591 -2.2774 -0.8716
 7858TIP3    H245066   3.205   4.862  16.039 -0.4732  2.0707 -0.7341
 7859TIP3   OH245067   6.709   5.393   3.435 -0.3735  0.1552  0.3676
 7859TIP3    H145068   6.731   5.376   3.527  1.0698  1.9183  0.3867
 7859TIP3    H245069   6.618   5.424   3.438 -0.0662  1.0111  1.3122
 7860TIP3   OH245070   4.270   1.996   6.642  0.0972  0.2479 -0.2360
 7860TIP3    H145071   4.318   2.035   6.569  0.2967 -0.8479 -0.7199
 7860TIP3    H245072   4.244   2.070   6.697  3.0689  0.8607  0.5162
 7861TIP3   OH245073   3.757   0.558  13.921  0.3121 -0.4714  0.1388
 7861TIP3    H145074   3.709   0.638  13.942  1.4903  0.5519 -0.9279
 7861TIP3    H245075   3.692   0.488  13.932 -0.6164  0.5494  1.5681
 7862TIP3   OH245076   1.626   5.986   5.631  0.3167 -0.3558  0.2725
 7862TIP3    H145077   1.647   5.908   5.580 -0.0604 -0.5021  0.3392
 7862TIP3    H245078   1.531   5.983   5.643  0.3418 -0.0752  0.5780
 7863TIP3   OH245079   5.172   5.159  16.003 -0.3869 -0.0337  0.6123
 7863TIP3    H145080   5.262   5.188  16.014 -0.4932  0.5974 -0.0648
 7863TIP3    H245081   5.174   5.065  16.021  0.1269  0.2289  2.0445
 7864TIP3   OH245082   0.982   5.919  13.038  0.0827  0.8455 -0.2658
 7864TIP3    H145083   0.992   5.973  13.117  0.1559 -0.3043  0.5317
 7864TIP3    H245084   1.072   5.900  13.011  0.0574  0.7312 -0.2700
 7865TIP3   OH245085   4.347   5.442   0.423 -0.2312  0.7961  0.4215
 7865TIP3    H145086   4.379   5.509   0.362  0.4979  0.2088  0.1470
 7865TIP3    H245087   4.412   5.439   0.493 -0.5465  0.7548  0.7191
 7866TIP3   OH245088   5.271   1.092   0.632  0.1357  0.3538 -0.0191
 7866TIP3    H145089   5.310   1.102   0.718  1.4709  0.6199 -0.6232
 7866TIP3    H245090   5.311   1.013   0.596 -1.1116 -0.2882 -0.0507
 7867TIP3   OH245091   5.817   6.050  11.409  0.0846 -0.1631 -0.4218
 7867TIP3    H145092   5.746   5.986  11.412 -0.4893  0.4693  1.3618
 7867TIP3    H245093   5.800   6.101  11.330 -1.1660 -0.3503 -0.3031
 7868TIP3   OH245094   0.513   4.972  15.492  0.0643  0.9476 -0.5444
 7868TIP3    H145095   0.592   4.997  15.539 -1.3346  1.9646  1.3855
 7868TIP3    H245096   0.473   5.055  15.466  0.1235  0.4339 -2.4751
 7869TIP3   OH245097   3.215   1.099  16.244  0.1898 -0.9527  0.3048
 7869TIP3    H145098   3.207   1.083  16.150 -1.3795 -1.1491  0.4336
 7869TIP3    H245099   3.182   1.018  16.284 -3.2428  0.6022  0.9689
 7870TIP3   OH245100   0.242   0.616   5.616 -0.0305  0.1026 -0.6031
 7870TIP3    H145101   0.331   0.610   5.582  0.7726  5.4792 -0.2881
 7870TIP3    H245102   0.253   0.626   5.711 -0.6894  2.4613 -0.7112
 7871TIP3   OH245103   2.725   4.243   3.360  0.4199 -0.0017  0.2754
 7871TIP3    H145104   2.750   4.250   3.452 -0.4644  1.0238  0.4598
 7871TIP3    H245105   2.632   4.220   3.362  0.5415 -0.5732 -0.3708
 7872TIP3   OH245106   0.990   0.593   0.247 -0.1717  0.4547  0.4395
 7872TIP3    H145107   1.017   0.565   0.159 -0.2982  0.6100  0.3508
 7872TIP3    H245108   1.051   0.549   0.306 -1.4064 -1.3724  0.4263
 7873TIP3   OH245109   1.027   1.810  13.903 -0.3356 -0.5568 -0.0832
 7873TIP3    H145110   1.011   1.903  13.914 -3.4513 -0.7947 -1.4899
 7873TIP3    H245111   1.072   1.784  13.983  0.5111  2.1055  0.3971
 7874TIP3   OH245112   6.804   2.724   4.474 -0.1074 -0.1133 -0.1134
 7874TIP3    H145113   6.860   2.785   4.522  1.4685 -2.1621  0.8198
 7874TIP3    H245114   6.838   2.726   4.384 -2.3521  2.8929 -1.0679
 7875TIP3   OH245115   4.443   4.047  12.618 -0.5947 -0.2590  0.1464
 7875TIP3    H145116   4.423   4.137  12.591 -3.3756 -0.6632  0.5554
 7875TIP3    H245117   4.358   4.009  12.640  0.5869 -2.7683  0.7613
 7876TIP3   OH245118   6.691   0.674  17.059  0.0552  0.5051  0.3784
 7876TIP3    H145119   6.787   0.671  17.054  0.0714  2.1214 -2.5671
 7876TIP3    H245120   6.672   0.764  17.085 -0.6563  0.5501 -0.2796
 7877TIP3   OH245121   0.229   5.894  16.820 -0.3476  0.4696 -0.3791
 7877TIP3    H145122   0.211   5.808  16.783 -1.1714  0.4024  0.1630
 7877TIP3    H245123   0.215   5.884  16.914 -3.6569  1.9196 -0.5617
 7878TIP3   OH245124   2.297   2.512  15.742  0.4990  0.0068 -0.2428
 7878TIP3    H145125   2.264   2.424  15.729  1.2151 -0.2682 -0.2237
 7878TIP3    H245126   2.391   2.501  15.760  0.7850  0.8344 -1.1466
 7879TIP3   OH245127   2.180   2.702  15.913  0.4701  0.8884 -0.0108
 7879TIP3    H145128   2.202   2.660  15.996  0.8334  1.2738  0.0956
 7879TIP3    H245129   2.206   2.639  15.846  0.5467  0.7406  0.1572
 7880TIP3   OH245130   0.315   1.993  13.384  1.0184  0.0393 -0.0897
 7880TIP3    H145131   0.313   1.964  13.475  4.0193 -1.2562 -0.3330
 7880TIP3    H245132   0.323   1.913  13.332 -1.7211  0.6566 -1.6764
 7881TIP3   OH245133   1.979   2.777  12.719  0.3458 -0.7437  0.3825
 7881TIP3    H145134   1.914   2.812  12.659  1.5307  2.7667  0.9059
 7881TIP3    H245135   2.028   2.713  12.668 -0.9627 -0.5234 -1.2140
 7882TIP3   OH245136   0.273   6.202  16.566 -0.2457 -0.2358 -0.0673
 7882TIP3    H145137   0.270   6.183  16.659 -3.7827  0.1840  0.0625
 7882TIP3    H245138   0.249   6.120  16.523 -1.9566  0.3579 -0.3305
 7883TIP3   OH245139   3.582   6.251  16.431  0.4466 -0.5133  0.0011
 7883TIP3    H145140   3.614   6.186  16.493 -0.9033 -1.6969 -0.4893
 7883TIP3    H245141   3.659   6.305  16.412  1.7947 -2.3137 -0.0171
 7884TIP3   OH245142   3.291   3.638  14.919  0.2484  0.2781 -0.0212
 7884TIP3    H145143   3.319   3.622  15.010  1.7781  0.8828 -0.3584
 7884TIP3    H245144   3.367   3.614  14.866 -1.2274 -1.8740 -1.3239
 7885TIP3   OH245145   0.096   1.976   0.442  0.2427 -0.0383 -0.4436
 7885TIP3    H145146   0.067   2.061   0.410 -1.6187 -0.6411 -0.5059
 7885TIP3    H245147   0.164   1.948   0.381  0.7606  1.3073 -0.5152
 7886TIP3   OH245148   5.182   2.781  12.787 -0.3882 -1.0467  0.6344
 7886TIP3    H145149   5.245   2.710  12.775  0.4799 -0.7712  3.0226
 7886TIP3    H245150   5.200   2.814  12.875 -2.4211  0.5139  0.5308
 7887TIP3   OH245151   6.122   4.989  12.858  0.2872  0.5247  0.6098
 7887TIP3    H145152   6.209   5.015  12.827 -0.0537  0.1466 -0.7186
 7887TIP3    H245153   6.102   4.909  12.809 -2.2436  2.4515 -1.7551
 7888TIP3   OH245154   2.561   0.130  16.831  0.2978 -0.1813 -0.4747
 7888TIP3    H145155   2.651   0.133  16.799  0.0198 -0.6400 -1.3079
 7888TIP3    H245156   2.537   0.223  16.841  0.2713 -0.0014 -1.9639
 7889TIP3   OH245157   4.938   3.063  11.193  0.0182 -0.3746  0.2924
 7889TIP3    H145158   4.894   3.051  11.277 -1.2413  2.1584  0.1186
 7889TIP3    H245159   5.030   3.045  11.210 -0.3807 -0.9291  1.9528
 7890TIP3   OH245160   2.366   1.143  12.342 -0.2931  0.0931 -0.3510
 7890TIP3    H145161   2.372   1.053  12.311 -1.3089 -0.0484 -0.1722
 7890TIP3    H245162   2.285   1.146  12.392  0.4735  0.7504  0.8951
 7891TIP3   OH245163   6.337   3.672  16.902 -0.2021  0.3736  0.2929
 7891TIP3    H145164   6.331   3.725  16.822  0.2495  2.7282  1.7254
 7891TIP3    H245165   6.431   3.663  16.916 -0.2298 -2.0950 -0.6506
 7892TIP3   OH245166   6.772   6.533  15.873 -0.1861 -0.0235  0.2373
 7892TIP3    H145167   6.725   6.599  15.823  0.2628  0.9175  1.0274
 7892TIP3    H245168   6.706   6.493  15.930 -0.3179  0.2593  0.2813
 7893TIP3   OH245169   5.096   4.788  11.883  0.3922 -0.1566 -0.4314
 7893TIP3    H145170   5.186   4.803  11.913  0.0066  0.7879  0.3110
 7893TIP3    H245171   5.081   4.858  11.819  0.3990 -0.7032 -1.0330
 7894TIP3   OH245172   1.063   4.854   2.804 -0.7804 -0.2808  0.7756
 7894TIP3    H145173   1.148   4.837   2.763  0.0307  1.2185  1.7243
 7894TIP3    H245174   1.029   4.768   2.825  0.2075 -0.9376 -0.2038
 7895TIP3   OH245175   4.024   0.591   3.197  0.2403  0.2385 -0.0601
 7895TIP3    H145176   4.095   0.529   3.182  1.5809  1.6215  0.2464
 7895TIP3    H245177   3.999   0.578   3.288 -0.1091 -0.4598 -0.2552
 7896TIP3   OH245178   6.066   5.411   6.104  0.2526 -0.3182 -0.4587
 7896TIP3    H145179   6.047   5.481   6.043 -0.2497 -0.7840 -0.8438
 7896TIP3    H245180   6.030   5.441   6.188  0.0709 -0.1046 -0.6141
 7897TIP3   OH245181   6.107   4.963  16.279 -0.0862  0.0512  0.8544
 7897TIP3    H145182   6.098   4.990  16.371 -1.5537  0.0777  0.7193
 7897TIP3    H245183   6.140   4.873  16.283  0.8529  0.4083  1.3776
 7898TIP3   OH245184   1.890   1.475   1.977  0.6534 -0.0447  0.2829
 7898TIP3    H145185   1.845   1.462   1.894 -1.2181  0.7588  1.1070
 7898TIP3    H245186   1.909   1.387   2.009 -1.6958 -0.5086  0.5658
 7899TIP3   OH245187   2.515   0.047   4.944  0.7551 -0.2223 -0.1242
 7899TIP3    H145188   2.547   0.136   4.928 -1.7843  0.8902  0.4484
 7899TIP3    H245189   2.471   0.052   5.029  0.3066 -1.9757 -0.2105
 7900TIP3   OH245190   2.758   0.382   2.027  0.1302 -0.6127  0.2690
 7900TIP3    H145191   2.671   0.381   2.066 -0.9829  0.0749 -2.0297
 7900TIP3    H245192   2.750   0.328   1.949  1.5625  0.0694 -0.3933
 7901TIP3   OH245193   5.412   6.787   0.486  0.4383  0.4946 -0.2209
 7901TIP3    H145194   5.432   6.788   0.393  2.8558  0.3370  0.2403
 7901TIP3    H245195   5.334   6.732   0.493  0.1154  0.6379 -2.1398
 7902TIP3   OH245196   0.203   4.840  14.576 -0.4056  0.3690 -0.0759
 7902TIP3    H145197   0.217   4.745  14.576 -0.3523  0.3758  0.1065
 7902TIP3    H245198   0.231   4.869  14.489  2.1895  0.6015  0.7505
 7903TIP3   OH245199   5.087   4.210   1.924 -0.0907 -0.0880  0.2466
 7903TIP3    H145200   5.045   4.295   1.912  0.9244  0.3376 -0.4614
 7903TIP3    H245201   5.019   4.146   1.901 -0.1199  0.6049 -1.7589
 7904TIP3   OH245202   2.077   2.506   1.849  0.1287  0.4320  0.7775
 7904TIP3    H145203   1.992   2.463   1.861  0.2725 -0.0443  0.1565
 7904TIP3    H245204   2.067   2.592   1.889 -1.0082  0.8164 -0.2670
 7905TIP3   OH245205   1.539   5.592  14.844 -0.5362  0.1808  0.3993
 7905TIP3    H145206   1.624   5.613  14.881  0.1900 -0.7705 -0.6854
 7905TIP3    H245207   1.483   5.665  14.871  1.0962  1.8700 -0.5321
 7906TIP3   OH245208   6.534   0.497   1.539 -0.0152  0.1655 -0.6468
 7906TIP3    H145209   6.497   0.585   1.544 -0.7929 -0.2297  1.3049
 7906TIP3    H245210   6.491   0.457   1.463 -3.3709 -0.1014  1.2071
 7907TIP3   OH245211   0.107   4.613   1.406 -0.1887  0.1717  0.1191
 7907TIP3    H145212   0.151   4.531   1.428 -0.0891 -0.3530 -1.8364
 7907TIP3    H245213   0.177   4.679   1.409 -0.2688  0.2110  1.6911
 7908TIP3   OH245214   4.327   4.759  11.405 -0.0649  0.0587  0.1934
 7908TIP3    H145215   4.329   4.743  11.311  2.2806 -0.3043  0.2296
 7908TIP3    H245216   4.236   4.743  11.431 -1.2482  2.1367 -2.2680
 7909TIP3   OH245217   2.274   4.480   3.354  0.1618 -0.2013 -0.5688
 7909TIP3    H145218   2.347   4.496   3.294 -0.5360 -0.6255 -1.5561
 7909TIP3    H245219   2.241   4.394   3.328  0.8953 -1.2010  1.5453
 7910TIP3   OH245220   0.989   4.028   5.042 -0.5465  0.0399  0.2008
 7910TIP3    H145221   0.981   4.039   5.137  0.6699 -2.2170  0.6272
 7910TIP3    H245222   1.083   4.018   5.027 -0.7710 -0.1493 -1.1798
 7911TIP3   OH245223   3.609   3.188  12.812 -0.0361  0.3589 -0.0800
 7911TIP3    H145224   3.649   3.140  12.884  0.3172  0.1955 -0.3845
 7911TIP3    H245225   3.675   3.189  12.743 -0.0535  1.2386 -0.0968
 7912TIP3   OH245226   1.142   1.008  15.303 -0.0913 -0.7337 -0.0720
 7912TIP3    H145227   1.121   0.984  15.213  3.8020 -0.3973 -1.2351
 7912TIP3    H245228   1.234   1.034  15.301 -0.2161  0.7402  3.7626
 7913TIP3   OH245229   3.895   0.020  11.393 -0.2160  0.0906  0.0421
 7913TIP3    H145230   3.982   0.058  11.392  0.1405 -0.7077 -1.4297
 7913TIP3    H245231   3.872   0.015  11.486  0.9493  1.0796  0.3985
 7914TIP3   OH245232   0.312   3.593  16.495 -0.1024 -0.0318  0.0302
 7914TIP3    H145233   0.231   3.644  16.488 -0.1825 -0.0788  0.5470
 7914TIP3    H245234   0.382   3.656  16.484 -0.2062 -0.0631 -0.8975
 7915TIP3   OH245235   6.233   2.179  12.366 -0.7783 -0.2915  0.1855
 7915TIP3    H145236   6.285   2.100  12.356 -0.2061 -0.2736  2.5174
 7915TIP3    H245237   6.147   2.148  12.394 -1.1669 -0.1668 -0.8320
 7916TIP3   OH245238   4.686   3.742  16.331  0.4571  0.1091  0.2029
 7916TIP3    H145239   4.759   3.779  16.281  3.0747 -0.5046  3.2396
 7916TIP3    H245240   4.698   3.647  16.325  1.1494  0.0245  2.2870
 7917TIP3   OH245241   0.802   2.886   4.645 -0.1898 -0.1817  0.0805
 7917TIP3    H145242   0.782   2.856   4.733  0.0005 -1.9267 -0.4344
 7917TIP3    H245243   0.719   2.882   4.598 -0.9859  3.5428  0.8334
 7918TIP3   OH245244   1.768   3.196   5.467  0.1731  0.1289 -0.3742
 7918TIP3    H145245   1.814   3.267   5.512  0.1077 -0.3553  0.4798
 7918TIP3    H245246   1.751   3.132   5.535 -0.8641 -0.1605 -0.8876
 7919TIP3   OH245247   0.501   4.336   4.867  0.6488  0.7187  0.1168
 7919TIP3    H145248   0.545   4.317   4.784  0.7241 -0.4580  0.4056
 7919TIP3    H245249   0.541   4.275   4.929 -0.1261  0.8904  0.7945
 7920TIP3   OH245250   4.224   4.021   0.634  0.8975  0.3928  0.2236
 7920TIP3    H145251   4.282   3.967   0.688 -1.0147 -2.5555 -0.4318
 7920TIP3    H245252   4.250   4.111   0.653  2.2382 -0.5995  3.7874
 7921TIP3   OH245253   0.575   3.374   1.461  0.2685  0.1143  0.7922
 7921TIP3    H145254   0.497   3.414   1.422 -0.4147 -1.2366  0.7141
 7921TIP3    H245255   0.646   3.392   1.400 -0.4409 -0.5049 -0.2300
 7922TIP3   OH245256   4.283   2.465   2.146  0.2110 -0.1438  0.5594
 7922TIP3    H145257   4.321   2.379   2.163 -0.2341 -0.1739  1.4441
 7922TIP3    H245258   4.189   2.452   2.154  0.1552  0.4833  1.0270
 7923TIP3   OH245259   0.233   4.560  13.210 -0.1381  0.6872 -1.0257
 7923TIP3    H145260   0.183   4.597  13.137  0.2880 -0.2115 -1.7903
 7923TIP3    H245261   0.231   4.466  13.196 -0.5144  0.4531  0.4497
 7924TIP3   OH245262   4.052   4.627  14.608 -0.7571  0.4698  0.3405
 7924TIP3    H145263   4.013   4.701  14.654 -0.1933  0.7486  0.3805
 7924TIP3    H245264   4.022   4.550  14.655 -2.5845  0.5640 -0.5933
 7925TIP3   OH245265   0.297   1.922   4.724 -0.7258  0.0296 -0.0155
 7925TIP3    H145266   0.249   1.991   4.770 -0.9160  0.8962 -1.4215
 7925TIP3    H245267   0.230   1.872   4.679 -0.5041 -0.4128  0.1445
 7926TIP3   OH245268   3.244   6.694  12.290 -0.4861  0.1123 -0.7057
 7926TIP3    H145269   3.244   6.602  12.263 -1.5425 -0.4157  0.9537
 7926TIP3    H245270   3.303   6.698  12.365 -1.2465  0.5557 -0.1152
 7927TIP3   OH245271   3.788   3.989  15.841  0.0744  0.1841  0.1555
 7927TIP3    H145272   3.753   4.075  15.863 -1.8333 -0.8040  1.1639
 7927TIP3    H245273   3.807   3.948  15.926  0.7385 -0.4845 -0.3017
 7928TIP3   OH245274   1.236   0.314  16.781  0.4741 -0.1611 -0.1789
 7928TIP3    H145275   1.222   0.247  16.714  0.7861  0.3680 -0.7953
 7928TIP3    H245276   1.239   0.396  16.731 -0.5602  0.3874  0.6318
 7929TIP3   OH245277   4.074   6.690   4.287  0.3868  0.6952  0.0503
 7929TIP3    H145278   4.103   6.641   4.210 -0.2618  1.7797 -0.9188
 7929TIP3    H245279   3.985   6.719   4.265  0.4775  1.6774  0.8862
 7930TIP3   OH245280   1.319   1.183  16.656 -0.2785  0.2179 -0.1864
 7930TIP3    H145281   1.258   1.248  16.621 -2.0711  0.5795  3.1682
 7930TIP3    H245282   1.386   1.236  16.701  1.4227 -0.2394 -2.0478
 7931TIP3   OH245283   5.307   2.702   2.963 -0.3885 -0.0042 -0.0512
 7931TIP3    H145284   5.348   2.712   3.049 -1.6154 -1.3621  0.7424
 7931TIP3    H245285   5.225   2.753   2.970 -0.8764 -0.7672 -0.1210
 7932TIP3   OH245286   0.934   2.180   5.068 -0.2545  0.0343  0.3284
 7932TIP3    H145287   0.899   2.208   5.153  1.1742  3.6113 -0.1119
 7932TIP3    H245288   1.025   2.158   5.085  0.2018  1.3276 -0.3186
 7933TIP3   OH245289   1.383   3.150   0.182 -0.2719  0.5593 -0.2607
 7933TIP3    H145290   1.360   3.211   0.253 -0.6300 -0.2863  0.3655
 7933TIP3    H245291   1.476   3.133   0.195 -0.9227 -1.9494  1.9359
 7934TIP3   OH245292   5.186   1.109  12.646 -0.2777  0.4583 -0.5446
 7934TIP3    H145293   5.186   1.036  12.707 -0.0935  1.2311  0.3969
 7934TIP3    H245294   5.235   1.178  12.690  2.1098  0.2237 -2.5824
 7935TIP3   OH245295   5.402   6.709   1.312 -0.0821 -0.0708 -0.4312
 7935TIP3    H145296   5.456   6.652   1.257 -0.0314 -0.1294 -0.3214
 7935TIP3    H245297   5.462   6.777   1.343  0.2777 -0.9343  0.8547
 7936TIP3   OH245298   6.144   5.228  11.733 -0.4323 -0.3688  0.0293
 7936TIP3    H145299   6.147   5.238  11.828  0.4443  0.6821 -0.0798
 7936TIP3    H245300   6.143   5.318  11.699 -1.5945 -0.7201 -0.9513
 7937TIP3   OH245301   2.050   2.023   1.328  0.7686  0.7085 -0.1318
 7937TIP3    H145302   1.996   1.971   1.388 -1.2477  0.3727 -2.1000
 7937TIP3    H245303   2.122   1.965   1.304 -0.0622 -0.2939 -0.3092
 7938TIP3   OH245304   4.572   4.099   0.623  0.1645 -0.4050 -0.4515
 7938TIP3    H145305   4.551   4.029   0.685  1.1439  0.1456  0.5401
 7938TIP3    H245306   4.566   4.057   0.537  2.2581 -2.1574  0.1711
 7939TIP3   OH245307   3.640   3.774   5.202 -0.5683 -0.4391  0.2854
 7939TIP3    H145308   3.560   3.730   5.176 -1.2618  0.1163  1.3822
 7939TIP3    H245309   3.642   3.765   5.298  0.5733 -0.2727  0.2906
 7940TIP3   OH245310   3.904   4.273   3.383  0.4537 -0.6283  0.8696
 7940TIP3    H145311   3.929   4.361   3.411 -1.7685  0.4595 -0.3130
 7940TIP3    H245312   3.814   4.282   3.352  0.9472 -2.8168 -1.5714
 7941TIP3   OH245313   3.331   4.005  15.759  0.5313 -0.3136  0.5627
 7941TIP3    H145314   3.310   3.920  15.797 -1.2380 -0.0530  0.2631
 7941TIP3    H245315   3.316   3.993  15.665  1.6458 -0.0376  0.3323
 7942TIP3   OH245316   1.785   1.496  11.218 -0.1521 -0.5077  0.0309
 7942TIP3    H145317   1.869   1.503  11.172 -0.1120  0.2864  0.2188
 7942TIP3    H245318   1.803   1.435  11.289  0.6325  0.6556  0.8660
 7943TIP3   OH245319   6.247   2.716  11.598 -0.7539 -0.8832  0.2509
 7943TIP3    H145320   6.293   2.675  11.525 -0.1161  0.1422  0.0467
 7943TIP3    H245321   6.303   2.702  11.674 -0.7419 -0.7647  0.2651
 7944TIP3   OH245322   4.147   5.534  16.401 -0.5499  0.3953 -0.2384
 7944TIP3    H145323   4.231   5.580  16.396 -0.6065  0.3851 -2.1276
 7944TIP3    H245324   4.155   5.476  16.477  0.4074  1.7773  0.7568
 7945TIP3   OH245325   6.656   1.739  14.550 -0.1642  0.0347  0.4961
 7945TIP3    H145326   6.663   1.649  14.583 -1.4502 -0.3590 -0.2526
 7945TIP3    H245327   6.677   1.733  14.457 -1.2988  0.3134  0.2079
 7946TIP3   OH245328   4.342   2.295  11.252 -0.6336  0.4861  0.3766
 7946TIP3    H145329   4.327   2.206  11.220 -0.5368  0.3522  0.7001
 7946TIP3    H245330   4.287   2.350  11.196  2.2573  0.7141 -2.5413
 7947TIP3   OH245331   5.741   4.833   4.689 -0.2600 -0.0770  0.0433
 7947TIP3    H145332   5.751   4.756   4.744  1.5417  0.8672  1.1335
 7947TIP3    H245333   5.661   4.875   4.720 -0.4627 -0.7391  0.4277
 7948TIP3   OH245334   1.573   6.326   0.406 -0.2594  0.3007 -0.0947
 7948TIP3    H145335   1.610   6.411   0.427 -0.1646  0.0987  0.5754
 7948TIP3    H245336   1.648   6.274   0.376 -0.3279  0.4725 -0.5622
 7949TIP3   OH245337   1.778   1.898   4.623  0.4920 -0.5601  0.9830
 7949TIP3    H145338   1.763   1.930   4.712 -0.9209  0.6377  0.3417
 7949TIP3    H245339   1.768   1.975   4.567  0.9734 -1.3657 -0.2627
 7950TIP3   OH245340   3.123   2.253   4.823  0.0542 -0.5238 -0.2890
 7950TIP3    H145341   3.029   2.270   4.816  0.4058  1.6696 -0.3527
 7950TIP3    H245342   3.141   2.256   4.917  0.4968  2.1158 -0.3908
 7951TIP3   OH245343   3.380   2.636  12.896 -0.4970  0.3250  0.1892
 7951TIP3    H145344   3.413   2.710  12.845  0.5245  0.4796  1.0417
 7951TIP3    H245345   3.285   2.641  12.886 -0.4697  1.8895  0.3965
 7952TIP3   OH245346   2.211   0.874  13.169  0.2450 -0.3392 -0.0758
 7952TIP3    H145347   2.161   0.793  13.177  0.0744 -0.3019 -0.7246
 7952TIP3    H245348   2.301   0.848  13.188  0.3556 -0.8917 -1.3025
 7953TIP3   OH245349   3.135   6.310  16.137  0.5949  0.4220  0.1333
 7953TIP3    H145350   3.149   6.220  16.107 -0.4789  0.6265 -1.1120
 7953TIP3    H245351   3.050   6.307  16.182  1.3572  0.4934  1.6493
 7954TIP3   OH245352   6.238   2.676  12.651  0.4201 -0.0946 -0.4889
 7954TIP3    H145353   6.324   2.634  12.649  0.1679 -0.9193  2.2730
 7954TIP3    H245354   6.208   2.665  12.741 -2.5069  0.3663 -1.3154
 7955TIP3   OH245355   2.397   4.286   6.660  0.3569 -0.0166 -0.7841
 7955TIP3    H145356   2.314   4.332   6.672  1.4568  2.0623 -0.6712
 7955TIP3    H245357   2.432   4.276   6.748  1.4706  1.6584 -0.9853
 7956TIP3   OH245358   1.479   4.311  11.936 -0.5738 -0.5619 -0.2853
 7956TIP3    H145359   1.425   4.234  11.916  1.2176 -1.6920 -0.9688
 7956TIP3    H245360   1.525   4.287  12.017 -0.9073  0.3103  0.1752
 7957TIP3   OH245361   5.586   4.518   2.238  0.3599  0.4010 -0.7177
 7957TIP3    H145362   5.562   4.435   2.197  1.2237  0.2374 -0.8972
 7957TIP3    H245363   5.681   4.519   2.239  0.3876  1.9279 -1.7941
 7958TIP3   OH245364   5.557   6.033  16.345  0.6176  0.2225  0.2826
 7958TIP3    H145365   5.538   5.956  16.399  1.3475 -1.6351 -1.9693
 7958TIP3    H245366   5.476   6.083  16.346 -0.5897 -1.6222  0.2071
 7959TIP3   OH245367   6.542   5.377   1.459 -0.0840 -0.2199  0.3095
 7959TIP3    H145368   6.632   5.360   1.487  0.9091  3.3281 -0.2853
 7959TIP3    H245369   6.495   5.400   1.539  0.0212 -0.2047  0.3661
 7960TIP3   OH245370   3.100   0.353  14.715  0.8467  0.0471  0.1240
 7960TIP3    H145371   3.151   0.420  14.761  0.2845  0.9637 -0.5567
 7960TIP3    H245372   3.036   0.402  14.664 -0.0951 -1.0488  0.2039
 7961TIP3   OH245373   2.330   4.439   5.745  0.0196  0.2275  0.2490
 7961TIP3    H145374   2.354   4.522   5.703 -0.0940 -0.0255 -0.3303
 7961TIP3    H245375   2.237   4.448   5.766  0.1933  0.5460  0.9167
 7962TIP3   OH245376   0.817   2.956   3.179  0.4492 -0.0344 -0.0530
 7962TIP3    H145377   0.850   2.902   3.251  0.6911 -0.4162 -0.4489
 7962TIP3    H245378   0.735   2.992   3.212 -0.4654 -1.7935 -0.3085
 7963TIP3   OH245379   1.688   3.799   5.749  0.1721  0.1812 -0.5919
 7963TIP3    H145380   1.744   3.816   5.825  0.5418 -0.5567 -0.6855
 7963TIP3    H245381   1.621   3.739   5.781  0.3431 -0.1524 -0.8464
 7964TIP3   OH245382   5.143   0.202   1.141 -0.2126 -0.2250 -0.3149
 7964TIP3    H145383   5.144   0.107   1.137 -1.0082 -0.2119 -0.9523
 7964TIP3    H245384   5.073   0.223   1.203 -1.8613 -0.0311 -2.1390
 7965TIP3   OH245385   0.833   2.811  12.983  0.0211  0.1920  0.2478
 7965TIP3    H145386   0.776   2.794  12.908 -1.0455  1.3793  0.7377
 7965TIP3    H245387   0.778   2.862  13.043  0.5028 -1.5370  2.2865
 7966TIP3   OH245388   2.868   3.920   2.701  0.1355  0.5333 -0.3769
 7966TIP3    H145389   2.864   4.015   2.696 -1.2738  0.4359 -1.7469
 7966TIP3    H245390   2.799   3.895   2.762  0.6792  0.3971  0.1885
 7967TIP3   OH245391   2.884   2.146  11.679 -0.3591  0.7016  0.0862
 7967TIP3    H145392   2.819   2.215  11.667  0.9902  2.2058  1.0474
 7967TIP3    H245393   2.965   2.184  11.646  0.0492 -1.1955 -1.2469
 7968TIP3   OH245394   2.949   4.611  11.922 -0.2612  0.4655  0.2957
 7968TIP3    H145395   2.968   4.533  11.870  1.0573  0.5826  0.5536
 7968TIP3    H245396   3.033   4.656  11.928 -0.2645  0.3001  2.7684
 7969TIP3   OH245397   4.033   3.344  13.686  0.2375 -0.2438 -0.0838
 7969TIP3    H145398   4.024   3.359  13.592 -3.2837 -0.7400  0.0472
 7969TIP3    H245399   4.004   3.426  13.726 -1.7865 -1.1827  0.5051
 7970TIP3   OH245400   5.199   3.316  15.251  0.1788  0.3452  0.6632
 7970TIP3    H145401   5.289   3.348  15.251  0.3518 -0.1277  0.8389
 7970TIP3    H245402   5.151   3.380  15.304  0.1975  1.1583 -0.2855
 7971TIP3   OH245403   3.924   5.190   2.783  0.3875 -0.6193  0.0101
 7971TIP3    H145404   3.857   5.249   2.749  1.7720  0.7910 -0.4074
 7971TIP3    H245405   3.877   5.131   2.842 -0.9999  1.2082  0.8360
 7972TIP3   OH245406   1.587   6.662  10.818  0.1111  0.5244  0.2739
 7972TIP3    H145407   1.560   6.621  10.900  0.4951 -2.1542 -0.8309
 7972TIP3    H245408   1.521   6.634  10.755 -0.2195  2.5930 -0.3795
 7973TIP3   OH245409   6.429   2.660  15.916 -0.2605 -0.0648 -0.0250
 7973TIP3    H145410   6.465   2.617  15.994  1.1145  0.8023 -0.1298
 7973TIP3    H245411   6.441   2.596  15.846 -0.3441 -0.3705  0.2359
 7974TIP3   OH245412   0.869   0.708  14.042 -0.1328 -0.2988  0.1097
 7974TIP3    H145413   0.885   0.745  13.955 -1.6474  2.5977  0.9371
 7974TIP3    H245414   0.810   0.635  14.027  1.2739 -1.1911 -1.4327
 7975TIP3   OH245415   0.473   6.164  12.432  0.4942 -0.0298  0.3562
 7975TIP3    H145416   0.440   6.123  12.352  3.4889  0.4248 -1.2286
 7975TIP3    H245417   0.420   6.124  12.502 -1.9368 -0.7660 -1.7336
 7976TIP3   OH245418   2.581   1.208   6.158  0.2947 -0.3602  0.5572
 7976TIP3    H145419   2.646   1.149   6.120 -1.1811  0.2737 -3.5198
 7976TIP3    H245420   2.514   1.150   6.195  1.0624 -1.0912  0.8234
 7977TIP3   OH245421   1.589   3.136  13.244 -0.0780  0.1176  0.8538
 7977TIP3    H145422   1.564   3.226  13.262 -1.4625 -0.1685  0.4781
 7977TIP3    H245423   1.658   3.117  13.308  0.4505  1.5146  0.7328
 7978TIP3   OH245424   2.710   1.069  15.827 -0.5160  0.1881  0.0825
 7978TIP3    H145425   2.781   1.089  15.888  0.1039 -1.1353 -0.1678
 7978TIP3    H245426   2.648   1.017  15.879  0.8394 -2.4478 -0.7726
 7979TIP3   OH245427   2.450   0.454   4.922 -0.2722  0.2293 -0.6378
 7979TIP3    H145428   2.485   0.386   4.865  0.2412  0.7819 -0.9927
 7979TIP3    H245429   2.527   0.500   4.955 -0.5365 -0.3578  0.8548
 7980TIP3   OH245430   0.696   1.380   3.532  0.5901 -0.1330 -0.1039
 7980TIP3    H145431   0.769   1.434   3.563  0.0747  0.0918  0.7318
 7980TIP3    H245432   0.679   1.319   3.603 -0.8977  0.6820  0.2751
 7981TIP3   OH245433   3.098   3.250  13.861 -0.0349  0.3997  0.1038
 7981TIP3    H145434   3.139   3.310  13.923  0.7339  0.9249 -0.8841
 7981TIP3    H245435   3.030   3.301  13.819  1.2543  0.9369 -1.4352
 7982TIP3   OH245436   0.423   5.702  12.101  0.7378 -0.4545 -0.0526
 7982TIP3    H145437   0.374   5.632  12.057 -2.4164  1.1730  0.6196
 7982TIP3    H245438   0.496   5.656  12.143 -0.9733 -3.3429  0.0819
 7983TIP3   OH245439   0.215   3.357   5.499 -0.5815 -0.0355 -0.1703
 7983TIP3    H145440   0.212   3.278   5.446 -0.5440  0.6372 -1.2076
 7983TIP3    H245441   0.233   3.427   5.437  1.1875  0.5838  0.9686
 7984TIP3   OH245442   6.696   2.336  17.074  0.6410 -0.0228  0.0260
 7984TIP3    H145443   6.683   2.241  17.075  1.1102 -0.0958 -0.4309
 7984TIP3    H245444   6.764   2.350  17.008  2.8702  0.3395  2.2520
 7985TIP3   OH245445   2.527   3.946   1.772  0.3558  0.0116 -0.5681
 7985TIP3    H145446   2.558   4.033   1.795 -0.0560  0.4115 -1.4870
 7985TIP3    H245447   2.432   3.951   1.778  0.3440 -0.5096 -0.1908
 7986TIP3   OH245448   4.435   2.308  14.494 -0.0557 -0.8122 -0.5738
 7986TIP3    H145449   4.448   2.311  14.400 -0.6157  0.1265 -0.6341
 7986TIP3    H245450   4.505   2.363  14.530 -0.3458 -0.4952 -0.4964
 7987TIP3   OH245451   4.644   2.493   1.376  0.0417 -0.2252  0.0526
 7987TIP3    H145452   4.611   2.434   1.308 -1.9679  0.2692  0.5259
 7987TIP3    H245453   4.673   2.436   1.447  1.5786 -0.7230 -0.9289
 7988TIP3   OH245454   0.265   4.710  10.990 -0.3587 -0.5559 -0.0941
 7988TIP3    H145455   0.359   4.694  10.986  0.0463  0.2648  3.2547
 7988TIP3    H245456   0.241   4.732  10.900  2.0673 -3.3990 -1.5908
 7989TIP3   OH245457   6.377   1.513   0.428  0.1310  0.1591 -0.1981
 7989TIP3    H145458   6.432   1.588   0.451  1.0016 -0.8790  1.3006
 7989TIP3    H245459   6.296   1.526   0.478  0.3194  0.0534  0.1348
 7990TIP3   OH245460   6.666   5.769   5.650 -0.1576  0.3508  0.0957
 7990TIP3    H145461   6.723   5.840   5.682  0.7070 -0.6019  0.7187
 7990TIP3    H245462   6.685   5.764   5.556  1.2964 -0.3766  0.4012
 7991TIP3   OH245463   6.714   2.887   0.864  0.5344 -0.2443 -0.5862
 7991TIP3    H145464   6.632   2.882   0.816  0.1950  1.5973 -0.2743
 7991TIP3    H245465   6.758   2.964   0.829  1.4998 -0.4041  0.2088
 7992TIP3   OH245466   4.403   0.412  12.691 -0.5520  0.2517  0.2775
 7992TIP3    H145467   4.430   0.481  12.630  0.1278 -0.2746 -0.0341
 7992TIP3    H245468   4.485   0.371  12.718 -0.9164 -0.1161  0.8391
 7993TIP3   OH245469   5.990   2.571   4.527 -0.0006  0.1810 -0.1652
 7993TIP3    H145470   6.081   2.547   4.509  0.5649  1.0859  1.2934
 7993TIP3    H245471   5.945   2.559   4.443  1.6341  0.5318 -1.1401
 7994TIP3   OH245472   6.309   0.600   1.335 -0.1967 -0.2537  0.3069
 7994TIP3    H145473   6.273   0.686   1.313  0.2068 -0.1227  0.1631
 7994TIP3    H245474   6.262   0.539   1.279 -1.2915 -0.2646  1.1953
 7995TIP3   OH245475   4.000   0.838  12.328  0.8333  0.2773 -0.0716
 7995TIP3    H145476   4.005   0.773  12.397  1.3903 -0.2866 -0.6305
 7995TIP3    H245477   3.914   0.879  12.339 -0.2600 -1.6881 -0.7161
 7996TIP3   OH245478   2.527   1.155  16.558 -0.2262 -0.0784 -0.1976
 7996TIP3    H145479   2.436   1.128  16.547 -0.9238  0.7695  2.5208
 7996TIP3    H245480   2.522   1.233  16.614  2.2100 -0.9248  1.3903
 7997TIP3   OH245481   1.189   0.347   6.651  0.2959  0.1496 -0.3872
 7997TIP3    H145482   1.250   0.285   6.690 -0.1497  0.2533  0.4921
 7997TIP3    H245483   1.216   0.432   6.686 -1.9473 -0.0651  2.2002
 7998TIP3   OH245484   6.505   4.762  15.313 -0.3322  0.2578 -0.3299
 7998TIP3    H145485   6.437   4.753  15.247 -1.0156 -0.9406  0.5066
 7998TIP3    H245486   6.503   4.679  15.362  0.2779  1.0256  1.0670
 7999TIP3   OH245487   0.326   6.600  13.985 -0.3965 -0.3086  0.1596
 7999TIP3    H145488   0.416   6.567  13.994  0.4681  1.3155 -1.6854
 7999TIP3    H245489   0.333   6.694  14.004 -1.2443  0.2405 -1.9592
 8000TIP3   OH245490   1.446   0.613  11.681 -0.2076  0.3182 -0.1305
 8000TIP3    H145491   1.419   0.650  11.597  2.0704  3.1466  0.2243
 8000TIP3    H245492   1.539   0.593  11.670 -0.1757 -0.4759  1.3643
 8001TIP3   OH245493   6.407   3.920  13.816 -0.0967 -0.3286 -0.0000
 8001TIP3    H145494   6.336   3.912  13.879  0.0943  0.9163  0.4144
 8001TIP3    H245495   6.472   3.975  13.860 -0.5463  1.7548 -1.7128
 8002TIP3   OH245496   0.085   4.997   2.831  0.0390 -0.2527  0.0230
 8002TIP3    H145497   0.100   4.949   2.911  0.1800 -0.0409  0.1263
 8002TIP3    H245498   0.164   5.051   2.820 -1.2130  2.0159  1.3720
 8003TIP3   OH245499   6.287   5.980   0.678 -0.5475 -0.1428  0.3814
 8003TIP3    H145500   6.311   6.026   0.759  0.4328  0.3892 -0.1861
 8003TIP3    H245501   6.207   6.022   0.649 -0.3951  0.2964  0.5914
 8004TIP3   OH245502   3.599   3.956   1.715  0.4933  0.1316 -0.0848
 8004TIP3    H145503   3.574   4.042   1.750 -0.1033  0.8083 -2.0247
 8004TIP3    H245504   3.595   3.898   1.791  0.3664  1.6963  1.1848
 8005TIP3   OH245505   6.180   0.022  13.683 -0.0934  0.3067 -0.6672
 8005TIP3    H145506   6.190   0.012  13.778 -1.0618  2.5743 -0.2804
 8005TIP3    H245507   6.095  -0.017  13.665  0.5987 -1.2047 -0.8426
 8006TIP3   OH245508   6.291   0.324  13.333 -0.3367  0.5776  0.5299
 8006TIP3    H145509   6.272   0.418  13.330  0.3368  0.7187  0.6680
 8006TIP3    H245510   6.386   0.318  13.328 -0.3423 -0.0811  1.0583
 8007TIP3   OH245511   3.797   3.130   0.800 -0.5989 -0.1587 -0.1830
 8007TIP3    H145512   3.790   3.066   0.729 -1.0800  0.8682 -1.0840
 8007TIP3    H245513   3.743   3.093   0.870  0.6373 -1.6492  0.0488
 8008TIP3   OH245514   4.708   5.121   1.576  0.3392 -0.6000 -0.0806
 8008TIP3    H145515   4.790   5.102   1.622 -0.5262 -0.7059  1.4679
 8008TIP3    H245516   4.648   5.151   1.644 -0.8394 -0.2524 -1.2298
 8009TIP3   OH245517   5.793   3.284   1.124  0.4611 -0.7688  0.3167
 8009TIP3    H145518   5.704   3.278   1.158  0.1862 -0.4775 -0.3305
 8009TIP3    H245519   5.850   3.275   1.201 -0.1446  2.3939  1.2571
 8010TIP3   OH245520   4.734   1.798   2.688 -0.5209  0.6255  0.2124
 8010TIP3    H145521   4.730   1.702   2.680 -0.5741  0.7198 -1.0202
 8010TIP3    H245522   4.782   1.813   2.770  0.3862 -0.4569 -0.0957
 8011TIP3   OH245523   3.355   6.021  14.138 -0.0476 -0.0538 -0.5745
 8011TIP3    H145524   3.345   6.043  14.231 -0.4154  0.4077 -0.7186
 8011TIP3    H245525   3.279   5.965  14.118  1.5398 -2.6329  0.1096
 8012TIP3   OH245526   5.181   2.829  13.053 -0.5597  0.1482 -0.4086
 8012TIP3    H145527   5.127   2.908  13.042  0.3982  0.8052 -0.5619
 8012TIP3    H245528   5.134   2.776  13.117 -2.0610  0.0805 -1.5178
 8013TIP3   OH245529   6.232   2.296  16.562 -0.2672  0.2264 -0.8093
 8013TIP3    H145530   6.254   2.205  16.584  2.3388  0.9074 -0.3233
 8013TIP3    H245531   6.183   2.289  16.480 -2.6158 -1.7680  0.6086
 8014TIP3   OH245532   3.330   4.067  12.698  0.2831 -0.4740  0.1984
 8014TIP3    H145533   3.336   4.135  12.765 -0.2795 -0.6993  0.4827
 8014TIP3    H245534   3.411   4.017  12.707  0.8334  0.3424 -0.2106
 8015TIP3   OH245535   2.266   2.387   5.703 -0.2265 -0.8852 -0.1635
 8015TIP3    H145536   2.197   2.393   5.636  1.4844  1.0039 -1.9242
 8015TIP3    H245537   2.254   2.302   5.743 -3.3547 -0.7612 -0.6291
 8016TIP3   OH245538   3.747   3.178  16.511 -0.1089 -0.5445  0.3962
 8016TIP3    H145539   3.673   3.118  16.503  0.0015 -0.6107 -0.1207
 8016TIP3    H245540   3.821   3.129  16.477  0.5269 -1.1149  2.4577
 8017TIP3   OH245541   2.365   1.780   1.714  0.1703  1.0125  0.8390
 8017TIP3    H145542   2.397   1.772   1.803  0.4779 -1.0704  0.5852
 8017TIP3    H245543   2.436   1.747   1.659 -0.5583  0.8997 -0.0810
 8018TIP3   OH245544   5.300   1.410  10.828  0.1915  0.1941  0.1885
 8018TIP3    H145545   5.217   1.414  10.875  0.4899  3.2886  0.6576
 8018TIP3    H245546   5.275   1.393  10.737 -1.4030  4.0943 -0.3065
 8019TIP3   OH245547   2.155   4.735   3.289 -0.2258 -0.0698 -0.1515
 8019TIP3    H145548   2.229   4.795   3.275 -0.7265  0.4360 -0.6373
 8019TIP3    H245549   2.195   4.648   3.290  0.4134  0.2176 -0.1608
 8020TIP3   OH245550   3.614   0.373   3.401 -0.0752 -0.0885 -0.3379
 8020TIP3    H145551   3.635   0.463   3.374 -0.3671 -0.1887 -0.9214
 8020TIP3    H245552   3.542   0.348   3.344  0.5477 -0.9915 -0.7523
 8021TIP3   OH245553   6.684   6.679   0.998  1.0782 -0.3731  0.0746
 8021TIP3    H145554   6.688   6.658   1.091  0.5822  0.3522  0.2759
 8021TIP3    H245555   6.642   6.765   0.995 -0.3284 -1.0530 -0.9055
 8022TIP3   OH245556   5.032   6.185  10.551 -0.3423 -0.4607 -0.2378
 8022TIP3    H145557   5.077   6.126  10.612  2.2785  0.7851 -0.8172
 8022TIP3    H245558   5.072   6.167  10.466  0.2544  1.8036 -0.5009
 8023TIP3   OH245559   4.590   4.815  15.763 -0.1757  0.1308  0.2945
 8023TIP3    H145560   4.638   4.754  15.708 -0.5335 -0.8059  0.9930
 8023TIP3    H245561   4.504   4.774  15.775 -0.8715  1.3832 -0.2647
 8024TIP3   OH245562   1.856   0.921  10.516  0.1186  0.3145 -0.0443
 8024TIP3    H145563   1.861   1.015  10.533  1.3944  0.1516  0.6133
 8024TIP3    H245564   1.947   0.893  10.512 -0.2521 -1.0050  0.3924
 8025TIP3   OH245565   2.285   2.982  14.623 -0.2162  1.3009  0.4263
 8025TIP3    H145566   2.319   3.002  14.711  1.1930 -0.6018  0.3705
 8025TIP3    H245567   2.344   3.028  14.563  0.9080 -0.0852  0.4123
 8026TIP3   OH245568   1.414   2.482  16.419  0.1939 -0.2735 -0.3558
 8026TIP3    H145569   1.503   2.490  16.384  0.3737  2.1343  0.4936
 8026TIP3    H245570   1.359   2.476  16.342  0.8485  1.6602 -1.0297
 8027TIP3   OH245571   3.266   1.152   3.560  0.0436  0.2196 -0.0668
 8027TIP3    H145572   3.296   1.082   3.502  0.5555  0.3887 -0.0068
 8027TIP3    H245573   3.289   1.123   3.648  2.3206  1.4385 -0.1874
 8028TIP3   OH245574   4.755   5.577   0.293 -0.0474 -0.0131 -0.0451
 8028TIP3    H145575   4.722   5.516   0.227 -3.2699 -0.7794  2.0723
 8028TIP3    H245576   4.766   5.524   0.372  3.0724  1.0169  0.3568
 8029TIP3   OH245577   3.055   4.850  15.585  0.3132 -0.2434  0.1319
 8029TIP3    H145578   3.113   4.856  15.509  1.6094  2.0967  1.2102
 8029TIP3    H245579   3.090   4.776  15.635 -0.1107 -1.3442 -1.1288
 8030TIP3   OH245580   5.132   1.304  14.355 -0.0793 -0.5460 -0.2954
 8030TIP3    H145581   5.150   1.210  14.364  0.3887 -0.4410 -0.1583
 8030TIP3    H245582   5.217   1.346  14.363 -0.3283 -0.0843 -0.0559
 8031TIP3   OH245583   5.083   6.697   4.952 -0.3180  0.0391  0.0309
 8031TIP3    H145584   5.026   6.695   4.875 -0.4285  0.3368  0.0998
 8031TIP3    H245585   5.171   6.690   4.916 -0.4113 -0.8275 -0.0478
 8032TIP3   OH245586   3.985   0.818   4.575 -0.0866  0.2791  0.0936
 8032TIP3    H145587   3.899   0.793   4.610 -0.5203  0.6567 -0.6796
 8032TIP3    H245588   3.966   0.867   4.495  0.8599 -1.7975 -1.5449
 8033TIP3   OH245589   2.326   6.625   6.706 -0.2934  0.1526  0.3145
 8033TIP3    H145590   2.377   6.704   6.691 -1.0635  0.8024  1.0109
 8033TIP3    H245591   2.297   6.632   6.798  0.4559 -1.4237  0.7033
 8034TIP3   OH245592   6.795   6.344  12.185  0.3432  0.4212 -0.4246
 8034TIP3    H145593   6.808   6.389  12.268  1.4022  0.8777 -0.8248
 8034TIP3    H245594   6.736   6.401  12.135 -1.1024 -0.3271  0.3559
 8035TIP3   OH245595   6.343   6.575   1.244 -0.3603  0.2812  0.0986
 8035TIP3    H145596   6.421   6.629   1.258  1.5898 -2.6080  1.3124
 8035TIP3    H245597   6.368   6.513   1.177 -2.3002  0.3489 -0.7646
 8036TIP3   OH245598   0.376   4.232   4.290 -0.4164 -0.7432  0.4949
 8036TIP3    H145599   0.281   4.225   4.296 -0.6542  1.3587 -0.1598
 8036TIP3    H245600   0.406   4.142   4.279 -2.3774 -1.3635 -0.1242
 8037TIP3   OH245601   3.173   1.130  16.674 -0.3724 -0.2358 -0.3953
 8037TIP3    H145602   3.094   1.169  16.711 -0.8998 -1.6084  0.0008
 8037TIP3    H245603   3.227   1.108  16.750 -0.3655 -0.8275 -0.5654
 8038TIP3   OH245604   3.063   1.851  12.834  0.0077 -0.7133  0.1447
 8038TIP3    H145605   3.142   1.885  12.792 -1.1038  2.6455  0.5352
 8038TIP3    H245606   3.095   1.811  12.915  1.3279  0.9441  0.4948
 8039TIP3   OH245607   4.246   4.213  11.884  0.5006  0.0651 -0.9572
 8039TIP3    H145608   4.261   4.264  11.805  0.1701 -1.1882 -1.8662
 8039TIP3    H245609   4.174   4.154  11.862 -0.7563  0.8365  0.8582
 8040TIP3   OH245610   5.031   4.901  14.812  0.0149 -0.0516 -0.3848
 8040TIP3    H145611   5.053   4.812  14.840 -1.3549  0.1788  1.5874
 8040TIP3    H245612   5.115   4.937  14.783  0.7928 -1.6329 -0.2443
 8041TIP3   OH245613   3.031   0.996   0.268  0.3693 -0.3394 -0.0881
 8041TIP3    H145614   3.018   0.924   0.330  0.2550 -0.3079 -0.0756
 8041TIP3    H245615   2.958   1.055   0.284  0.5978 -0.0989  0.0660
 8042TIP3   OH245616   0.186   3.261   5.035 -0.2426  0.4171 -0.3614
 8042TIP3    H145617   0.270   3.307   5.031  0.4501 -0.8710 -1.1850
 8042TIP3    H245618   0.185   3.205   4.957 -1.7039  0.1382 -0.1670
 8043TIP3   OH245619   3.880   1.907  13.217  0.5985 -0.3334  0.2585
 8043TIP3    H145620   3.859   1.832  13.162  1.0874 -1.5520  1.6857
 8043TIP3    H245621   3.844   1.885  13.303  0.1053  1.4032  0.5319
 8044TIP3   OH245622   2.611   1.828  13.733 -0.0099  0.4422 -1.0049
 8044TIP3    H145623   2.682   1.817  13.796  0.4769  1.2344 -1.3939
 8044TIP3    H245624   2.582   1.739  13.713 -0.2334  0.1893  0.3989
 8045TIP3   OH245625   0.944   4.594  17.046 -0.2142 -0.2408  0.3721
 8045TIP3    H145626   0.961   4.648  17.123 -2.1469  0.7652  0.1566
 8045TIP3    H245627   0.877   4.643  16.997 -0.2467 -1.6688 -1.0891
 8046TIP3   OH245628   5.505   4.717  14.013 -0.3823  0.0164  0.4662
 8046TIP3    H145629   5.473   4.712  14.103  1.8027  3.9702  1.7370
 8046TIP3    H245630   5.601   4.716  14.022 -0.1109  0.7290 -1.7722
 8047TIP3   OH245631   2.203   1.543   5.080 -0.0393 -0.1929  0.1023
 8047TIP3    H145632   2.112   1.523   5.057 -0.3375 -0.9301  1.7195
 8047TIP3    H245633   2.208   1.638   5.077 -1.2046 -0.0759  1.0475
 8048TIP3   OH245634   0.994   5.258   1.640 -0.1807  0.3128 -0.3218
 8048TIP3    H145635   1.044   5.230   1.563 -2.3266 -0.4413 -1.5405
 8048TIP3    H245636   0.975   5.176   1.686 -1.6269  0.3633 -0.7791
 8049TIP3   OH245637   6.051   1.346   4.575  0.4909 -0.1741  0.0025
 8049TIP3    H145638   6.144   1.327   4.581  0.9646  1.8085 -0.3629
 8049TIP3    H245639   6.022   1.301   4.495  0.8379 -1.7775  0.7551
 8050TIP3   OH245640   5.230   3.029  14.560 -0.0099 -0.0188 -0.0625
 8050TIP3    H145641   5.160   3.090  14.537 -0.5744 -0.1797  1.1452
 8050TIP3    H245642   5.232   2.966  14.487 -0.0349  0.8938 -0.8716
 8051TIP3   OH245643   6.819   4.390   1.726 -0.0056  0.1954 -0.4624
 8051TIP3    H145644   6.796   4.391   1.633 -0.1742 -0.5711 -0.4342
 8051TIP3    H245645   6.808   4.481   1.754  0.7109  0.5726 -1.3479
 8052TIP3   OH245646   2.909   1.983  13.184  0.5706 -0.3696  0.2820
 8052TIP3    H145647   2.824   1.944  13.167 -0.4898  1.8647  0.1028
 8052TIP3    H245648   2.928   2.035  13.106  0.2218  2.2299  1.8083
 8053TIP3   OH245649   0.241   5.382   0.325  0.0004 -0.3975  0.0335
 8053TIP3    H145650   0.322   5.388   0.376  0.3024 -2.8036 -0.0099
 8053TIP3    H245651   0.266   5.411   0.237  0.7237 -0.6719  0.1387
 8054TIP3   OH245652   2.410   3.365  13.161  0.1496 -0.4000 -0.4480
 8054TIP3    H145653   2.456   3.285  13.186  0.1461 -0.0290  0.8155
 8054TIP3    H245654   2.479   3.425  13.135  0.1915 -0.6490 -0.9109
 8055TIP3   OH245655   2.781   5.544  13.879  0.2568  0.4486  0.1607
 8055TIP3    H145656   2.738   5.596  13.811  2.6830  0.1515 -1.7402
 8055TIP3    H245657   2.841   5.487  13.831  0.2709 -1.6018  2.4229
 8056TIP3   OH245658   5.602   2.864  13.689  0.6927  0.0102  0.1101
 8056TIP3    H145659   5.529   2.845  13.748 -0.5453 -0.5061 -1.5129
 8056TIP3    H245660   5.604   2.960  13.684 -0.3826  0.0173 -0.4116
 8057TIP3   OH245661   4.908   5.917  10.538  0.2196  0.0412 -0.6728
 8057TIP3    H145662   4.893   6.012  10.535  2.1437  0.3633 -1.5881
 8057TIP3    H245663   4.964   5.904  10.614  0.8232 -0.2054 -1.1508
 8058TIP3   OH245664   3.509   3.438  13.327  0.0995  0.0803  0.6952
 8058TIP3    H145665   3.499   3.346  13.302 -1.3907  0.6028 -0.7668
 8058TIP3    H245666   3.593   3.440  13.374  0.1562 -2.0162  0.7998
 8059TIP3   OH245667   6.492   3.480  12.580  0.3842 -0.1938 -0.2702
 8059TIP3    H145668   6.489   3.431  12.662 -2.9523  1.0726  0.5360
 8059TIP3    H245669   6.520   3.416  12.515 -0.8265 -2.3597  1.2099
 8060TIP3   OH245670   5.014   5.552  17.028  0.1189 -0.6764  0.6815
 8060TIP3    H145671   5.079   5.619  17.046 -0.2468 -0.4829  1.3166
 8060TIP3    H245672   4.973   5.578  16.946  2.0913 -1.7796 -0.7460
 8061TIP3   OH245673   4.837   4.209  11.254 -0.0904  0.3478  0.3287
 8061TIP3    H145674   4.907   4.259  11.295 -0.6494  1.2483  0.2142
 8061TIP3    H245675   4.840   4.235  11.162 -0.0565 -0.2323  0.1594
 8062TIP3   OH245676   6.531   0.602  13.371 -0.2701  0.2565 -0.1308
 8062TIP3    H145677   6.533   0.587  13.276  0.5977 -0.1964 -0.0525
 8062TIP3    H245678   6.439   0.621  13.391 -0.6680 -0.8359 -0.8720
 8063TIP3   OH245679   1.556   2.660   5.690  0.0310  0.2063 -0.6018
 8063TIP3    H145680   1.616   2.691   5.623 -0.3304 -0.2350 -1.1334
 8063TIP3    H245681   1.524   2.740   5.733  1.1476  0.4434 -0.1615
 8064TIP3   OH245682   6.649   3.494   3.680  0.0910  0.6321 -0.3223
 8064TIP3    H145683   6.554   3.499   3.694  0.1118  2.0033 -0.5967
 8064TIP3    H245684   6.673   3.408   3.716 -1.2159  0.3361 -0.0810
 8065TIP3   OH245685   2.466   3.053   2.096 -0.0168 -0.5960 -0.7935
 8065TIP3    H145686   2.382   3.079   2.135 -0.5797 -0.4088 -2.0570
 8065TIP3    H245687   2.449   3.054   2.001  0.9381 -2.1916 -1.0206
 8066TIP3   OH245688   0.541   3.175  10.860 -0.5136 -0.6253 -0.0246
 8066TIP3    H145689   0.526   3.259  10.817  1.3458  0.1377  0.6800
 8066TIP3    H245690   0.461   3.158  10.909 -0.8444  0.8933  0.0255
 8067TIP3   OH245691   2.159   0.608  15.327 -0.5025 -0.1296 -0.2365
 8067TIP3    H145692   2.087   0.549  15.351 -0.0652  0.6776  3.7547
 8067TIP3    H245693   2.238   0.557  15.345 -0.0969  0.5656 -0.0457
 8068TIP3   OH245694   4.333   5.381  12.428  0.2062  0.2358 -0.0003
 8068TIP3    H145695   4.256   5.409  12.379  2.3750  1.6198 -2.9320
 8068TIP3    H245696   4.357   5.457  12.482  0.4839  0.4393 -0.4080
 8069TIP3   OH245697   5.158   6.454   0.216  0.2154  0.8758 -0.0118
 8069TIP3    H145698   5.203   6.370   0.205  0.7960  0.6311  3.1691
 8069TIP3    H245699   5.065   6.430   0.219  0.3774  0.3028  0.9059
 8070TIP3   OH245700   3.967   3.388  14.531  0.5317  0.0733 -0.2417
 8070TIP3    H145701   3.936   3.298  14.541 -0.5577  0.4898  0.1537
 8070TIP3    H245702   4.027   3.401  14.604 -0.0720 -0.0102  0.2712
 8071TIP3   OH245703   1.991   1.730   3.752  0.2004  0.3137  0.1595
 8071TIP3    H145704   2.037   1.727   3.836  2.6118  4.5515 -0.6862
 8071TIP3    H245705   1.906   1.768   3.773  0.0887 -0.2804  0.8375
 8072TIP3   OH245706   1.312   2.982   2.391 -0.6170  0.8036 -0.8092
 8072TIP3    H145707   1.267   2.904   2.423 -0.2147 -0.6926 -3.5093
 8072TIP3    H245708   1.269   3.055   2.434 -1.0105 -0.8646  1.8625
 8073TIP3   OH245709   4.408   2.680  16.212  0.4640 -0.9928  0.2218
 8073TIP3    H145710   4.336   2.729  16.172  2.2221  2.2742  0.6843
 8073TIP3    H245711   4.477   2.681  16.145  1.2985 -0.9034  1.0657
 8074TIP3   OH245712   3.543   4.490  17.154  0.7266  0.1440  0.8742
 8074TIP3    H145713   3.469   4.437  17.183  2.1985 -1.7171  1.4177
 8074TIP3    H245714   3.503   4.566  17.113 -1.4719 -0.4563  1.7588
 8075TIP3   OH245715   2.049   0.833   2.209  0.3306 -0.2071 -0.5353
 8075TIP3    H145716   2.126   0.777   2.222  1.5644  1.4470 -0.2878
 8075TIP3    H245717   2.082   0.907   2.158 -1.4002 -0.0140 -1.4474
 8076TIP3   OH245718   1.687   2.577   3.696 -0.2137 -0.7867 -0.0158
 8076TIP3    H145719   1.776   2.567   3.731 -0.6273 -1.5495  0.8587
 8076TIP3    H245720   1.651   2.488   3.695 -0.6641 -0.6166 -1.2434
 8077TIP3   OH245721   6.737   0.548  14.166  0.0161  0.6619 -0.3353
 8077TIP3    H145722   6.802   0.492  14.123  0.0718  0.2888  0.2205
 8077TIP3    H245723   6.784   0.630  14.181  0.8102 -0.0282  1.2312
 8078TIP3   OH245724   2.527   3.681   0.485 -0.2713 -0.4767  0.3758
 8078TIP3    H145725   2.555   3.593   0.459  2.5866  0.2521  0.6284
 8078TIP3    H245726   2.454   3.666   0.545  1.1319 -2.8050  1.6740
 8079TIP3   OH245727   6.358   5.228   6.404  0.0352  0.8230  0.1975
 8079TIP3    H145728   6.329   5.245   6.314  0.4109 -0.7687 -0.2667
 8079TIP3    H245729   6.452   5.210   6.395 -0.0551  0.0036  0.7956
 8080TIP3   OH245730   1.937   4.610   2.805  0.0900 -0.2933 -0.6732
 8080TIP3    H145731   1.921   4.697   2.768 -2.8535  0.2261  1.4296
 8080TIP3    H245732   1.958   4.627   2.897 -1.2357 -1.7886 -0.0517
 8081TIP3   OH245733   5.689   3.137  10.582 -0.1583 -0.0768  0.1481
 8081TIP3    H145734   5.679   3.044  10.603 -0.5063 -0.0926 -0.0848
 8081TIP3    H245735   5.614   3.179  10.625 -0.2961  0.0268 -0.1897
 8082TIP3   OH245736   3.648   0.968  14.333 -0.4145  0.3023 -0.1362
 8082TIP3    H145737   3.687   0.885  14.363 -0.5210  0.6591  1.0640
 8082TIP3    H245738   3.713   1.034  14.358 -0.5844  0.6385 -0.5808
 8083TIP3   OH245739   0.478   1.800  12.887  0.0211 -0.0997 -0.1664
 8083TIP3    H145740   0.387   1.829  12.880 -0.7026 -2.3793 -0.9313
 8083TIP3    H245741   0.513   1.849  12.961 -1.7675  0.9529  0.0393
 8084TIP3   OH245742   1.132   5.041  10.767  0.3748 -0.3172 -0.0283
 8084TIP3    H145743   1.173   5.030  10.852  1.9893  1.5483 -0.4910
 8084TIP3    H245744   1.194   5.003  10.705  0.6999  1.0510 -0.5915
 8085TIP3   OH245745   1.293   3.360   1.085  0.3421 -0.1960 -0.2316
 8085TIP3    H145746   1.355   3.362   1.012  1.4783 -1.7822  0.6259
 8085TIP3    H245747   1.233   3.289   1.064 -0.2570  0.3190 -0.3087
 8086TIP3   OH245748   6.108   4.277   0.540 -0.5557  0.3383 -0.1265
 8086TIP3    H145749   6.176   4.319   0.592 -2.3916  2.7666  0.5188
 8086TIP3    H245750   6.123   4.309   0.451 -0.8661  0.9398  0.0303
 8087TIP3   OH245751   4.488   5.082   5.088  0.0454 -0.4439 -0.0933
 8087TIP3    H145752   4.490   5.005   5.145  2.2120  1.4654  2.6711
 8087TIP3    H245753   4.576   5.117   5.092 -0.6798  1.8344 -1.8532
 8088TIP3   OH245754   1.131   0.751   1.152  0.4584 -0.1787  0.3175
 8088TIP3    H145755   1.146   0.767   1.245 -0.9127 -1.8587  0.8878
 8088TIP3    H245756   1.214   0.773   1.109  0.9232  1.1727  1.8470
 8089TIP3   OH245757   5.624   5.642  13.539  0.0656  0.5152 -0.3418
 8089TIP3    H145758   5.672   5.691  13.472  0.6966  2.1844  1.2628
 8089TIP3    H245759   5.533   5.668  13.527  0.2547  1.2763 -0.2079
 8090TIP3   OH245760   4.752   5.219  15.138 -0.3943  0.6004 -0.3064
 8090TIP3    H145761   4.672   5.167  15.139 -0.2612  0.3764 -0.8533
 8090TIP3    H245762   4.757   5.253  15.049  0.1510  0.5619 -0.2937
 8091TIP3   OH245763   3.222   6.492  14.312 -0.0298 -0.0026  0.0168
 8091TIP3    H145764   3.313   6.469  14.331 -0.6014 -2.3164  0.2512
 8091TIP3    H245765   3.185   6.513  14.397  0.3715  1.4532 -0.1390
 8092TIP3   OH245766   6.110   1.592   0.401  0.1603 -0.5293  0.3495
 8092TIP3    H145767   6.096   1.652   0.474 -0.8440  0.5376 -0.6654
 8092TIP3    H245768   6.053   1.518   0.420 -0.3706 -0.0957  0.4896
 8093TIP3   OH245769   1.769   4.415  13.498 -0.3505 -0.2627  0.1243
 8093TIP3    H145770   1.720   4.354  13.553  2.5937 -2.5056  0.4705
 8093TIP3    H245771   1.848   4.434  13.548  0.5368  0.9094 -1.6151
 8094TIP3   OH245772   4.931   2.682   0.809 -0.5649 -0.3277  0.5805
 8094TIP3    H145773   5.003   2.667   0.748 -1.0372  1.5404 -0.5060
 8094TIP3    H245774   4.975   2.697   0.893  0.2985  0.3549  0.0298
 8095TIP3   OH245775   6.061   1.100   3.974 -0.3473 -0.3004  0.7068
 8095TIP3    H145776   6.002   1.176   3.979 -0.3413 -0.0767 -1.5483
 8095TIP3    H245777   6.070   1.084   3.880  2.4171 -0.9607  1.0264
 8096TIP3   OH245778   0.647   0.503   5.612 -0.0277  0.3405  0.0040
 8096TIP3    H145779   0.568   0.471   5.656 -0.9604  2.1434 -0.2501
 8096TIP3    H245780   0.682   0.427   5.565 -0.8148 -0.8285  1.2203
 8097TIP3   OH245781   2.686   4.195  16.455 -0.1630 -0.0742 -0.1835
 8097TIP3    H145782   2.659   4.122  16.400 -1.0656 -0.0119  0.1664
 8097TIP3    H245783   2.738   4.154  16.525 -1.6184 -0.5388  0.6560
 8098TIP3   OH245784   5.428   5.977  14.745 -0.0688  0.7426  1.5000
 8098TIP3    H145785   5.493   5.978  14.815  1.8286 -1.5284 -0.0673
 8098TIP3    H245786   5.422   6.069  14.717  2.8690  1.0071  1.4064
 8099TIP3   OH245787   3.648   6.109   6.382  0.1826  0.1981 -0.1903
 8099TIP3    H145788   3.691   6.024   6.367 -0.6942 -0.8528  2.6063
 8099TIP3    H245789   3.556   6.087   6.396  0.0592  1.5102  1.2820
 8100TIP3   OH245790   5.270   2.595  13.822  0.0680  0.3322 -0.3509
 8100TIP3    H145791   5.298   2.512  13.783 -0.4302 -0.2680  0.5273
 8100TIP3    H245792   5.180   2.606  13.791  0.0213  0.3756 -0.2009
 8101TIP3   OH245793   6.407   1.863   1.635  0.1849  0.2982 -0.0164
 8101TIP3    H145794   6.439   1.902   1.554  1.3841  0.1017  0.3395
 8101TIP3    H245795   6.446   1.776   1.637  2.5242  1.2620  2.0589
 8102TIP3   OH245796   4.306   1.272  13.190  0.3201 -0.3794  0.0439
 8102TIP3    H145797   4.246   1.244  13.121  1.0352  1.0858 -1.2299
 8102TIP3    H245798   4.391   1.281  13.146  1.3063 -1.5253  1.6087
 8103TIP3   OH245799   3.494   6.659  15.537  0.1740 -0.3761  0.5062
 8103TIP3    H145800   3.441   6.632  15.611 -0.2169 -1.4506 -0.1428
 8103TIP3    H245801   3.539   6.739  15.566 -0.0650 -0.7163  1.8333
 8104TIP3   OH245802   1.175   5.090   5.660  0.2905  0.2407 -0.2091
 8104TIP3    H145803   1.205   5.050   5.741 -2.9018 -0.1145  0.9171
 8104TIP3    H245804   1.105   5.034   5.629  0.0601  1.4840 -2.1484
 8105TIP3   OH245805   1.223   5.497   1.706  0.0899 -0.3692 -0.2464
 8105TIP3    H145806   1.196   5.425   1.648  1.1242  0.1074 -1.3413
 8105TIP3    H245807   1.302   5.465   1.749 -0.6280 -0.6879  0.8669
 8106TIP3   OH245808   1.577   3.448  13.200 -0.1243 -0.1496  0.2739
 8106TIP3    H145809   1.666   3.466  13.232 -0.5887  1.1949  0.8746
 8106TIP3    H245810   1.535   3.534  13.196 -1.3331 -0.7391 -0.2390
 8107TIP3   OH245811   5.953   6.766  11.895  0.5668  0.0844 -0.0345
 8107TIP3    H145812   5.936   6.685  11.848 -0.4121  0.0733  0.3215
 8107TIP3    H245813   5.977   6.829  11.826 -0.9548  0.1026 -0.5963
 8108TIP3   OH245814   5.375   1.703  12.044  0.1597  0.2390 -0.0869
 8108TIP3    H145815   5.385   1.796  12.024  1.3820  0.4836  1.4963
 8108TIP3    H245816   5.297   1.676  11.994  2.1442  1.0436 -3.9708
 8109TIP3   OH245817   4.901   4.985   4.390 -0.4366 -0.1775  0.4517
 8109TIP3    H145818   4.961   4.911   4.388 -0.1220  0.0820  0.0367
 8109TIP3    H245819   4.907   5.023   4.302  0.0228  0.8320  0.9026
 8110TIP3   OH245820   4.902   6.755   3.546  0.0591 -0.4084  0.2395
 8110TIP3    H145821   4.947   6.832   3.514  2.2144 -1.2643  1.0112
 8110TIP3    H245822   4.918   6.688   3.480 -0.1551 -0.7033  0.4808
 8111TIP3   OH245823   2.303   5.741   5.056  0.0513 -0.2708 -0.0673
 8111TIP3    H145824   2.297   5.836   5.056  1.9036 -0.0990 -0.6501
 8111TIP3    H245825   2.227   5.711   5.006  0.1015  0.9812 -0.9298
 8112TIP3   OH245826   5.755   0.686   5.493  0.3811 -0.0118 -0.0099
 8112TIP3    H145827   5.782   0.767   5.537  2.8462 -1.4965  1.4695
 8112TIP3    H245828   5.829   0.664   5.436  0.6620 -2.1667  1.0753
 8113TIP3   OH245829   5.329   4.204   1.577 -0.3022 -0.2920 -0.2125
 8113TIP3    H145830   5.328   4.294   1.610 -0.0871 -0.5537  0.5332
 8113TIP3    H245831   5.237   4.180   1.568 -0.3600  0.0092 -0.4496
 8114TIP3   OH245832   0.791   5.274  17.182  0.7100 -0.1194  0.8310
 8114TIP3    H145833   0.817   5.228  17.102 -0.4836 -1.5343  1.2296
 8114TIP3    H245834   0.740   5.349  17.151 -0.0517 -0.8551  0.2591
 8115TIP3   OH245835   0.051   5.421   1.991  0.6625 -0.5828 -0.3615
 8115TIP3    H145836   0.101   5.502   2.005  0.0576 -0.2000 -0.3706
 8115TIP3    H245837  -0.012   5.443   1.922 -0.1665 -0.7618  0.3246
 8116TIP3   OH245838   5.085   5.105   1.464  0.6698 -0.1334  0.3719
 8116TIP3    H145839   5.103   5.127   1.555  0.0471 -1.0036  0.7258
 8116TIP3    H245840   5.019   5.036   1.469  0.5103 -0.0837 -0.7462
 8117TIP3   OH245841   1.718   1.344  11.667 -0.9185 -0.8147  0.6141
 8117TIP3    H145842   1.767   1.300  11.597 -1.0101  0.9170 -0.5970
 8117TIP3    H245843   1.664   1.275  11.705 -1.5002 -1.6741 -1.6030
 8118TIP3   OH245844   5.032   0.553   3.129 -0.3450 -0.0485  0.1067
 8118TIP3    H145845   4.965   0.492   3.161 -1.0811 -0.0075 -1.2595
 8118TIP3    H245846   5.051   0.523   3.040 -0.0757  1.1789 -0.2725
 8119TIP3   OH245847   4.015   3.039  11.238 -0.2400 -0.3730 -0.1714
 8119TIP3    H145848   3.981   2.956  11.271 -1.6098  0.1401 -0.2340
 8119TIP3    H245849   4.035   3.090  11.317  0.2955 -0.6303 -0.1358
 8120TIP3   OH245850   0.301   2.193   0.713 -0.2244  0.2541 -0.2430
 8120TIP3    H145851   0.311   2.288   0.706  0.6872  0.1133 -0.9538
 8120TIP3    H245852   0.217   2.181   0.758  0.0831  1.4034  0.6911
 8121TIP3   OH245853   3.045   6.756   5.649 -0.3623  0.0587 -0.0493
 8121TIP3    H145854   3.094   6.675   5.667 -0.0257  0.0841 -0.8222
 8121TIP3    H245855   3.112   6.824   5.641 -0.5323  0.1446 -0.8338
 8122TIP3   OH245856   2.727   0.022   5.767  0.4053  0.1030  0.1365
 8122TIP3    H145857   2.788   0.076   5.817  0.2741 -0.1498  0.5783
 8122TIP3    H245858   2.722  -0.060   5.816 -1.5959  0.7224  1.1039
 8123TIP3   OH245859   5.302   4.317  10.257  0.6733 -0.1874  0.1237
 8123TIP3    H145860   5.285   4.224  10.250 -2.7173  0.3647 -0.9102
 8123TIP3    H245861   5.275   4.340  10.346 -0.7539  0.1286 -0.3676
 8124TIP3   OH245862   4.568   1.673  12.793  0.6423  0.1332 -0.3728
 8124TIP3    H145863   4.569   1.659  12.887 -1.4796  0.6745 -0.2071
 8124TIP3    H245864   4.642   1.622  12.760  0.6377 -1.1385  1.4382
 8125TIP3   OH245865   5.527   4.385   0.807 -0.0566 -0.4813 -0.2375
 8125TIP3    H145866   5.558   4.378   0.897  1.8472 -3.5068 -0.9641
 8125TIP3    H245867   5.567   4.465   0.774  0.0157  0.1483  1.2973
 8126TIP3   OH245868   1.896   1.563   0.382 -0.4413 -0.7916  0.2687
 8126TIP3    H145869   1.858   1.647   0.408  0.5327  0.3610 -1.8372
 8126TIP3    H245870   1.820   1.509   0.358 -1.0662 -0.5242  1.5400
 8127TIP3   OH245871   2.108   5.723  14.831 -0.2055  0.1834 -0.4763
 8127TIP3    H145872   2.126   5.629  14.840  0.7426  0.4433  0.6125
 8127TIP3    H245873   2.160   5.764  14.901 -1.2775  1.4424 -0.3788
 8128TIP3   OH245874   4.206   0.591   2.201 -0.0853  0.6571  0.7643
 8128TIP3    H145875   4.199   0.530   2.128  1.8427  1.8152 -0.4812
 8128TIP3    H245876   4.188   0.537   2.279 -2.1790 -0.5970 -0.5078
 8129TIP3   OH245877   6.803   3.973   3.510  0.0707 -0.3255 -0.3671
 8129TIP3    H145878   6.871   3.908   3.528 -0.6859 -0.8274  0.7959
 8129TIP3    H245879   6.801   4.029   3.588  0.6596  1.0847 -1.3149
 8130TIP3   OH245880   6.652   0.935  15.470  0.2095  0.7356 -0.1201
 8130TIP3    H145881   6.723   0.974  15.419  0.4257 -1.2945 -1.4577
 8130TIP3    H245882   6.686   0.932  15.560  1.1113  1.3622 -0.4273
 8131TIP3   OH245883   2.883   1.410  14.775  0.0709 -0.3737  0.1887
 8131TIP3    H145884   2.887   1.369  14.689 -1.9139 -0.3674  0.0523
 8131TIP3    H245885   2.907   1.501  14.760 -1.6734 -0.0141 -0.6573
 8132TIP3   OH245886   4.125   2.560  16.535 -0.5695 -0.5785 -0.1419
 8132TIP3    H145887   4.184   2.516  16.596 -1.1220 -2.1980 -0.7204
 8132TIP3    H245888   4.075   2.489  16.495  0.5250  0.2809 -3.2969
 8133TIP3   OH245889   3.963   3.067   3.992  0.1954  0.2136  0.6930
 8133TIP3    H145890   3.981   3.082   3.899  0.5339  1.3469  0.9357
 8133TIP3    H245891   3.894   3.130   4.013  0.5941  0.4272  1.3719
 8134TIP3   OH245892   0.702   6.150   6.776  0.0196  0.1306 -0.4891
 8134TIP3    H145893   0.788   6.154   6.734  0.3184 -0.6744  0.0063
 8134TIP3    H245894   0.662   6.070   6.740 -0.2581  0.1550 -0.2348
 8135TIP3   OH245895   1.245   2.602  13.876 -0.1723 -0.4537 -0.3439
 8135TIP3    H145896   1.265   2.648  13.795  0.6515  0.2848  0.2703
 8135TIP3    H245897   1.264   2.510  13.857  1.5103 -0.0948 -0.5312
 8136TIP3   OH245898   3.790   6.685   0.756  0.5028 -0.0455  0.1854
 8136TIP3    H145899   3.747   6.655   0.677  0.0887 -1.9451  1.0769
 8136TIP3    H245900   3.718   6.704   0.817  0.7680  2.3111 -0.1224
 8137TIP3   OH245901   1.366   0.845   4.641 -0.0582  0.0152 -0.0761
 8137TIP3    H145902   1.425   0.823   4.569  1.2334  1.2920  0.5476
 8137TIP3    H245903   1.329   0.760   4.668  1.3877 -0.8124 -0.5725
 8138TIP3   OH245904   6.723   0.936  15.734  0.2869 -0.1617  0.2505
 8138TIP3    H145905   6.675   1.006  15.777 -1.2281 -0.3102 -1.1278
 8138TIP3    H245906   6.769   0.891  15.806 -0.2331  1.0442  1.3819
 8139TIP3   OH245907   5.977   1.268   2.885  0.4349 -0.4739  0.2840
 8139TIP3    H145908   6.016   1.271   2.798 -0.2069 -0.3971 -0.0020
 8139TIP3    H245909   6.051   1.252   2.944  0.7075 -1.8133 -0.3888
 8140TIP3   OH245910   2.190   1.608   3.002 -0.5612  0.6282  0.4443
 8140TIP3    H145911   2.241   1.544   3.051 -2.4522 -0.2992  1.2902
 8140TIP3    H245912   2.170   1.565   2.919 -1.5620  0.2132  0.8854
 8141TIP3   OH245913   3.641   2.939  11.179 -0.3097  0.2319  0.1025
 8141TIP3    H145914   3.683   2.890  11.108 -2.1475  0.5728 -1.2945
 8141TIP3    H245915   3.667   2.892  11.258  2.2102  0.1251 -0.6851
 8142TIP3   OH245916   1.166   3.672   5.764 -0.0054  0.2959 -0.0290
 8142TIP3    H145917   1.208   3.594   5.802 -0.5623  0.4564  0.9519
 8142TIP3    H245918   1.103   3.636   5.701  1.0837  0.0339 -1.0117
 8143TIP3   OH245919   3.588   1.760   3.495 -0.5034 -0.2352 -0.2804
 8143TIP3    H145920   3.564   1.777   3.403 -1.5278 -0.1875 -0.0133
 8143TIP3    H245921   3.652   1.689   3.490 -1.8044 -1.4231 -0.9462
 8144TIP3   OH245922   2.833   4.207   5.370  0.1244  0.3551  0.4049
 8144TIP3    H145923   2.791   4.187   5.454  0.2443 -0.1872  0.3401
 8144TIP3    H245924   2.868   4.295   5.382 -1.7363  1.1620  0.1633
 8145TIP3   OH245925   5.875   5.147  10.820 -0.2150  0.6636  0.7853
 8145TIP3    H145926   5.859   5.242  10.823  0.6674  0.8326  0.5737
 8145TIP3    H245927   5.840   5.120  10.735  0.3841  0.9813  0.4271
 8146TIP3   OH245928   5.684   4.345  12.345  0.0682  0.4723 -0.1914
 8146TIP3    H145929   5.663   4.371  12.434 -2.1468  0.1115 -0.5599
 8146TIP3    H245930   5.600   4.327  12.304  1.1560 -4.3352 -0.8980
 8147TIP3   OH245931   4.210   5.623  11.734 -0.1442 -0.2822  0.7493
 8147TIP3    H145932   4.296   5.615  11.693 -0.8573 -0.0060 -0.8854
 8147TIP3    H245933   4.163   5.545  11.706 -0.8697  0.2395  0.4813
 8148TIP3   OH245934   0.273   6.319   2.245 -0.4908  0.8969 -0.2456
 8148TIP3    H145935   0.301   6.334   2.335 -1.2663 -1.4312  0.4554
 8148TIP3    H245936   0.349   6.277   2.203 -0.3448  1.4246 -0.5215
 8149TIP3   OH245937   1.732   6.223   5.533 -0.3466  0.1541  0.8676
 8149TIP3    H145938   1.707   6.148   5.587  1.4999 -0.4838  0.9319
 8149TIP3    H245939   1.819   6.247   5.566  1.7861 -1.4757 -2.9986
 8150TIP3   OH245940   1.307   0.931   5.625 -1.1850  0.2854  0.1001
 8150TIP3    H145941   1.228   0.960   5.578 -0.4720  3.1363  0.4868
 8150TIP3    H245942   1.364   0.896   5.557 -1.9840  0.1007 -0.4864
 8151TIP3   OH245943   0.427   5.361  14.115  0.2851  0.0762  0.2342
 8151TIP3    H145944   0.350   5.352  14.059  0.9931 -2.2606 -0.4845
 8151TIP3    H245945   0.393   5.384  14.201 -0.9931  1.5131 -0.6063
 8152TIP3   OH245946   1.045   3.746  11.153 -0.0582  0.4282  0.5458
 8152TIP3    H145947   1.138   3.766  11.162  0.0536  0.0044  0.3595
 8152TIP3    H245948   1.029   3.678  11.219 -0.0440 -0.1148 -0.0075
 8153TIP3   OH245949   1.375   2.638  12.145  0.4198  0.2566 -1.0544
 8153TIP3    H145950   1.333   2.718  12.179  0.7538  1.3717 -3.1088
 8153TIP3    H245951   1.305   2.592  12.100  0.3714 -0.3237 -0.4015
 8154TIP3   OH245952   0.297   4.307  13.138  0.1964 -0.1529  0.5219
 8154TIP3    H145953   0.319   4.257  13.216  0.1367 -3.5418 -1.4443
 8154TIP3    H245954   0.363   4.281  13.073 -1.0277  0.8456 -1.2079
 8155TIP3   OH245955   3.688   1.577   0.347  0.4687  0.3145 -0.2321
 8155TIP3    H145956   3.619   1.638   0.375  1.7712  2.2605 -1.0380
 8155TIP3    H245957   3.641   1.510   0.298 -1.0413  0.6360  0.6841
 8156TIP3   OH245958   6.415   5.115  13.390  0.0838 -0.3213  0.1896
 8156TIP3    H145959   6.489   5.125  13.450  1.1157 -0.2833 -1.0626
 8156TIP3    H245960   6.438   5.040  13.335 -1.0253 -0.6017  0.0638
 8157TIP3   OH245961   6.042   0.446  11.542 -0.3040 -0.5568 -0.4591
 8157TIP3    H145962   6.067   0.533  11.574  1.9708 -0.8810 -1.1748
 8157TIP3    H245963   5.949   0.454  11.521 -0.5874  1.1596  1.1994
 8158TIP3   OH245964   3.138   4.265   0.392 -0.5442  0.4480 -0.1535
 8158TIP3    H145965   3.103   4.335   0.447 -0.2413  0.8688 -0.4946
 8158TIP3    H245966   3.062   4.213   0.368 -0.7870  0.7334 -0.0042
 8159TIP3   OH245967   4.706   4.785  11.885 -0.0919  0.4229 -0.4107
 8159TIP3    H145968   4.759   4.860  11.910 -0.2069  1.2976 -2.5773
 8159TIP3    H245969   4.616   4.812  11.904 -0.0173  0.1496  0.3732
 8160TIP3   OH245970   2.514   5.228  16.322 -0.3140  0.3951  0.1317
 8160TIP3    H145971   2.543   5.144  16.286 -3.1079 -0.3450 -0.6258
 8160TIP3    H245972   2.463   5.205  16.400  1.1672  1.6407  1.5353
 8161TIP3   OH245973   6.562   2.549   0.749 -0.5773 -0.3957 -0.1726
 8161TIP3    H145974   6.546   2.606   0.824 -0.8136 -3.0848  1.9969
 8161TIP3    H245975   6.625   2.596   0.695 -0.3825  1.6603  1.7157
 8162TIP3   OH245976   6.368   1.622  15.232 -0.0155  0.4065  0.3041
 8162TIP3    H145977   6.404   1.703  15.271  0.2254 -0.1402  1.2551
 8162TIP3    H245978   6.275   1.641  15.219 -0.3939  0.2105  2.3399
 8163TIP3   OH245979   0.907   0.790   0.772  0.2243  0.5358 -0.1935
 8163TIP3    H145980   0.975   0.761   0.711  0.4751  0.7811 -0.0373
 8163TIP3    H245981   0.863   0.710   0.799 -0.7831  0.5493 -1.7223
 8164TIP3   OH245982   4.914   3.779  12.468 -0.0643  0.1693  0.6674
 8164TIP3    H145983   4.964   3.776  12.386 -2.4090 -2.4836 -0.8443
 8164TIP3    H245984   4.965   3.836  12.525  0.3190  4.5500 -3.4801
 8165TIP3   OH245985   6.511   0.055   1.824  0.2036  0.9137  0.1205
 8165TIP3    H145986   6.439   0.100   1.869 -0.5504 -2.7803  3.1941
 8165TIP3    H245987   6.471  -0.026   1.792  2.1521  0.7062 -1.9691
 8166TIP3   OH245988   0.629   5.464  10.992 -0.3131 -0.1375 -0.0119
 8166TIP3    H145989   0.615   5.370  10.989 -0.4966 -0.1059 -0.1196
 8166TIP3    H245990   0.542   5.502  10.982 -0.1692  0.0521 -0.5382
 8167TIP3   OH245991   3.404   2.872  11.858  0.3094 -0.9472  0.0040
 8167TIP3    H145992   3.433   2.782  11.843 -2.1894 -1.9133  0.4123
 8167TIP3    H245993   3.310   2.870  11.840  0.4072  1.9679 -1.4480
 8168TIP3   OH245994   0.816   3.363  14.605 -0.9424 -0.0371  0.1316
 8168TIP3    H145995   0.832   3.422  14.679 -0.5368 -1.3008  1.0780
 8168TIP3    H245996   0.898   3.315  14.594 -0.9495  0.2198 -1.2469
 8169TIP3   OH245997   4.153   3.527   2.046  0.1893 -0.0995  0.5169
 8169TIP3    H145998   4.203   3.594   2.092 -2.4158  1.8263  0.7867
 8169TIP3    H245999   4.063   3.558   2.049 -1.0475 -3.2354 -0.1430
 8170TIP3   OH246000   6.146   6.258   0.170 -0.4313  0.0486 -0.0475
 8170TIP3    H146001   6.197   6.211   0.104  0.6288  0.3918  0.5091
 8170TIP3    H246002   6.208   6.275   0.241 -1.1332  1.1014  0.3369
 8171TIP3   OH246003   1.569   0.897  12.959 -0.0713  0.5037 -0.3294
 8171TIP3    H146004   1.496   0.959  12.957 -0.3091  0.2326  0.0003
 8171TIP3    H246005   1.638   0.941  12.909  0.4247  1.8890  1.4466
 8172TIP3   OH246006   3.529   1.006  11.748  0.3811 -0.2625 -0.7615
 8172TIP3    H146007   3.593   1.067  11.710  0.6809 -2.4279 -4.1529
 8172TIP3    H246008   3.446   1.031  11.707  0.2969 -1.3862 -1.2974
 8173TIP3   OH246009   1.458   1.397  13.648  0.4799 -0.1600 -0.0761
 8173TIP3    H146010   1.500   1.416  13.732  0.1106 -1.1302  0.3420
 8173TIP3    H246011   1.523   1.343  13.602  0.0632 -0.9456  0.2309
 8174TIP3   OH246012   2.026   3.649  11.679 -0.3769  0.3081 -0.7083
 8174TIP3    H146013   1.990   3.560  11.684 -1.3466  0.7434  1.1277
 8174TIP3    H246014   1.972   3.694  11.614 -0.4814 -0.1793 -0.9648
 8175TIP3   OH246015   5.732   3.474   1.412  0.0387 -0.5618  0.7845
 8175TIP3    H146016   5.811   3.498   1.363 -0.5068 -1.4539 -0.6139
 8175TIP3    H246017   5.750   3.387   1.447 -0.5239 -1.0544 -0.0916
 8176TIP3   OH246018   1.778   4.595  13.856 -0.1119  0.0719 -0.0099
 8176TIP3    H146019   1.841   4.634  13.916  0.4890 -0.0803 -0.5246
 8176TIP3    H246020   1.697   4.587  13.907  0.1957  0.5602  0.5620
 8177TIP3   OH246021   1.206   2.197   1.008 -0.6674 -0.0329  0.0439
 8177TIP3    H146022   1.296   2.175   1.033 -0.4984  0.4103 -0.1618
 8177TIP3    H246023   1.215   2.240   0.923 -0.9819  0.8185  0.4266
 8178TIP3   OH246024   3.770   5.682  16.035  0.3970 -0.0128  0.6544
 8178TIP3    H146025   3.857   5.690  16.074  1.1023 -0.9661 -0.6393
 8178TIP3    H246026   3.712   5.669  16.110  1.2927  1.0440  1.5673
 8179TIP3   OH246027   3.494   1.094  12.346  0.9228 -0.2446 -0.1262
 8179TIP3    H146028   3.434   1.101  12.272  0.8306 -0.2360 -0.0517
 8179TIP3    H246029   3.542   1.176  12.346  0.7672 -0.1523 -0.0436
 8180TIP3   OH246030   0.750   2.423   5.952 -0.0281  0.2860  0.0714
 8180TIP3    H146031   0.696   2.344   5.964  1.7010 -0.8303  0.8619
 8180TIP3    H246032   0.735   2.475   6.030  0.3854 -0.2530  0.5177
 8181TIP3   OH246033   3.764   2.187  16.911 -0.6592  0.2109  0.5834
 8181TIP3    H146034   3.856   2.208  16.926 -0.1911 -0.0722 -1.5668
 8181TIP3    H246035   3.752   2.101  16.952  0.9695 -1.2999 -1.8883
 8182TIP3   OH246036   0.439   0.826  11.056  0.0114  0.2074 -0.3607
 8182TIP3    H146037   0.429   0.825  11.151 -1.2479  0.5471 -0.4753
 8182TIP3    H246038   0.499   0.754  11.037 -0.5258 -0.5122  0.6111
 8183TIP3   OH246039   2.086   4.265   4.493 -0.1624  0.1644  0.4598
 8183TIP3    H146040   2.173   4.242   4.460  0.0479  0.5412  0.7402
 8183TIP3    H246041   2.103   4.318   4.571 -0.6441  0.6554  0.2371
 8184TIP3   OH246042   0.785   5.907   1.911 -0.5116 -0.1752  0.2560
 8184TIP3    H146043   0.821   5.859   1.836 -1.6859  0.4815 -0.7581
 8184TIP3    H246044   0.796   5.847   1.985  1.1120 -0.6436 -0.3327
 8185TIP3   OH246045   6.160   6.398  16.694 -0.8436  0.3267 -0.2509
 8185TIP3    H146046   6.223   6.339  16.652 -2.2534  0.7626 -3.2393
 8185TIP3    H246047   6.105   6.341  16.748 -0.2964 -0.6116 -0.6681
 8186TIP3   OH246048   1.160   5.627   1.966 -0.5704  0.3515 -0.3172
 8186TIP3    H146049   1.176   5.579   1.885 -2.3029  0.1987 -0.6187
 8186TIP3    H246050   1.064   5.626   1.975 -0.3842 -0.5998  2.3152
 8187TIP3   OH246051   4.285   4.949   5.338  0.2654 -0.7118 -0.3232
 8187TIP3    H146052   4.376   4.931   5.360  0.0400 -0.2015  1.0735
 8187TIP3    H246053   4.269   5.038   5.369 -0.5293 -0.5330 -1.1744
 8188TIP3   OH246054   3.275   3.476  13.502  0.1570  0.2598 -0.0397
 8188TIP3    H146055   3.327   3.463  13.581  0.1691  1.7946  0.2467
 8188TIP3    H246056   3.331   3.448  13.431  1.1081  1.1720  0.3257
 8189TIP3   OH246057   0.476   0.337  17.047  0.0116  0.2267  0.3665
 8189TIP3    H146058   0.457   0.406  16.984  0.0081  1.4452  1.6537
 8189TIP3    H246059   0.571   0.328  17.046 -0.0869 -0.9145 -0.9679
 8190TIP3   OH246060   4.348   6.425  17.190 -0.4049  0.1221  0.2293
 8190TIP3    H146061   4.396   6.503  17.161 -0.8747 -0.2522 -1.7284
 8190TIP3    H246062   4.279   6.415  17.125 -1.0106 -1.3199  1.0656
 8191TIP3   OH246063   1.831   3.370  15.005  0.3096 -0.2085 -0.1357
 8191TIP3    H146064   1.840   3.464  15.022 -0.2272  0.3465 -2.5679
 8191TIP3    H246065   1.855   3.329  15.088 -1.3597  2.1125  1.6328
 8192TIP3   OH246066   6.643   3.726  15.871  0.0937 -0.3484 -0.2721
 8192TIP3    H146067   6.564   3.696  15.825 -1.6239  2.8123  0.3610
 8192TIP3    H246068   6.688   3.781  15.807  0.3620  0.0175  0.2258
 8193TIP3   OH246069   3.930   0.815  15.360  0.0991 -0.4612 -0.0328
 8193TIP3    H146070   4.001   0.802  15.298  0.4112 -0.9198  0.4113
 8193TIP3    H246071   3.974   0.835  15.443 -0.3032 -0.1588  0.1103
 8194TIP3   OH246072   2.415   1.639  13.752  0.2077 -0.0316 -0.2612
 8194TIP3    H146073   2.448   1.599  13.671 -0.0903  0.0305 -0.4121
 8194TIP3    H246074   2.329   1.599  13.765 -0.5270  1.2874 -0.9487
 8195TIP3   OH246075   6.395   6.402   4.903 -0.3489  0.1505  0.0630
 8195TIP3    H146076   6.427   6.461   4.835  1.3999 -1.5164 -0.6304
 8195TIP3    H246077   6.339   6.458   4.958  3.6076  3.3953  1.3219
 8196TIP3   OH246078   0.207   6.409  13.456 -0.1582  0.4307 -0.3743
 8196TIP3    H146079   0.229   6.501  13.440  1.3320 -0.1685 -2.0411
 8196TIP3    H246080   0.246   6.361  13.383  0.2206 -1.6794  1.1010
 8197TIP3   OH246081   3.488   1.249  11.433  0.0498  0.1178 -0.0488
 8197TIP3    H146082   3.572   1.212  11.462  0.7144  0.1659 -1.7477
 8197TIP3    H246083   3.490   1.340  11.461  0.6082  0.1312 -0.1177
 8198TIP3   OH246084   5.547   3.120   0.999 -0.0007  0.3533 -0.7075
 8198TIP3    H146085   5.630   3.081   1.027  0.2780  0.8116 -0.8706
 8198TIP3    H246086   5.528   3.080   0.915 -0.2143 -0.1342 -0.4300
 8199TIP3   OH246087   4.022   5.446  14.262 -0.3991 -0.0116  0.1816
 8199TIP3    H146088   4.073   5.527  14.255  0.9754 -0.9187 -0.9588
 8199TIP3    H246089   4.037   5.417  14.352  0.2807  0.2757  0.1725
 8200TIP3   OH246090   5.528   2.115  12.742  0.4187  0.0750  0.3648
 8200TIP3    H146091   5.583   2.056  12.793 -0.3170 -1.7516 -0.8037
 8200TIP3    H246092   5.439   2.097  12.772  0.2055  0.8368  0.2101
 8201TIP3   OH246093   0.744   2.511   1.963  0.0678 -0.4622 -0.4518
 8201TIP3    H146094   0.771   2.584   1.908 -0.9322 -0.0546 -0.4225
 8201TIP3    H246095   0.758   2.541   2.053 -0.5316 -0.2184 -0.4344
 8202TIP3   OH246096   6.069   0.862   0.669  0.4487 -0.4906 -0.3301
 8202TIP3    H146097   6.055   0.851   0.575 -1.2096 -2.2895  0.0612
 8202TIP3    H246098   6.068   0.773   0.704  0.4327  0.1796  1.4582
 8203TIP3   OH246099   3.914   4.827   6.571  0.3740 -0.1816 -0.1386
 8203TIP3    H146100   3.984   4.794   6.514  0.9404 -0.5625  0.7636
 8203TIP3    H246101   3.847   4.758   6.569  1.3525 -1.2291  1.3692
 8204TIP3   OH246102   1.369   1.073  12.870 -0.1572 -0.1288 -0.3028
 8204TIP3    H146103   1.334   1.092  12.783  1.5855 -0.8288 -1.2113
 8204TIP3    H246104   1.378   1.159  12.911 -0.0140  0.3088 -1.2248
 8205TIP3   OH246105   6.266   2.920  11.939  0.3611 -0.1618  0.0656
 8205TIP3    H146106   6.348   2.872  11.946 -0.6601 -2.2740 -1.3812
 8205TIP3    H246107   6.270   2.963  11.854  0.6850  1.2576  0.7700
 8206TIP3   OH246108   3.845   0.681  12.000  0.2529  0.2324  0.7345
 8206TIP3    H146109   3.937   0.695  12.024  1.6443 -0.6633 -3.2802
 8206TIP3    H246110   3.816   0.764  11.962  0.1337 -0.1156  0.0487
 8207TIP3   OH246111   2.165   4.485  16.832 -0.2075  0.2048  0.2283
 8207TIP3    H146112   2.129   4.492  16.744 -0.6449 -0.4005  0.3525
 8207TIP3    H246113   2.258   4.505  16.822 -0.4456  1.1020 -0.2077
 8208TIP3   OH246114   5.767   6.352  13.502 -0.1799 -0.1654  0.1723
 8208TIP3    H146115   5.796   6.396  13.422  0.0848 -0.4713  0.1010
 8208TIP3    H246116   5.681   6.317  13.479 -0.6250  0.7435  0.3851
 8209TIP3   OH246117   5.866   6.010   2.186 -0.5745  0.6462  0.0896
 8209TIP3    H146118   5.818   6.064   2.123 -0.1998 -1.1832 -1.8931
 8209TIP3    H246119   5.824   5.924   2.180 -0.2857  0.3090  2.1383
 8210TIP3   OH246120   0.230   2.211   1.473  0.1083 -0.1105 -0.3010
 8210TIP3    H146121   0.219   2.121   1.503  1.7924  0.2276  1.5454
 8210TIP3    H246122   0.141   2.239   1.449 -0.6572 -1.7962  0.3694
 8211TIP3   OH246123   0.441   5.426  16.128 -0.0734 -0.3912 -0.0608
 8211TIP3    H146124   0.528   5.391  16.109  0.4052  0.1134  1.1228
 8211TIP3    H246125   0.393   5.416  16.045  0.5152 -2.3593 -0.2238
 8212TIP3   OH246126   4.025   2.410  11.628  0.6527  0.3810 -0.7418
 8212TIP3    H146127   4.029   2.317  11.605  0.5999  0.7517 -2.3684
 8212TIP3    H246128   4.111   2.444  11.605 -0.0027  1.1483 -2.2271
 8213TIP3   OH246129   6.044   3.464   2.478  0.0922  0.1981  0.7479
 8213TIP3    H146130   6.083   3.452   2.564 -0.8245 -0.0059  1.1383
 8213TIP3    H246131   6.088   3.399   2.423 -0.6088 -0.9268  1.4830
 8214TIP3   OH246132   6.784   1.578  15.457  0.1326  0.0947  0.4938
 8214TIP3    H146133   6.757   1.528  15.380  0.6592  0.8031 -0.1582
 8214TIP3    H246134   6.742   1.533  15.530  0.6839 -1.3940 -0.0541
 8215TIP3   OH246135   3.201   0.416   3.010 -0.5763 -0.2316 -0.1224
 8215TIP3    H146136   3.218   0.336   2.961 -2.5940 -0.3987 -0.6411
 8215TIP3    H246137   3.189   0.483   2.943  0.8392  0.4896  0.3049
 8216TIP3   OH246138   4.262   2.911   2.143  0.2421 -0.1084 -0.3948
 8216TIP3    H146139   4.231   2.837   2.091  1.1413 -0.1020 -0.9704
 8216TIP3    H246140   4.313   2.964   2.081  0.7899  0.2432  0.3437
 8217TIP3   OH246141   0.376   0.337   2.895 -0.4089 -0.0628  0.1684
 8217TIP3    H146142   0.406   0.407   2.837 -1.2646 -0.3463 -0.6362
 8217TIP3    H246143   0.355   0.264   2.836  0.1798 -0.8994  0.9669
 8218TIP3   OH246144   0.064   5.325  15.820  1.0988 -0.4225  0.3694
 8218TIP3    H146145   0.035   5.342  15.730 -0.0146  1.1583  0.9680
 8218TIP3    H246146  -0.010   5.353  15.874  2.2985  0.0471  1.8385
 8219TIP3   OH246147   6.402   4.593   5.520 -0.1767  0.1112  0.0773
 8219TIP3    H146148   6.307   4.605   5.527 -0.0990  1.4848 -0.8184
 8219TIP3    H246149   6.428   4.556   5.605 -1.2574  1.5566  1.0953
 8220TIP3   OH246150   4.133   0.842   1.650 -0.6212 -0.4606 -0.0696
 8220TIP3    H146151   4.044   0.850   1.616 -0.6055 -0.1165 -0.0310
 8220TIP3    H246152   4.185   0.900   1.595 -0.4463 -0.5436  0.0072
 8221TIP3   OH246153   2.792   5.961   5.465 -0.3606  0.1234  0.3881
 8221TIP3    H146154   2.718   5.903   5.485 -0.3916 -0.3658 -1.0365
 8221TIP3    H246155   2.854   5.905   5.419  0.7293  0.6348  1.2120
 8222TIP3   OH246156   3.694   2.845  12.418  0.3920 -0.1032  0.5128
 8222TIP3    H146157   3.607   2.879  12.438  0.1415  0.4124 -1.2224
 8222TIP3    H246158   3.682   2.797  12.336  1.8648  0.6142 -0.1537
 8223TIP3   OH246159   0.119   0.587   0.475 -0.3244 -0.1355  0.3999
 8223TIP3    H146160   0.160   0.559   0.557 -0.3011 -0.8743  0.1445
 8223TIP3    H246161   0.193   0.599   0.415 -0.2495  1.4876  0.7918
 8224TIP3   OH246162   0.328   0.915   0.127 -0.5013  0.2136  0.1592
 8224TIP3    H146163   0.393   0.919   0.198  0.2031 -0.7956 -0.3966
 8224TIP3    H246164   0.288   0.829   0.136 -0.1434 -0.0784 -0.8771
 8225TIP3   OH246165   3.769   1.789   5.460 -0.3038 -0.5106 -0.0803
 8225TIP3    H146166   3.830   1.750   5.522 -0.4070 -1.5875 -0.6372
 8225TIP3    H246167   3.722   1.856   5.511 -1.2097 -2.1413  1.3344
 8226TIP3   OH246168   2.108   5.160  11.280  0.6779  0.2407  0.7981
 8226TIP3    H146169   2.069   5.089  11.228 -0.7805  1.4249  0.1719
 8226TIP3    H246170   2.106   5.128  11.370  0.8520 -0.8503  0.4243
 8227TIP3   OH246171   5.348   5.239  14.479 -0.2111 -0.1697 -0.1321
 8227TIP3    H146172   5.320   5.152  14.509 -1.0213  0.1819  0.1799
 8227TIP3    H246173   5.273   5.296  14.499  0.8820  0.9087  1.0700
 8228TIP3   OH246174   2.233   2.329  13.835 -0.3113 -0.1172 -0.2476
 8228TIP3    H146175   2.156   2.304  13.784  0.1147  0.0835 -1.0161
 8228TIP3    H246176   2.202   2.399  13.893 -0.5465  0.4868 -1.0833
 8229TIP3   OH246177   4.648   4.721  14.417 -0.2261  0.7875 -0.1043
 8229TIP3    H146178   4.643   4.638  14.369 -0.4780  0.5139  0.3861
 8229TIP3    H246179   4.742   4.740  14.422 -0.2404  1.4244 -1.7071
 8230TIP3   OH246180   4.213   5.405   2.978  0.7727  0.9883  0.0935
 8230TIP3    H146181   4.283   5.412   3.043  0.7688  2.3733 -0.0331
 8230TIP3    H246182   4.244   5.456   2.903 -0.3940  1.6995  0.0629
 8231TIP3   OH246183   0.969   2.918  12.715 -0.2723  0.0841 -0.1056
 8231TIP3    H146184   0.897   2.939  12.655  0.1447  2.2625  0.0764
 8231TIP3    H246185   0.998   3.003  12.748  0.7632 -0.9222  1.7380
 8232TIP3   OH246186   2.727   1.640   2.799 -0.7531  0.3287  0.1351
 8232TIP3    H146187   2.689   1.609   2.717 -0.4472  0.8728 -0.2175
 8232TIP3    H246188   2.666   1.610   2.866 -0.7747 -0.5206 -0.2458
 8233TIP3   OH246189   6.563   0.171   6.624  0.3023  0.1825 -0.5358
 8233TIP3    H146190   6.521   0.112   6.562 -1.5106  1.1979 -0.3311
 8233TIP3    H246191   6.648   0.131   6.642  0.2995 -0.8593 -2.5826
 8234TIP3   OH246192   5.997   5.945   0.887  1.0803 -0.1662 -0.1246
 8234TIP3    H146193   6.029   5.987   0.808 -1.4323  0.8630 -0.7095
 8234TIP3    H246194   5.903   5.967   0.889  0.3279 -3.0179  1.3097
 8235TIP3   OH246195   4.051   3.244  15.867 -0.1827  0.8905  0.3237
 8235TIP3    H146196   4.033   3.236  15.961 -1.3801  2.8573  0.3149
 8235TIP3    H246197   4.120   3.310  15.861  0.3151  0.3334 -0.1551
 8236TIP3   OH246198   3.516   3.364  11.469  0.0100  0.3590 -0.0886
 8236TIP3    H146199   3.559   3.301  11.411 -0.2612  0.7939 -0.7810
 8236TIP3    H246200   3.528   3.449  11.425 -1.1633  0.5438 -0.0664
 8237TIP3   OH246201   3.784   5.039  14.824  0.0903  0.7786 -0.3622
 8237TIP3    H146202   3.862   5.040  14.880 -0.4847 -0.8203  0.5187
 8237TIP3    H246203   3.712   5.058  14.884 -0.1673  3.5435 -1.3789
 8238TIP3   OH246204   2.201   3.449  13.714  0.1995 -0.5546 -0.1176
 8238TIP3    H146205   2.213   3.383  13.646  0.5184 -0.9109  0.2752
 8238TIP3    H246206   2.150   3.405  13.782 -1.3268  0.2280 -0.7258
 8239TIP3   OH246207   1.303   1.480   4.776  0.7891 -0.3754 -0.3271
 8239TIP3    H146208   1.299   1.497   4.682  0.6064  0.2866 -0.2033
 8239TIP3    H246209   1.368   1.541   4.809 -1.2672  1.5217  0.4161
 8240TIP3   OH246210   5.476   5.688   0.742 -0.3840  0.1320 -0.1140
 8240TIP3    H146211   5.492   5.670   0.835 -1.8881 -0.3528  0.0763
 8240TIP3    H246212   5.381   5.696   0.735 -0.3796 -0.7381 -1.7641
 8241TIP3   OH246213   0.531   3.174  16.158 -0.6316  0.5315  0.0104
 8241TIP3    H146214   0.612   3.157  16.208 -0.2014  0.4692 -0.6937
 8241TIP3    H246215   0.512   3.267  16.175 -1.8895 -0.0607  2.2732
 8242TIP3   OH246216   3.250   0.702   0.440  0.3979 -0.9376 -0.1755
 8242TIP3    H146217   3.163   0.703   0.399  0.7510  1.1205 -0.9758
 8242TIP3    H246218   3.285   0.615   0.418 -1.6481 -2.0732  0.7055
 8243TIP3   OH246219   5.584   1.104   2.373  0.2587 -0.4781 -0.5481
 8243TIP3    H146220   5.525   1.161   2.423  1.4106  2.3396 -2.1549
 8243TIP3    H246221   5.632   1.054   2.439  1.0653  2.3926  1.2135
 8244TIP3   OH246222   2.243   2.536  16.880 -0.6018 -0.1724 -0.1910
 8244TIP3    H146223   2.173   2.560  16.940  0.6653  0.9587  0.9233
 8244TIP3    H246224   2.291   2.466  16.924 -0.5210 -0.3519 -0.5542
 8245TIP3   OH246225   0.020   4.626  13.067 -0.0177  0.0566 -0.2515
 8245TIP3    H146226   0.012   4.717  13.037  2.5811  0.4405 -0.0287
 8245TIP3    H246227  -0.048   4.617  13.133 -1.6686  1.1751 -1.6885
 8246TIP3   OH246228   4.013   2.225  17.064  0.2422 -0.1350  0.2777
 8246TIP3    H146229   4.021   2.261  17.153  0.7832  1.8483 -0.5319
 8246TIP3    H246230   4.031   2.299  17.006 -0.5764 -1.2728 -1.5117
 8247TIP3   OH246231   4.868   4.769  17.023 -0.1178  0.1834  0.4697
 8247TIP3    H146232   4.947   4.726  17.056  0.4817  0.5170 -0.4668
 8247TIP3    H246233   4.796   4.713  17.051  0.4057  0.0831  1.6911
 8248TIP3   OH246234   0.831   1.450  16.355  0.1716  0.3167  0.3773
 8248TIP3    H146235   0.760   1.480  16.412  0.7015 -0.4167  1.4383
 8248TIP3    H246236   0.827   1.510  16.280 -2.3789 -0.4837 -0.2249
 8249TIP3   OH246237   3.243   1.644   2.110 -0.5662  0.1021 -0.1200
 8249TIP3    H146238   3.159   1.627   2.068 -0.0304  0.4149 -1.3608
 8249TIP3    H246239   3.224   1.710   2.177 -1.1408  0.8487 -1.0083
 8250TIP3   OH246240   3.962   6.258   1.726  0.0361 -0.9113  0.8959
 8250TIP3    H146241   4.014   6.216   1.795 -0.9099 -1.3896  1.3422
 8250TIP3    H246242   3.880   6.208   1.724  0.2427 -1.2387 -0.9557
 8251TIP3   OH246243   5.289   0.613   2.542  0.1253 -0.3174 -0.0206
 8251TIP3    H146244   5.315   0.692   2.494 -0.6697 -0.4586 -0.7094
 8251TIP3    H246245   5.345   0.544   2.506 -1.1417 -0.6223 -1.5020
 8252TIP3   OH246246   3.494   0.262   5.172  0.2876  0.0035  0.3056
 8252TIP3    H146247   3.457   0.222   5.093 -0.2356  0.6090  0.2392
 8252TIP3    H246248   3.419   0.298   5.219  0.3587 -1.8666  2.0003
 8253TIP3   OH246249   2.981   1.555  15.439 -0.3245 -0.5181  0.3605
 8253TIP3    H146250   2.921   1.628  15.424 -0.6829 -0.8655  0.1117
 8253TIP3    H246251   2.933   1.477  15.412  0.3081 -0.7796 -0.0456
 8254TIP3   OH246252   5.791   1.103  10.816 -0.2064  0.0911  0.5369
 8254TIP3    H146253   5.714   1.075  10.865 -1.1682  1.6313 -0.0035
 8254TIP3    H246254   5.795   1.198  10.830  1.1976  0.1423 -0.0086
 8255TIP3   OH246255   5.614   1.843   0.752  0.2598 -0.1378 -0.1500
 8255TIP3    H146256   5.589   1.755   0.779  2.5444 -0.4852  1.0217
 8255TIP3    H246257   5.603   1.896   0.831  0.0655  0.3903 -0.5232
 8256TIP3   OH246258   4.894   6.572  14.841  0.5925 -0.5343  0.1775
 8256TIP3    H146259   4.829   6.626  14.796 -1.3203 -1.0037  2.2034
 8256TIP3    H246260   4.937   6.631  14.902  1.2740 -0.4751 -0.3531
 8257TIP3   OH246261   0.729   0.153  14.825  0.1486 -0.0581  0.7098
 8257TIP3    H146262   0.714   0.221  14.760 -0.2653  0.2880  1.1530
 8257TIP3    H246263   0.642   0.120  14.846  0.3928 -1.2067  0.0115
 8258TIP3   OH246264   0.396   0.287   1.286 -0.3409  0.2959  0.3157
 8258TIP3    H146265   0.305   0.313   1.295  0.0629  1.2123  2.5132
 8258TIP3    H246266   0.394   0.191   1.291 -1.2826  0.1832 -1.4248
 8259TIP3   OH246267   0.355   2.364  11.946 -0.2900 -0.0107  0.5028
 8259TIP3    H146268   0.324   2.353  12.036  1.5367 -1.1044  1.0591
 8259TIP3    H246269   0.307   2.298  11.896 -1.8461  1.0812  0.4989
 8260TIP3   OH246270   5.930   4.538   4.715  0.2867 -0.2193  0.2278
 8260TIP3    H146271   6.006   4.499   4.673  0.2203  1.0265 -1.1360
 8260TIP3    H246272   5.867   4.467   4.722  0.0449 -0.3656 -2.4705
 8261TIP3   OH246273   6.103   1.745   0.168  0.2706  0.0881  0.2712
 8261TIP3    H146274   6.114   1.698   0.250  1.1075 -1.3631 -0.6350
 8261TIP3    H246275   6.191   1.771   0.142  0.3160 -1.3441 -1.1949
 8262TIP3   OH246276   4.472   4.627   3.408 -0.3564 -0.0543 -0.0423
 8262TIP3    H146277   4.506   4.538   3.418 -0.2586 -0.0273 -0.1224
 8262TIP3    H246278   4.377   4.617   3.403 -0.5742  0.0666  2.5030
 8263TIP3   OH246279   6.789   6.521   5.319 -0.8679  0.4730 -0.0132
 8263TIP3    H146280   6.872   6.558   5.350 -0.7949  2.1296 -1.9120
 8263TIP3    H246281   6.807   6.427   5.309  0.6114  0.7043  0.1832
 8264TIP3   OH246282   2.172   3.206   0.769  0.3878 -0.4430 -0.3132
 8264TIP3    H146283   2.221   3.125   0.776 -0.6365 -1.0438  0.2285
 8264TIP3    H246284   2.090   3.189   0.816 -1.7608 -0.6064 -3.7554
 8265TIP3   OH246285   5.234   3.117   4.071 -0.4610  0.1217  0.3060
 8265TIP3    H146286   5.297   3.188   4.074 -1.4780  1.0127  2.7980
 8265TIP3    H246287   5.286   3.037   4.083  0.2906  0.7567  1.3874
 8266TIP3   OH246288   1.081   5.155  16.967 -0.4112  0.1918  0.0030
 8266TIP3    H146289   0.990   5.132  16.945 -0.1007 -0.4929 -0.6264
 8266TIP3    H246290   1.130   5.133  16.888  0.1741  1.4504 -0.0012
 8267TIP3   OH246291   0.822   2.179   2.155 -0.1069 -0.5520  0.4043
 8267TIP3    H146292   0.792   2.240   2.222  0.9392 -2.0273  2.3073
 8267TIP3    H246293   0.851   2.235   2.083 -1.1959  1.0871  1.1750
 8268TIP3   OH246294   1.277   1.478   3.717 -0.2225  0.2726  0.1262
 8268TIP3    H146295   1.248   1.562   3.682 -1.1426 -0.8936 -2.0694
 8268TIP3    H246296   1.212   1.456   3.783 -1.9035 -0.2328 -1.6320
 8269TIP3   OH246297   4.909   3.097  15.927  0.0727 -0.0807  0.6675
 8269TIP3    H146298   4.819   3.070  15.939 -0.2231  0.0580 -0.9927
 8269TIP3    H246299   4.958   3.016  15.915 -0.1800 -0.0934 -0.4122
 8270TIP3   OH246300   0.635   1.874   3.324 -0.4735 -1.0268 -0.3599
 8270TIP3    H146301   0.704   1.813   3.346  0.3409 -1.6058 -3.9990
 8270TIP3    H246302   0.565   1.820   3.288 -1.4143 -0.1337  0.0635
 8271TIP3   OH246303   2.685   5.172   5.066 -0.1127 -0.0909  0.5046
 8271TIP3    H146304   2.658   5.171   4.974  1.3189 -1.3317  0.0618
 8271TIP3    H246305   2.612   5.129   5.112  0.4651 -2.3527 -0.5219
 8272TIP3   OH246306   0.227   3.574  13.004 -0.3122  0.5922 -0.0174
 8272TIP3    H146307   0.178   3.638  12.952 -0.4919  1.1396  0.8069
 8272TIP3    H246308   0.296   3.625  13.046  1.7666 -0.3531 -2.0740
 8273TIP3   OH246309   1.540   5.213  15.797  0.0568 -0.1744  0.3891
 8273TIP3    H146310   1.521   5.120  15.781 -1.7583  0.4210 -1.1879
 8273TIP3    H246311   1.619   5.230  15.745 -0.8871 -0.3371 -1.1517
 8274TIP3   OH246312   0.073   5.184   1.870 -0.5303  0.2457 -0.5004
 8274TIP3    H146313   0.100   5.262   1.919  0.5389  0.6710 -1.7284
 8274TIP3    H246314  -0.008   5.211   1.827 -0.3943  0.5416 -0.5768
 8275TIP3   OH246315   2.339   2.741  12.929 -0.0252  0.0446 -0.1632
 8275TIP3    H146316   2.251   2.762  12.959 -0.2913 -0.8025 -0.3282
 8275TIP3    H246317   2.348   2.787  12.846 -0.1018  0.5971  0.1344
 8276TIP3   OH246318   2.912   2.107   3.693  0.8322 -0.2137 -0.1364
 8276TIP3    H146319   2.834   2.158   3.671  0.4939 -1.1376 -1.2034
 8276TIP3    H246320   2.942   2.143   3.776 -2.6906 -2.0336  2.1736
 8277TIP3   OH246321   2.366   2.204  12.133  0.0904 -0.1415 -0.1106
 8277TIP3    H146322   2.329   2.252  12.059 -0.9819  0.4883  0.8042
 8277TIP3    H246323   2.450   2.247  12.151 -0.1259  0.3604 -0.3068
 8278TIP3   OH246324   1.980   0.526  11.831 -0.2792 -0.1242  0.2864
 8278TIP3    H146325   1.997   0.620  11.836 -0.7888 -0.0722  1.2424
 8278TIP3    H246326   2.064   0.484  11.846 -0.2045  0.1706  0.6820
 8279TIP3   OH246327   1.974   5.624   5.877 -0.1265  0.0121  0.2372
 8279TIP3    H146328   1.973   5.710   5.920  1.3990  0.0816  0.1612
 8279TIP3    H246329   1.947   5.642   5.787 -0.6320  0.2746  0.4342
 8280TIP3   OH246330   2.938   1.796  10.482 -0.1242  0.3372 -0.0156
 8280TIP3    H146331   2.947   1.726  10.417 -2.0202  0.4561 -0.4562
 8280TIP3    H246332   2.989   1.766  10.557 -0.6127 -1.3619 -0.3279
 8281TIP3   OH246333   3.229   5.530   0.658 -0.0896  0.2252 -0.0919
 8281TIP3    H146334   3.291   5.470   0.701  0.1966  1.6568  1.5952
 8281TIP3    H246335   3.277   5.613   0.650 -1.5853  1.2028  0.7169
 8282TIP3   OH246336   6.441   3.584   0.318  0.5167 -0.0865  0.1908
 8282TIP3    H146337   6.423   3.508   0.262 -1.2571 -2.5519  3.7160
 8282TIP3    H246338   6.364   3.640   0.309 -0.0048 -0.7381  0.5079
 8283TIP3   OH246339   2.708   5.752  13.710 -0.7481 -0.4283  0.2978
 8283TIP3    H146340   2.632   5.807  13.692 -0.7207  0.1793  1.8683
 8283TIP3    H246341   2.722   5.703  13.629 -1.9158  0.5070 -0.5079
 8284TIP3   OH246342   0.245   5.465   3.799 -0.0397 -0.3537  0.4561
 8284TIP3    H146343   0.182   5.412   3.848 -0.4582 -0.3486 -0.0626
 8284TIP3    H246344   0.322   5.470   3.856  0.8407 -3.2496 -0.2648
 8285TIP3   OH246345   4.762   2.976  10.817  0.0270  0.0647 -0.0731
 8285TIP3    H146346   4.689   3.024  10.778 -0.9373 -1.9047 -0.8759
 8285TIP3    H246347   4.746   2.980  10.911 -1.1245 -0.2929 -0.2365
 8286TIP3   OH246348   0.912   1.898   5.030 -0.1555  0.0539 -0.1803
 8286TIP3    H146349   0.832   1.854   5.059  1.4891 -2.4299  0.9447
 8286TIP3    H246350   0.926   1.967   5.096 -0.4549 -0.6434  0.6339
 8287TIP3   OH246351   3.320   3.332  15.254 -0.3521  0.2695  0.1662
 8287TIP3    H146352   3.245   3.303  15.306 -0.3764  1.8489  1.0710
 8287TIP3    H246353   3.286   3.405  15.202  0.3145  0.3611 -0.1533
 8288TIP3   OH246354   1.439   5.172  14.215 -0.8218 -0.3582 -0.2198
 8288TIP3    H146355   1.468   5.182  14.306 -1.3049 -0.3110 -0.0694
 8288TIP3    H246356   1.482   5.244  14.168  0.9367 -1.4624 -0.4095
 8289TIP3   OH246357   2.629   3.461  15.658 -0.2355 -0.2981  0.0221
 8289TIP3    H146358   2.610   3.553  15.640  2.8463  0.7308  1.3644
 8289TIP3    H246359   2.662   3.426  15.575  1.2660  0.6648  0.1769
 8290TIP3   OH246360   1.235   2.013   0.257 -0.2195  0.3200 -0.0924
 8290TIP3    H146361   1.149   1.987   0.224 -0.0309  0.5172 -0.7684
 8290TIP3    H246362   1.297   1.967   0.201  0.1232  0.0099  0.5307
 8291TIP3   OH246363   6.329   4.292   3.332 -0.3883  0.5538 -0.2073
 8291TIP3    H146364   6.298   4.210   3.293  1.0608 -0.0318 -0.1997
 8291TIP3    H246365   6.265   4.313   3.400 -0.1190 -1.2984  0.6769
 8292TIP3   OH246366   2.024   2.072   4.263  0.4512  0.0716 -0.1886
 8292TIP3    H146367   2.089   2.121   4.313  0.0390  0.5013 -0.0764
 8292TIP3    H246368   2.058   2.072   4.174 -0.3982  2.0666 -0.5512
 8293TIP3   OH246369   3.632   0.916   2.785  0.0535  0.5323  0.4001
 8293TIP3    H146370   3.551   0.866   2.778 -0.1133  0.7427  0.8056
 8293TIP3    H246371   3.639   0.938   2.878  0.2354  1.0778  0.2622
 8294TIP3   OH246372   6.207   6.426  14.313 -0.6082 -0.1948 -0.2554
 8294TIP3    H146373   6.124   6.381  14.299 -0.3951 -0.6291 -0.1444
 8294TIP3    H246374   6.262   6.361  14.357  0.1900 -0.3155 -1.3966
 8295TIP3   OH246375   2.620   5.341   6.555 -0.0096  0.9102 -0.6343
 8295TIP3    H146376   2.679   5.409   6.586  1.4570  0.0853 -1.5312
 8295TIP3    H246377   2.677   5.273   6.521 -1.3994 -1.1001  0.8415
 8296TIP3   OH246378   0.145   1.223  11.627 -0.0311 -0.2018  0.0980
 8296TIP3    H146379   0.114   1.235  11.537  1.8587 -0.8335 -0.6948
 8296TIP3    H246380   0.115   1.135  11.650 -0.6175  0.0041  0.1551
 8297TIP3   OH246381   4.778   2.563  15.078  0.0380  0.1570  0.5286
 8297TIP3    H146382   4.685   2.542  15.087  0.1665 -0.0624  1.4354
 8297TIP3    H246383   4.793   2.563  14.983 -1.0939  1.1486  0.3209
 8298TIP3   OH246384   3.592   0.921  13.232  0.3428  0.9644  0.5586
 8298TIP3    H146385   3.568   0.889  13.319 -0.4672  1.7042  0.6177
 8298TIP3    H246386   3.516   0.971  13.203 -0.2484 -0.9373 -1.4195
 8299TIP3   OH246387   0.202   4.493  10.706  0.5705  0.3565 -0.0661
 8299TIP3    H146388   0.296   4.507  10.697  0.6857 -0.7166 -0.7611
 8299TIP3    H246389   0.165   4.581  10.715  1.6080  0.8040 -0.0765
 8300TIP3   OH246390   1.978   6.091  15.734  0.5069  0.2240 -0.3245
 8300TIP3    H146391   1.919   6.166  15.742 -0.3987 -0.3522 -1.3191
 8300TIP3    H246392   2.001   6.070  15.824 -1.9719 -0.4152  0.2465
 8301TIP3   OH246393   0.988   6.082  16.210  0.0267  0.1972  0.2506
 8301TIP3    H146394   0.931   6.075  16.287 -0.5649 -1.9599 -0.3084
 8301TIP3    H246395   0.933   6.051  16.137  1.8737 -2.1653 -0.2672
 8302TIP3   OH246396   5.291   1.995  12.730  0.6916  0.0920  0.1913
 8302TIP3    H146397   5.290   1.977  12.636  0.0904  0.9733  0.0161
 8302TIP3    H246398   5.305   1.909  12.771 -0.7705 -0.5867 -0.6382
 8303TIP3   OH246399   2.284   6.196   1.819  0.4287  0.2048  0.2339
 8303TIP3    H146400   2.293   6.149   1.902 -0.0676  0.6791  0.5606
 8303TIP3    H246401   2.193   6.225   1.817  0.6544  0.9211 -0.0898
 8304TIP3   OH246402   1.902   3.191  16.275  0.3103 -0.1320 -0.0003
 8304TIP3    H146403   1.960   3.215  16.203  1.5766  0.4581  1.1625
 8304TIP3    H246404   1.837   3.261  16.277 -1.3807 -1.5049 -2.1916
 8305TIP3   OH246405   5.867   4.116  17.042 -0.0274 -0.5002 -0.1789
 8305TIP3    H146406   5.807   4.187  17.065  1.4690  0.5177  0.7961
 8305TIP3    H246407   5.875   4.063  17.121  0.3803 -0.5981 -0.2789
 8306TIP3   OH246408   1.461   0.940  14.543 -0.2492  0.3544 -0.4656
 8306TIP3    H146409   1.386   0.946  14.484 -0.4022  0.6745 -0.2423
 8306TIP3    H246410   1.459   0.851  14.577  0.8327 -0.4001 -2.2498
 8307TIP3   OH246411   1.467   6.351  15.545  0.5152 -0.7008  0.4008
 8307TIP3    H146412   1.502   6.410  15.478  1.3308 -0.1318  1.2936
 8307TIP3    H246413   1.372   6.368  15.545  0.4070 -1.2486 -1.0931
 8308TIP3   OH246414   4.480   1.459  16.504 -0.1139  0.2967 -0.0379
 8308TIP3    H146415   4.563   1.490  16.466  0.4525 -2.2131 -1.0492
 8308TIP3    H246416   4.472   1.369  16.474 -1.8797 -0.4323  2.2931
 8309TIP3   OH246417   6.518   3.131  13.098 -0.1725  0.1368 -0.4433
 8309TIP3    H146418   6.576   3.193  13.141  1.0337 -1.6962  0.7094
 8309TIP3    H246419   6.577   3.075  13.046 -1.0941 -0.6724 -0.6500
 8310TIP3   OH246420   0.673   2.738   3.314  0.1541 -0.2713 -0.6561
 8310TIP3    H146421   0.669   2.693   3.398  1.1951  0.4086 -0.2127
 8310TIP3    H246422   0.582   2.749   3.288 -0.3194  1.5131  1.4847
 8311TIP3   OH246423   5.558   4.994   1.439 -0.2414 -0.9403  0.1714
 8311TIP3    H146424   5.511   4.967   1.360 -3.1125  0.2638  1.3324
 8311TIP3    H246425   5.551   5.090   1.440  0.6795 -0.8618  1.3496
 8312TIP3   OH246426   0.540   5.495  13.551 -0.0656 -0.2785 -0.5501
 8312TIP3    H146427   0.610   5.471  13.489  0.4926  0.4868 -0.2376
 8312TIP3    H246428   0.586   5.507  13.634 -0.0273  3.2335 -0.9506
 8313TIP3   OH246429   0.880   2.578  15.072  0.0309 -0.3569  0.0709
 8313TIP3    H146430   0.930   2.590  15.153 -1.0957  2.2406  0.4763
 8313TIP3    H246431   0.791   2.560  15.101 -0.2844  0.1341 -0.5589
 8314TIP3   OH246432   5.791   0.778   6.630  0.3851 -1.0395  0.2853
 8314TIP3    H146433   5.794   0.768   6.535 -3.1161 -0.7388 -0.0056
 8314TIP3    H246434   5.847   0.854   6.649  0.3544 -0.4884 -1.6615
 8315TIP3   OH246435   5.865   0.351   5.512 -0.5312 -0.0965 -0.0801
 8315TIP3    H146436   5.842   0.444   5.504  0.1343 -0.0794 -2.1567
 8315TIP3    H246437   5.813   0.307   5.446 -0.2607 -1.1170  0.3636
 8316TIP3   OH246438   2.725   5.402   4.103  0.3761  0.0250  0.1004
 8316TIP3    H146439   2.648   5.421   4.049 -0.7631 -1.8596  0.9789
 8316TIP3    H246440   2.781   5.479   4.091 -1.3030  1.1490 -1.1271
 8317TIP3   OH246441   2.112   4.914  13.409 -0.5496 -0.1968  0.3499
 8317TIP3    H146442   2.023   4.907  13.375 -0.1172  1.1461 -1.1765
 8317TIP3    H246443   2.165   4.865  13.347 -0.0768 -0.0364  0.6245
 8318TIP3   OH246444   4.087   4.285  14.305 -0.3625 -0.0374  0.4122
 8318TIP3    H146445   4.095   4.335  14.223 -1.4965  0.5511  0.6517
 8318TIP3    H246446   4.040   4.343  14.364 -0.7662 -0.9906  1.0403
 8319TIP3   OH246447   2.184   4.201  12.590  0.2162 -0.4166  0.3236
 8319TIP3    H146448   2.208   4.255  12.515  0.3797  1.2986  1.5445
 8319TIP3    H246449   2.187   4.261  12.665 -0.8964 -1.8296  1.5723
 8320TIP3   OH246450   4.725   1.103  17.190 -0.2683 -0.4801 -0.0533
 8320TIP3    H146451   4.775   1.111  17.271  0.6735  0.9616 -0.7400
 8320TIP3    H246452   4.653   1.167  17.199 -0.5556 -0.7942 -0.0864
 8321TIP3   OH246453   3.230   2.145   3.603  0.2945  0.1387 -0.0795
 8321TIP3    H146454   3.170   2.089   3.653 -0.0242 -1.3777 -2.0151
 8321TIP3    H246455   3.302   2.087   3.578 -0.8931 -0.0707 -3.6566
 8322TIP3   OH246456   5.057   3.844   4.355 -0.0503 -0.5414 -0.4674
 8322TIP3    H146457   4.980   3.896   4.379 -0.4332 -0.7070 -1.3083
 8322TIP3    H246458   5.113   3.847   4.433 -0.6763  0.0018 -0.0267
 8323TIP3   OH246459   2.351   1.445   4.336  0.4134  0.4226 -0.0233
 8323TIP3    H146460   2.356   1.540   4.328 -2.9743  0.7798  0.5055
 8323TIP3    H246461   2.436   1.419   4.371  1.0142  3.4112  1.0407
 8324TIP3   OH246462   5.282   2.961  15.780 -0.1354  0.0392 -0.2313
 8324TIP3    H146463   5.204   2.941  15.831 -0.0629  0.1122 -0.0895
 8324TIP3    H246464   5.327   3.028  15.831  0.3049 -0.4059 -0.0211
 8325TIP3   OH246465   1.632   5.759   2.604 -0.0883 -0.3354 -0.4561
 8325TIP3    H146466   1.728   5.760   2.604 -0.0902  0.2556 -1.1863
 8325TIP3    H246467   1.608   5.725   2.518 -0.5414 -1.4299  0.0826
 8326TIP3   OH246468   6.206   2.460  15.538  0.2809  0.1524 -0.2271
 8326TIP3    H146469   6.169   2.386  15.586  0.8380 -0.0642 -0.1241
 8326TIP3    H246470   6.290   2.476  15.580  0.2375  0.7373 -0.3594
 8327TIP3   OH246471   1.406   4.509  13.668 -0.3936  0.6303  0.2475
 8327TIP3    H146472   1.389   4.566  13.742  0.5862  2.1712 -0.6705
 8327TIP3    H246473   1.481   4.455  13.696  0.8451  2.1300 -0.0726
 8328TIP3   OH246474   0.469   2.972  17.094  0.0574  0.2170 -0.1084
 8328TIP3    H146475   0.430   2.889  17.065  1.5656 -0.9627  1.0544
 8328TIP3    H246476   0.512   3.006  17.015  0.9790 -1.0584 -0.1839
 8329TIP3   OH246477   1.322   4.986  16.466  0.3819 -0.0785  0.2216
 8329TIP3    H146478   1.291   4.945  16.547  1.0905  0.0567  0.5647
 8329TIP3    H246479   1.253   5.049  16.443  1.1840  1.5218  1.9623
 8330TIP3   OH246480   4.591   1.450  13.319  0.5386  0.2680  0.2752
 8330TIP3    H146481   4.605   1.383  13.252 -0.4196  1.5079 -1.2339
 8330TIP3    H246482   4.679   1.482  13.339  0.9638 -1.1077  0.6797
 8331TIP3   OH246483   6.276   4.643  12.889 -0.3500 -0.2362 -0.1035
 8331TIP3    H146484   6.322   4.715  12.931 -1.1869 -0.7641  1.8077
 8331TIP3    H246485   6.338   4.610  12.823  1.2694  0.2186  1.1353
 8332TIP3   OH246486   5.050   0.991   0.765 -0.2349  0.3102 -0.0123
 8332TIP3    H146487   5.103   1.055   0.717  1.0615  0.1264  1.0929
 8332TIP3    H246488   5.076   1.003   0.856 -1.8546 -0.0685  0.5304
 8333TIP3   OH246489   5.739   6.815   0.219  0.6506 -0.1022  0.1441
 8333TIP3    H146490   5.682   6.885   0.188  0.9750  0.4388  0.7419
 8333TIP3    H246491   5.776   6.848   0.301  1.4882 -0.6135 -0.0100
 8334TIP3   OH246492   1.119   5.544  16.870 -0.5125 -0.3524 -0.2997
 8334TIP3    H146493   1.056   5.524  16.801  0.3620  0.0084 -1.2345
 8334TIP3    H246494   1.134   5.638  16.863  0.5096 -0.5078 -0.4527
 8335TIP3   OH246495   6.634   0.914  12.653 -0.2182 -0.5838 -0.4780
 8335TIP3    H146496   6.628   0.979  12.722 -0.6635  0.3006 -1.3220
 8335TIP3    H246497   6.721   0.875  12.663  0.3208  0.6206 -0.3656
 8336TIP3   OH246498   4.580   2.641   0.253  0.0756  0.1440 -0.7275
 8336TIP3    H146499   4.617   2.721   0.289  1.2905 -0.5105 -0.4769
 8336TIP3    H246500   4.580   2.579   0.326  0.0472 -0.3700 -1.1532
 8337TIP3   OH246501   2.020   1.058   0.966 -0.4380  0.0492  0.5107
 8337TIP3    H146502   2.052   1.077   1.055  0.0496  0.0118  0.3501
 8337TIP3    H246503   1.985   1.141   0.935 -3.1520 -0.5223  1.7256
 8338TIP3   OH246504   3.073   5.301  12.397  0.3844  0.5756  0.1918
 8338TIP3    H146505   3.067   5.262  12.484  0.6338  0.5079  0.1801
 8338TIP3    H246506   3.128   5.378  12.409  0.1209  0.7673  0.1625
 8339TIP3   OH246507   3.084   6.658  11.768  0.2564  0.6115 -0.2091
 8339TIP3    H146508   3.028   6.651  11.845  0.6075 -0.3962 -0.0225
 8339TIP3    H246509   3.172   6.642  11.801  0.2535 -1.4049 -1.0173
 8340TIP3   OH246510   1.417   6.260   5.036  0.1791 -0.5388 -0.1485
 8340TIP3    H146511   1.380   6.324   4.976 -0.0377  1.9454  2.4554
 8340TIP3    H246512   1.506   6.291   5.052  0.0506 -0.8377  1.2251
 8341TIP3   OH246513   1.197   3.292  11.290  0.6523 -0.6296  0.2472
 8341TIP3    H146514   1.103   3.312  11.281  1.0041  0.7469 -0.6510
 8341TIP3    H246515   1.227   3.278  11.200  1.5632  0.2880  0.3851
 8342TIP3   OH246516   5.249   3.224   3.280  0.6288  0.5210 -0.1927
 8342TIP3    H146517   5.337   3.186   3.275  1.3194  2.1790 -1.6584
 8342TIP3    H246518   5.264   3.316   3.303 -0.9167  0.2735  2.2331
 8343TIP3   OH246519   4.947   4.934  16.789 -0.3549  0.1875  0.1319
 8343TIP3    H146520   4.989   5.015  16.818  1.0577 -0.5155  0.1166
 8343TIP3    H246521   4.904   4.901  16.867  0.6607 -0.0019  0.6279
 8344TIP3   OH246522   6.218   5.249   0.920 -0.0895  0.0496  0.5773
 8344TIP3    H146523   6.140   5.258   0.974  0.3254  0.0866  1.1747
 8344TIP3    H246524   6.288   5.229   0.982  0.1280 -1.3841 -0.0807
 8345TIP3   OH246525   1.089   2.366   2.019  0.0032  0.3682  0.7094
 8345TIP3    H146526   1.167   2.389   1.969 -0.4530  1.0548  0.2926
 8345TIP3    H246527   1.050   2.293   1.971 -0.6192  1.2470 -0.1591
 8346TIP3   OH246528   6.184   1.553  14.633 -0.1533 -0.7142 -0.4463
 8346TIP3    H146529   6.157   1.604  14.556 -0.5201  1.4561  1.0238
 8346TIP3    H246530   6.156   1.464  14.614 -2.2793  0.1853 -1.9004
 8347TIP3   OH246531   3.110   4.303  13.080  0.2149  0.0754 -0.1311
 8347TIP3    H146532   3.164   4.331  13.153  2.1612 -0.3441 -1.3434
 8347TIP3    H246533   3.167   4.309  13.004 -1.6692  0.2563 -1.5998
 8348TIP3   OH246534   6.573   0.324   1.160  0.1694 -0.4221 -0.0451
 8348TIP3    H146535   6.614   0.404   1.127 -1.6215  1.1585  1.2859
 8348TIP3    H246536   6.643   0.276   1.203  1.2709  0.4763 -0.7925
 8349TIP3   OH246537   1.934   2.862  12.058  0.3700  0.3595 -0.4475
 8349TIP3    H146538   1.846   2.830  12.039  1.2662 -2.1413 -0.6189
 8349TIP3    H246539   1.932   2.883  12.152  0.2896 -2.2769  0.1997
 8350TIP3   OH246540   5.299   2.296  11.690 -0.0631  0.3916 -0.3852
 8350TIP3    H146541   5.345   2.374  11.658  0.6734  0.1845  0.1450
 8350TIP3    H246542   5.341   2.275  11.773 -0.6400 -0.2364 -0.2407
 8351TIP3   OH246543   6.710   4.335   2.594  0.0311 -0.2385  0.2666
 8351TIP3    H146544   6.755   4.306   2.515  1.0201  0.5859  0.4917
 8351TIP3    H246545   6.755   4.416   2.618  2.1715 -2.1686  3.6323
 8352TIP3   OH246546   5.585   2.213  16.742 -0.4108  0.2260 -0.1174
 8352TIP3    H146547   5.580   2.193  16.836  2.7736 -1.3783 -0.1690
 8352TIP3    H246548   5.613   2.131  16.702 -0.7143  1.1601 -2.3845
 8353TIP3   OH246549   2.278   5.257   6.155  0.3740 -0.4594  0.0778
 8353TIP3    H146550   2.306   5.181   6.205 -1.0030 -0.2196  1.2929
 8353TIP3    H246551   2.215   5.223   6.092  1.5642 -0.6527 -1.0442
 8354TIP3   OH246552   2.592   2.928   1.582  0.2627 -0.2196  0.1203
 8354TIP3    H146553   2.565   2.836   1.592 -0.2700 -0.0062  0.8152
 8354TIP3    H246554   2.597   2.942   1.488  0.1478 -0.9131  0.0065
 8355TIP3   OH246555   0.755   1.559  12.068 -0.1431 -0.5020  0.2514
 8355TIP3    H146556   0.686   1.504  12.104  0.2878 -0.4533  1.1822
 8355TIP3    H246557   0.748   1.548  11.973 -1.0791 -0.9076  0.3598
 8356TIP3   OH246558   1.767   5.775   3.895  0.3695  0.7083  0.5666
 8356TIP3    H146559   1.700   5.716   3.930  0.5681 -0.1962 -0.5304
 8356TIP3    H246560   1.765   5.760   3.801  2.6895  0.0261  0.5600
 8357TIP3   OH246561   1.955   2.981  14.983 -0.5778  0.5583 -0.1127
 8357TIP3    H146562   1.980   3.051  14.923 -1.6731  1.0754  0.0045
 8357TIP3    H246563   2.014   2.991  15.057 -0.0360  0.6978 -0.5582
 8358TIP3   OH246564   5.832   1.598  11.238 -0.7048 -0.0337  0.0145
 8358TIP3    H146565   5.821   1.503  11.238  1.1327 -0.2945  0.8907
 8358TIP3    H246566   5.827   1.623  11.331 -0.8594  0.6863 -0.1809
 8359TIP3   OH246567   4.192   1.388  14.256 -0.0226 -1.0296  0.2837
 8359TIP3    H146568   4.254   1.440  14.306 -0.9741  0.3626  0.0772
 8359TIP3    H246569   4.236   1.372  14.172 -0.1635  0.5011 -0.1107
 8360TIP3   OH246570   5.215   2.495  11.405  0.2689 -0.3657  0.3760
 8360TIP3    H146571   5.301   2.536  11.412  0.0673  0.3430 -0.9713
 8360TIP3    H246572   5.159   2.545  11.464  0.2130  0.8353 -0.6492
 8361TIP3   OH246573   1.733   4.494   0.694  0.0769  0.1084  0.2754
 8361TIP3    H146574   1.742   4.435   0.769  0.9819 -1.5874 -1.1050
 8361TIP3    H246575   1.638   4.507   0.685 -0.1985 -1.7325  0.1891
 8362TIP3   OH246576   5.058   3.587   2.646 -0.5256 -0.0798 -0.4119
 8362TIP3    H146577   4.999   3.531   2.595 -1.4553  0.0273  0.5290
 8362TIP3    H246578   5.142   3.582   2.599 -0.9066 -1.3231 -0.9984
 8363TIP3   OH246579   3.966   0.333  10.431 -0.2592  0.5810  0.0432
 8363TIP3    H146580   3.900   0.371  10.373  0.4954 -0.3782 -1.4974
 8363TIP3    H246581   4.044   0.322  10.376  0.3029 -0.9140  1.0650
 8364TIP3   OH246582   6.634   1.404   3.678 -0.6396 -0.0550 -0.1092
 8364TIP3    H146583   6.686   1.450   3.612 -2.4341 -0.9144 -2.2427
 8364TIP3    H246584   6.687   1.407   3.758  1.8119  0.6614 -1.6864
 8365TIP3   OH246585   4.011   4.521   6.229  0.2166 -0.7052  0.4545
 8365TIP3    H146586   3.968   4.435   6.230  0.3989 -0.8529 -1.2201
 8365TIP3    H246587   3.943   4.581   6.199  0.9658 -0.8500 -1.6714
 8366TIP3   OH246588   0.654   0.618  11.740 -0.3279 -0.1409  0.4965
 8366TIP3    H146589   0.609   0.683  11.794 -0.8004  0.0480 -0.1223
 8366TIP3    H246590   0.591   0.548  11.728 -0.5953  0.2701 -0.6397
 8367TIP3   OH246591   6.072   5.697   0.744  0.5063 -0.3887  0.0512
 8367TIP3    H146592   6.007   5.704   0.675 -1.1338 -1.2165  1.4232
 8367TIP3    H246593   6.084   5.786   0.776  0.7333 -0.1083 -0.8024
 8368TIP3   OH246594   2.079   0.405   2.187  0.5480 -0.5398  0.0425
 8368TIP3    H146595   2.063   0.421   2.094 -0.1240 -0.4008  0.1747
 8368TIP3    H246596   2.129   0.481   2.216 -0.5273  0.1563  0.1185
 8369TIP3   OH246597   0.937   5.491   2.566  0.4038  0.3021 -0.2032
 8369TIP3    H146598   0.973   5.408   2.536  0.9425  1.6059 -3.6813
 8369TIP3    H246599   1.008   5.533   2.615  1.0847 -0.1443 -0.7961
 8370TIP3   OH246600   2.498   5.721   6.156  0.5672  0.1025  0.4124
 8370TIP3    H146601   2.478   5.749   6.245 -0.1535 -2.1888  1.0422
 8370TIP3    H246602   2.577   5.667   6.165  1.9931  1.8701 -0.7599
 8371TIP3   OH246603   1.031   0.548  14.827  0.0494  0.3714 -0.5737
 8371TIP3    H146604   1.036   0.642  14.813 -2.1330  0.9779  1.8058
 8371TIP3    H246605   0.938   0.532  14.843  0.3216 -2.2653 -1.1666
 8372TIP3   OH246606   3.984   1.847  11.580  0.0082  0.1406 -0.0436
 8372TIP3    H146607   3.958   1.880  11.494  0.0456  1.0663  0.2910
 8372TIP3    H246608   3.937   1.764  11.589 -2.0827  1.2608  0.1032
 8373TIP3   OH246609   2.502   3.191  14.350 -0.2953  0.1767  0.4165
 8373TIP3    H146610   2.596   3.173  14.353 -0.2094  0.6784  1.0031
 8373TIP3    H246611   2.462   3.109  14.321  0.5299  0.7391 -2.6903
 8374TIP3   OH246612   0.501   6.047  10.614 -0.0485  0.0245  0.0579
 8374TIP3    H146613   0.538   5.973  10.565 -0.5261 -0.0047 -0.2659
 8374TIP3    H246614   0.410   6.052  10.585 -0.5382 -0.4122  1.4398
 8375TIP3   OH246615   1.791   2.287   4.276  0.5120 -0.2782  0.6715
 8375TIP3    H146616   1.849   2.344   4.226 -0.5271 -0.6183 -0.9777
 8375TIP3    H246617   1.846   2.212   4.300  0.7982 -0.5405 -0.7473
 8376TIP3   OH246618   4.103   0.186  11.344  0.3418 -0.1008  0.4373
 8376TIP3    H146619   4.186   0.201  11.390  0.4793 -1.2347  0.5957
 8376TIP3    H246620   4.079   0.272  11.310  1.6514  0.2363  0.2879
 8377TIP3   OH246621   1.556   2.687  15.242  0.0257  0.0687  0.1592
 8377TIP3    H146622   1.592   2.742  15.311 -0.5947 -0.3322  0.8136
 8377TIP3    H246623   1.501   2.746  15.191 -0.5345  0.0891  0.7810
 8378TIP3   OH246624   0.895   6.704  13.354  0.2346 -0.2921  0.1941
 8378TIP3    H146625   0.901   6.633  13.419 -0.1499 -0.4594  0.0489
 8378TIP3    H246626   0.832   6.673  13.290  0.1752  0.1230  0.0471
 8379TIP3   OH246627   4.612   3.374   4.932  0.2219  0.1748 -0.1662
 8379TIP3    H146628   4.606   3.370   4.837  1.8907 -1.4458 -0.2663
 8379TIP3    H246629   4.523   3.359   4.963 -0.1899 -0.1636 -1.4620
 8380TIP3   OH246630   2.340   3.976  16.141 -0.4235 -0.1762  0.3972
 8380TIP3    H146631   2.375   3.889  16.160 -2.1083 -0.5769  1.9356
 8380TIP3    H246632   2.263   3.960  16.087 -0.6784  0.3497  0.5961
 8381TIP3   OH246633   1.657   4.332   4.139  0.1367  0.1142  0.0891
 8381TIP3    H146634   1.725   4.348   4.075 -0.0302 -0.1193 -0.1480
 8381TIP3    H246635   1.650   4.236   4.144 -0.0866  0.1340  0.1997
 8382TIP3   OH246636   4.853   0.777   0.961 -0.1511  0.0214  0.0721
 8382TIP3    H146637   4.785   0.758   1.025  0.6140 -1.0588  0.5831
 8382TIP3    H246638   4.863   0.873   0.964 -0.2285 -0.0050  1.4441
 8383TIP3   OH246639   5.189   0.853  12.801 -0.0645  0.1507  0.5623
 8383TIP3    H146640   5.232   0.792  12.741  0.9478  0.4266  0.9865
 8383TIP3    H246641   5.248   0.859  12.876 -2.0029 -1.3727  2.3188
 8384TIP3   OH246642   3.984   5.759   4.333  0.6876  0.3903 -0.0407
 8384TIP3    H146643   3.893   5.730   4.337  0.4269  0.7219 -2.1702
 8384TIP3    H246644   4.033   5.681   4.309  0.5818  0.7324 -1.4436
 8385TIP3   OH246645   0.666   3.485  16.936  0.8259  0.6373 -0.5496
 8385TIP3    H146646   0.575   3.470  16.961  0.9463 -0.8056 -0.9205
 8385TIP3    H246647   0.664   3.485  16.840  0.8958  2.7823 -0.5966
 8386TIP3   OH246648   3.129   2.573  17.165 -0.4214 -0.0228 -0.1466
 8386TIP3    H146649   3.095   2.591  17.253 -0.9151 -0.7734 -0.1781
 8386TIP3    H246650   3.224   2.568  17.176 -0.4135  0.7385  0.1863
 8387TIP3   OH246651   4.334   4.335   1.993 -0.3276 -0.0420 -0.8151
 8387TIP3    H146652   4.409   4.298   2.040  0.3152 -0.6039 -2.2394
 8387TIP3    H246653   4.258   4.306   2.043  0.1750 -2.8318 -1.5052
 8388TIP3   OH246654   2.669   2.854  12.267  0.3754  0.0576  0.1528
 8388TIP3    H146655   2.647   2.784  12.329 -2.0385  1.5645  1.1291
 8388TIP3    H246656   2.608   2.842  12.194  1.4956 -0.1741 -0.7857
 8389TIP3   OH246657   0.033   3.762  13.366  0.8961 -0.1034  0.9955
 8389TIP3    H146658  -0.053   3.773  13.325  0.8823  0.4539  1.1787
 8389TIP3    H246659   0.075   3.847  13.357  0.5035  0.3702  3.0583
 8390TIP3   OH246660   0.664   3.331   6.277  0.4110 -0.5228 -0.0320
 8390TIP3    H146661   0.577   3.315   6.240  0.4164 -1.4959  0.3533
 8390TIP3    H246662   0.647   3.375   6.360  0.4327  2.9838 -1.7043
 8391TIP3   OH246663   1.681   0.404  13.046  0.3662  0.3131  0.2780
 8391TIP3    H146664   1.666   0.492  13.080  0.0185  0.0539  0.8054
 8391TIP3    H246665   1.776   0.401  13.030  0.7298  0.0814  2.2894
 8392TIP3   OH246666   4.497   2.253   1.256  0.5236 -0.1455  0.3063
 8392TIP3    H146667   4.434   2.187   1.285  1.2347 -0.7585  0.4947
 8392TIP3    H246668   4.468   2.334   1.298  0.5498 -0.6649  1.3592
 8393TIP3   OH246669   3.263   5.767  11.367 -0.2499 -0.1761  0.5056
 8393TIP3    H146670   3.196   5.762  11.299  0.6955  0.4883 -0.5143
 8393TIP3    H246671   3.266   5.679  11.404 -1.5590 -0.2567  0.4749
 8394TIP3   OH246672   2.889   3.797  12.255  0.3144  0.3869 -0.4963
 8394TIP3    H146673   2.956   3.771  12.191  0.3929  1.0078 -0.6796
 8394TIP3    H246674   2.917   3.756  12.336  1.1864  0.9896 -0.4635
 8395TIP3   OH246675   6.306   4.367  14.381 -0.1524 -0.5749 -0.3724
 8395TIP3    H146676   6.292   4.414  14.463  0.7889 -1.6270  0.4201
 8395TIP3    H246677   6.241   4.403  14.321 -1.5509 -0.4861  1.1322
 8396TIP3   OH246678   5.469   0.320   4.351 -0.3063  0.4231  0.0033
 8396TIP3    H146679   5.521   0.242   4.333 -0.8088  0.2675 -0.8185
 8396TIP3    H246680   5.415   0.294   4.426 -0.1473  0.1337  0.0213
 8397TIP3   OH246681   1.307   5.906   5.667  0.0252  0.1886 -1.0258
 8397TIP3    H146682   1.271   5.873   5.585  0.3633 -0.8674 -0.7703
 8397TIP3    H246683   1.266   5.852   5.735  0.0192  0.8093 -0.5258
 8398TIP3   OH246684   3.153   3.937  11.923 -0.2983  0.3950  0.2276
 8398TIP3    H146685   3.246   3.943  11.943  0.2174 -0.1794 -1.7078
 8398TIP3    H246686   3.126   3.853  11.960  0.3881 -0.2129 -0.5909
 8399TIP3   OH246687   1.322   0.080   5.658 -0.5112  0.1132 -0.3612
 8399TIP3    H146688   1.372   0.009   5.697 -0.0630  0.2079 -0.7633
 8399TIP3    H246689   1.288   0.129   5.733 -0.4849 -0.2870 -0.0878
 8400TIP3   OH246690   5.333   5.492   4.723  0.2166  0.0735 -0.5584
 8400TIP3    H146691   5.401   5.441   4.678 -0.4188 -0.9642 -0.3742
 8400TIP3    H246692   5.252   5.448   4.699 -0.2269  0.1738  0.7228
 8401TIP3   OH246693   0.474   4.724  16.575  0.6723 -0.0245  0.2349
 8401TIP3    H146694   0.454   4.750  16.485  1.0439 -2.6806 -0.6909
 8401TIP3    H246695   0.536   4.652  16.567  2.1053  0.7755  2.7140
 8402TIP3   OH246696   0.667   3.817   2.521 -0.0060  0.3158 -0.5069
 8402TIP3    H146697   0.592   3.795   2.576 -0.7670  1.9217 -0.8244
 8402TIP3    H246698   0.647   3.777   2.437  0.5959 -1.1529  0.0254
 8403TIP3   OH246699   1.502   5.149  12.674 -0.0658 -0.4501  0.0230
 8403TIP3    H146700   1.466   5.084  12.734  0.4837 -0.0649  0.7787
 8403TIP3    H246701   1.584   5.111  12.643 -0.4667 -0.7600 -0.7055
 8404TIP3   OH246702   3.697   2.888   2.938  0.2212 -0.1172  0.1308
 8404TIP3    H146703   3.742   2.944   2.874  1.8047  0.0706  1.3175
 8404TIP3    H246704   3.623   2.851   2.891  1.7763 -0.6351 -2.0464
 8405TIP3   OH246705   3.421   4.629   0.318  0.2678  0.0182  0.0086
 8405TIP3    H146706   3.361   4.658   0.249 -1.6732 -1.6928  0.8691
 8405TIP3    H246707   3.417   4.698   0.384 -0.2095  0.2434 -0.2480
 8406TIP3   OH246708   1.314   3.336  16.420 -0.4485 -0.3358  0.1620
 8406TIP3    H146709   1.389   3.343  16.479  0.6012  0.5495 -1.2097
 8406TIP3    H246710   1.311   3.243  16.397 -0.4522 -0.5669  1.0837
 8407TIP3   OH246711   2.196   3.914  14.172  0.4198  0.3837 -0.1882
 8407TIP3    H146712   2.162   3.974  14.106  0.0600 -1.6347 -1.9785
 8407TIP3    H246713   2.261   3.862  14.125 -0.4879 -1.7243  0.7663
 8408TIP3   OH246714   1.475   5.183   5.829  0.8192 -0.2315  0.0868
 8408TIP3    H146715   1.444   5.272   5.849  1.7908  0.1418  0.0143
 8408TIP3    H246716   1.512   5.191   5.740 -0.8975 -1.1943 -0.7534
 8409TIP3   OH246717   5.873   4.167  13.420 -0.0808 -0.2678  0.0840
 8409TIP3    H146718   5.871   4.201  13.331  0.2235 -0.6955 -0.0905
 8409TIP3    H246719   5.788   4.125  13.432  0.3493 -1.3282 -0.4573
 8410TIP3   OH246720   4.017   1.464   3.352  0.3768  0.4227  0.2037
 8410TIP3    H146721   4.005   1.373   3.323 -0.4226  0.0234  1.6616
 8410TIP3    H246722   4.103   1.464   3.395 -0.4933 -0.2185  2.0654
 8411TIP3   OH246723   1.524   1.407  11.971 -0.2708  0.5730  0.1148
 8411TIP3    H146724   1.571   1.334  11.930  0.6995  0.8323  0.7380
 8411TIP3    H246725   1.590   1.453  12.022 -0.1304  3.6116 -2.4583
 8412TIP3   OH246726   2.716   3.864  16.582 -0.2536 -0.0877 -0.6057
 8412TIP3    H146727   2.684   3.806  16.651  0.1309  1.2385  0.7290
 8412TIP3    H246728   2.737   3.805  16.510  2.3022 -1.9754  1.4619
 8413TIP3   OH246729   6.375   5.061  12.706  0.2778  0.2516 -0.0763
 8413TIP3    H146730   6.409   5.109  12.631 -1.0080  0.9111 -0.2770
 8413TIP3    H246731   6.384   5.122  12.780  0.5098  0.0272  0.0814
 8414TIP3   OH246732   0.101   5.710  13.099 -0.1633  0.2129  0.3934
 8414TIP3    H146733   0.056   5.640  13.051  0.0506  0.0318  0.4507
 8414TIP3    H246734   0.135   5.768  13.030  1.7104 -1.0118  0.2036
 8415TIP3   OH246735   2.981   2.643   1.791  0.1406 -0.0412 -0.2589
 8415TIP3    H146736   3.036   2.717   1.768 -0.0170  0.0104 -0.4719
 8415TIP3    H246737   2.942   2.667   1.875  0.8519 -0.3035  0.1523
 8416TIP3   OH246738   0.570   5.338   2.480  0.4352 -0.2856 -0.0388
 8416TIP3    H146739   0.593   5.413   2.534 -0.3599  0.6782 -0.9771
 8416TIP3    H246740   0.653   5.293   2.465  1.3397  1.6249 -1.2190
 8417TIP3   OH246741   6.117   5.715  11.255 -0.5790 -0.7341 -0.0827
 8417TIP3    H146742   6.039   5.701  11.310 -1.7458  0.9097 -1.2240
 8417TIP3    H246743   6.115   5.808  11.235  1.9563 -0.5678  0.1753
 8418TIP3   OH246744   3.981   3.386  11.483  0.2102  0.2981 -0.2226
 8418TIP3    H146745   3.940   3.386  11.569  1.4047 -0.7173  0.3818
 8418TIP3    H246746   4.049   3.318  11.489 -0.7802 -0.9926 -2.5010
 8419TIP3   OH246747   2.853   0.563  12.425  0.0949 -0.1776 -0.4861
 8419TIP3    H146748   2.864   0.583  12.332  2.1051 -0.5972 -0.3822
 8419TIP3    H246749   2.940   0.579  12.463 -0.3605 -1.2310  1.0779
 8420TIP3   OH246750   2.816   6.054   1.767  0.7976  0.0614 -0.2588
 8420TIP3    H146751   2.896   6.025   1.722  0.8708  0.2802 -0.2685
 8420TIP3    H246752   2.834   6.144   1.794  1.4066 -0.6030  1.7106
 8421TIP3   OH246753   6.357   5.754   4.461 -0.8105 -0.0725  0.5699
 8421TIP3    H146754   6.413   5.679   4.479  1.0188  1.8637  3.9807
 8421TIP3    H246755   6.349   5.799   4.546 -2.0456  3.4126 -1.1946
 8422TIP3   OH246756   6.234   1.107   4.276  1.0698 -0.0191  0.3920
 8422TIP3    H146757   6.273   1.163   4.343  0.1397  0.0693  0.8829
 8422TIP3    H246758   6.140   1.126   4.281  1.0375  0.5315 -1.4491
 8423TIP3   OH246759   1.002   5.449  12.127  0.0483 -0.4707 -0.3577
 8423TIP3    H146760   1.055   5.474  12.051  1.6785  2.3901  1.5098
 8423TIP3    H246761   1.056   5.386  12.174 -0.0073 -0.6020 -0.4683
 8424TIP3   OH246762   3.333   5.438  14.424  0.7958  0.0840 -0.4620
 8424TIP3    H146763   3.241   5.460  14.438  1.0293  1.3961 -0.8600
 8424TIP3    H246764   3.366   5.418  14.511 -0.0402 -1.1838 -0.4091
 8425TIP3   OH246765   1.732   5.685   6.008 -0.1877  0.1053  0.0445
 8425TIP3    H146766   1.813   5.634   6.007 -0.7924 -0.9631  1.8082
 8425TIP3    H246767   1.703   5.683   6.099 -2.4300  0.0855 -0.6034
 8426TIP3   OH246768   5.086   4.050   0.643  0.2101  0.1866  0.3899
 8426TIP3    H146769   5.084   4.099   0.725  0.4437 -1.2450  1.2798
 8426TIP3    H246770   5.020   3.982   0.654 -0.7889  0.8386 -1.2086
 8427TIP3   OH246771   2.212   5.564  16.190 -0.3429 -0.9219  0.2168
 8427TIP3    H146772   2.211   5.629  16.261 -0.0346 -0.0077 -0.5985
 8427TIP3    H246773   2.298   5.523  16.197  0.4223  0.4349 -0.7178
 8428TIP3   OH246774   3.488   3.370   4.631 -0.2764  0.2244 -0.2997
 8428TIP3    H146775   3.419   3.319   4.673 -0.7206  0.6552 -0.4980
 8428TIP3    H246776   3.531   3.309   4.571 -0.3892 -0.0814 -0.0726
 8429TIP3   OH246777   1.766   0.950   4.143  0.0593  0.1259 -0.3183
 8429TIP3    H146778   1.721   0.893   4.081  0.3279 -0.1075 -0.3031
 8429TIP3    H246779   1.853   0.962   4.105  0.3792 -0.3822  0.2236
 8430TIP3   OH246780   5.980   2.141  13.877  0.1868  0.0558 -0.3340
 8430TIP3    H146781   5.955   2.192  13.953  0.8761 -1.7320  1.1693
 8430TIP3    H246782   6.071   2.117  13.892  0.0060 -1.2765 -1.1577
 8431TIP3   OH246783   6.744   3.037  14.861 -0.3100  0.3236  0.0960
 8431TIP3    H146784   6.704   2.976  14.923  2.0391 -0.2997  1.1170
 8431TIP3    H246785   6.815   3.079  14.911  0.2747  1.4006 -1.5541
 8432TIP3   OH246786   0.099   3.030  15.770  0.2594  0.6568 -0.5388
 8432TIP3    H146787   0.153   3.092  15.722  0.9593  0.7678  0.3516
 8432TIP3    H246788   0.032   3.084  15.812 -0.5271  0.5266 -1.5915
 8433TIP3   OH246789   0.699   4.411  15.129 -0.1812 -0.0504 -0.4314
 8433TIP3    H146790   0.655   4.494  15.145 -3.5383 -1.4438 -1.6198
 8433TIP3    H246791   0.779   4.435  15.081 -2.1606  2.4096 -2.7868
 8434TIP3   OH246792   0.010   6.715   1.397 -0.0899  0.5841  0.7406
 8434TIP3    H146793  -0.066   6.668   1.363 -0.7975  1.5811  0.9051
 8434TIP3    H246794  -0.001   6.714   1.492  2.5259 -3.2961  1.2311
 8435TIP3   OH246795   6.130   3.529  14.552  0.3296 -0.7632 -0.4023
 8435TIP3    H146796   6.175   3.609  14.523 -0.1229  0.1530  1.3259
 8435TIP3    H246797   6.195   3.460  14.539  1.1479  0.0587 -0.8132
 8436TIP3   OH246798   3.409   4.553   0.910  0.0848  0.3413  0.2158
 8436TIP3    H146799   3.336   4.543   0.972 -0.5839 -0.1357 -0.6249
 8436TIP3    H246800   3.457   4.630   0.942 -0.9500  0.8448  0.6289
 8437TIP3   OH246801   1.758   4.037   2.810  0.6387  0.5657  0.6471
 8437TIP3    H146802   1.692   4.039   2.879  2.0753 -1.2655  2.1824
 8437TIP3    H246803   1.780   4.129   2.796 -0.7419  1.0739  1.5559
 8438TIP3   OH246804   3.440   3.236   4.085 -0.3645  0.1726 -0.0311
 8438TIP3    H146805   3.380   3.169   4.052 -1.8825  0.6554  1.5983
 8438TIP3    H246806   3.404   3.318   4.051 -1.5183  0.6030  2.0712
 8439TIP3   OH246807   0.464   3.795   0.642 -0.8895  0.0732  0.0394
 8439TIP3    H146808   0.384   3.845   0.634 -0.5115  0.8524  0.9356
 8439TIP3    H246809   0.480   3.790   0.736  0.0073 -0.2336 -0.1187
 8440TIP3   OH246810   0.437   3.166   1.792 -0.5424  0.0513 -0.3559
 8440TIP3    H146811   0.511   3.167   1.732 -0.4075  2.1978 -0.2275
 8440TIP3    H246812   0.462   3.225   1.863 -0.7158 -2.3387  1.8690
 8441TIP3   OH246813   1.588   2.563   1.675 -0.0301 -0.1715 -0.3131
 8441TIP3    H146814   1.576   2.480   1.629 -1.6406  0.2599 -0.7309
 8441TIP3    H246815   1.582   2.629   1.606 -1.9739  0.4546  0.4127
 8442TIP3   OH246816   6.610   2.887   2.435 -0.3173 -0.2026 -0.2636
 8442TIP3    H146817   6.692   2.859   2.396 -0.3512  0.3604 -0.7495
 8442TIP3    H246818   6.632   2.903   2.527 -0.0672 -0.7973 -0.2116
 8443TIP3   OH246819   5.707   3.080  10.895  0.3481 -0.1407 -0.1889
 8443TIP3    H146820   5.652   3.136  10.840 -2.3452 -0.7746  1.6394
 8443TIP3    H246821   5.707   2.996  10.850 -0.3066 -0.1609 -0.1672
 8444TIP3   OH246822   5.826   5.014  16.265 -0.2069 -0.1198  0.2654
 8444TIP3    H146823   5.831   4.981  16.355  0.1858  0.1544  0.3466
 8444TIP3    H246824   5.907   4.982  16.224  0.6495  1.5176  0.6108
 8445TIP3   OH246825   3.764   5.470  11.835 -0.2508 -0.5517  0.0683
 8445TIP3    H146826   3.792   5.387  11.796 -0.5737  0.0702 -1.5552
 8445TIP3    H246827   3.802   5.537  11.778 -0.7503  0.4011  0.8368
 8446TIP3   OH246828   6.257   6.670   4.213 -0.4431  0.3429 -0.2883
 8446TIP3    H146829   6.295   6.693   4.128 -1.8465 -1.1661 -1.3781
 8446TIP3    H246830   6.185   6.732   4.224 -0.0055  0.8075  0.0267
 8447TIP3   OH246831   2.444   4.532  16.835 -0.1962 -0.1380  0.5666
 8447TIP3    H146832   2.431   4.553  16.927 -0.2826  1.4715  0.2180
 8447TIP3    H246833   2.476   4.442  16.834 -1.0645 -0.4860  2.1087
 8448TIP3   OH246834   4.392   2.850  12.222 -0.5108 -0.2942 -0.2890
 8448TIP3    H146835   4.404   2.877  12.131  2.2719  0.2124  0.1296
 8448TIP3    H246836   4.353   2.926  12.265  0.1725  0.2725 -0.6522
 8449TIP3   OH246837   2.983   2.053   5.707  0.2961  0.3543  0.3911
 8449TIP3    H146838   3.027   1.974   5.741 -0.1597  0.2293  0.6989
 8449TIP3    H246839   3.055   2.114   5.689  0.7157 -0.3958 -0.5653
 8450TIP3   OH246840   2.465   4.803  15.596 -0.2874 -0.2576 -0.7890
 8450TIP3    H146841   2.478   4.898  15.591 -4.0171  0.6430  1.8369
 8450TIP3    H246842   2.553   4.768  15.605  1.2132  3.0305 -0.9733
 8451TIP3   OH246843   3.081   5.283   2.331  0.1758  0.6023  0.6392
 8451TIP3    H146844   3.061   5.198   2.292 -0.2009  0.5161  1.0056
 8451TIP3    H246845   3.051   5.347   2.266 -0.5487  0.4637  0.8243
 8452TIP3   OH246846   1.376   2.925   4.228  0.0349  0.2754  0.4544
 8452TIP3    H146847   1.311   2.916   4.298 -1.2949 -0.3037 -0.7945
 8452TIP3    H246848   1.385   2.837   4.193  0.8878  0.5135  0.0574
 8453TIP3   OH246849   3.741   5.665  14.916 -0.5309  0.0605  0.1879
 8453TIP3    H146850   3.655   5.703  14.939 -0.4949  1.5072 -1.7796
 8453TIP3    H246851   3.729   5.631  14.828  1.3652  2.0745 -0.9590
 8454TIP3   OH246852   1.986   6.088  16.344  0.3123 -0.1565  0.0579
 8454TIP3    H146853   1.939   6.145  16.283  0.5408  0.6123  0.5941
 8454TIP3    H246854   2.041   6.147  16.395  1.1946 -0.9476  0.0498
 8455TIP3   OH246855   0.105   2.206  13.391  0.2824 -0.0473 -0.6899
 8455TIP3    H146856   0.146   2.121  13.374 -1.3223 -0.9853 -0.0389
 8455TIP3    H246857   0.139   2.233  13.476  0.5220 -0.1886 -0.7391
 8456TIP3   OH246858   3.684   5.360  15.576  0.1858 -0.1644  0.0368
 8456TIP3    H146859   3.620   5.302  15.618  1.7324 -1.3567  0.8460
 8456TIP3    H246860   3.714   5.418  15.646  1.0743 -0.6097  0.0335
 8457TIP3   OH246861   5.232   2.846   4.099 -0.3216  0.0632 -0.2142
 8457TIP3    H146862   5.239   2.844   4.194 -0.6995  0.7654 -0.1691
 8457TIP3    H246863   5.283   2.770   4.070 -0.3451 -0.2545  0.5519
 8458TIP3   OH246864   5.092   4.633  17.077  0.1120 -0.4283  0.1287
 8458TIP3    H146865   5.069   4.622  17.170 -2.0269 -0.6792 -0.3758
 8458TIP3    H246866   5.173   4.685  17.079 -1.1407  1.6789  2.1167
 8459TIP3   OH246867   0.494   3.094  11.773  0.0073 -0.0548 -0.4393
 8459TIP3    H146868   0.561   3.122  11.835 -0.5439  1.2191 -0.3900
 8459TIP3    H246869   0.456   3.015  11.813 -0.0993  0.5412  0.6861
 8460TIP3   OH246870   5.614   0.994   0.395 -0.1755 -0.7071  0.4937
 8460TIP3    H146871   5.659   1.065   0.440 -0.2029  1.2919 -2.3386
 8460TIP3    H246872   5.684   0.950   0.345 -0.5229 -1.2312  0.4570
 8461TIP3   OH246873   0.758   6.655  10.779  0.1822  0.2284  0.4687
 8461TIP3    H146874   0.803   6.583  10.735  0.4051  1.8417 -2.1763
 8461TIP3    H246875   0.807   6.733  10.755 -1.9764  1.6563  0.3584
 8462TIP3   OH246876   1.522   0.672   3.796  0.3945 -0.3864 -1.0561
 8462TIP3    H146877   1.504   0.643   3.885 -1.0563  0.2934 -1.0932
 8462TIP3    H246878   1.446   0.726   3.773  1.6165  1.0062 -2.0202
 8463TIP3   OH246879   4.373   6.440   5.965  0.2344  0.0071 -0.9609
 8463TIP3    H146880   4.382   6.369   5.901 -0.3968  0.1258 -1.1914
 8463TIP3    H246881   4.280   6.440   5.988  0.4706 -0.0861  0.0282
 8464TIP3   OH246882   1.298   5.730  15.340 -0.2855  0.3723 -0.1441
 8464TIP3    H146883   1.382   5.742  15.384 -0.2790  1.1584 -0.3392
 8464TIP3    H246884   1.262   5.650  15.378 -0.1349  0.8461  1.0565
 8465TIP3   OH246885   0.623   5.002   0.184 -0.1744  0.0615 -0.6412
 8465TIP3    H146886   0.701   4.988   0.130 -0.0395  0.0416 -0.4410
 8465TIP3    H246887   0.602   4.916   0.219 -0.4706  0.0085 -0.9422
 8466TIP3   OH246888   0.747   5.790  14.919 -0.1531 -0.0826  0.1106
 8466TIP3    H146889   0.752   5.695  14.903 -0.5205  0.2154 -2.0189
 8466TIP3    H246890   0.676   5.820  14.863 -0.6674  1.3456  1.4616
 8467TIP3   OH246891   2.746   5.774   2.572 -0.4458  0.4321  0.0941
 8467TIP3    H146892   2.785   5.860   2.583  3.0092 -0.8314 -0.8459
 8467TIP3    H246893   2.749   5.735   2.660  0.2042  0.4636  0.0929
 8468TIP3   OH246894   4.339   4.705   3.686  0.0166  0.3681 -0.1824
 8468TIP3    H146895   4.362   4.758   3.763 -1.1530  0.7576 -0.0766
 8468TIP3    H246896   4.268   4.754   3.644  1.2452  0.6502 -2.0577
 8469TIP3   OH246897   6.773   4.739  15.229  0.0690 -0.1110  0.5619
 8469TIP3    H146898   6.677   4.740  15.234 -0.0447 -1.0758 -0.9219
 8469TIP3    H246899   6.801   4.724  15.319 -1.2870 -3.2978  0.5988
 8470TIP3   OH246900   4.874   0.291  15.492  0.2619 -0.7040 -0.3588
 8470TIP3    H146901   4.914   0.377  15.478 -1.7166  0.0626 -1.7267
 8470TIP3    H246902   4.941   0.229  15.462  1.9622  0.2441  1.2014
 8471TIP3   OH246903   5.534   3.217  12.025  0.2676 -0.4870  0.0070
 8471TIP3    H146904   5.591   3.172  12.087  0.1446  1.2357  1.4774
 8471TIP3    H246905   5.446   3.209  12.063  0.1044  0.1240 -0.2274
 8472TIP3   OH246906   1.334   4.366   5.703  0.0828  0.2309  0.3504
 8472TIP3    H146907   1.307   4.287   5.750 -1.1427 -0.9061 -2.0738
 8472TIP3    H246908   1.423   4.384   5.735 -0.6101 -0.4873  2.9132
 8473TIP3   OH246909   0.555   3.493   4.235 -0.1151  0.4511  0.0792
 8473TIP3    H146910   0.613   3.509   4.309 -1.5417  0.9137  1.1502
 8473TIP3    H246911   0.580   3.406   4.203 -1.3017 -1.0816  2.9581
 8474TIP3   OH246912   5.586   6.654  11.612 -0.0901 -0.3061 -0.0440
 8474TIP3    H146913   5.493   6.673  11.608 -0.0184  0.4967  1.2821
 8474TIP3    H246914   5.592   6.559  11.612 -1.0268 -0.3942  1.4831
 8475TIP3   OH246915   5.906   5.858  14.282 -0.0997  0.0585 -0.1990
 8475TIP3    H146916   5.973   5.841  14.216  0.6992 -1.8354  0.9907
 8475TIP3    H246917   5.943   5.926  14.338  0.0636  0.2849 -0.5850
 8476TIP3   OH246918   3.280   1.935   1.781 -0.1009 -0.3734 -0.7889
 8476TIP3    H146919   3.219   2.002   1.751 -0.1577  0.5384  1.2479
 8476TIP3    H246920   3.246   1.854   1.743 -2.0692  0.2427 -0.4414
 8477TIP3   OH246921   1.186   1.434  16.692  0.3072  0.4498  0.3259
 8477TIP3    H146922   1.109   1.381  16.675  1.6249 -1.7152  0.7772
 8477TIP3    H246923   1.165   1.484  16.771 -0.6128 -0.1238  0.4502
 8478TIP3   OH246924   2.249   4.348   1.268 -0.1529  0.7814  1.1902
 8478TIP3    H146925   2.196   4.272   1.292  1.5846 -0.2431  1.9845
 8478TIP3    H246926   2.275   4.386   1.352  0.7082  1.0114  0.8298
 8479TIP3   OH246927   2.171   0.130  12.180 -0.5056 -0.9491  0.5503
 8479TIP3    H146928   2.238   0.081  12.132 -0.4126  0.9550 -1.4455
 8479TIP3    H246929   2.144   0.199  12.119 -1.8447  0.4261  2.5650
 8480TIP3   OH246930   3.110   1.122  11.534  0.1753  0.4465 -0.1893
 8480TIP3    H146931   3.161   1.127  11.453  0.1020 -3.6055 -0.6670
 8480TIP3    H246932   3.020   1.106  11.506 -0.2492  1.1574  0.7062
 8481TIP3   OH246933   2.472   0.189  12.656 -0.2905 -0.2591  0.1779
 8481TIP3    H146934   2.395   0.156  12.610 -0.5989  0.5370  0.1159
 8481TIP3    H246935   2.464   0.154  12.745 -0.9022  0.1117  0.2685
 8482TIP3   OH246936   2.748   6.400   4.724  0.1113 -0.6877 -0.2885
 8482TIP3    H146937   2.788   6.470   4.775 -0.8357 -1.6564  1.8916
 8482TIP3    H246938   2.657   6.398   4.752 -0.7069 -0.7411 -2.6832
 8483TIP3   OH246939   3.958   4.300   3.878 -0.6482 -0.7911  1.1153
 8483TIP3    H146940   3.911   4.319   3.959 -0.9881 -1.2109  1.0173
 8483TIP3    H246941   4.046   4.335   3.893 -1.7574  2.9343  0.1670
 8484TIP3   OH246942   6.752   4.882   5.605 -0.3089 -0.2200 -0.2050
 8484TIP3    H146943   6.814   4.860   5.535  1.1540  1.9175  0.3235
 8484TIP3    H246944   6.772   4.819   5.675  1.1630  0.2669 -0.1426
 8485TIP3   OH246945   6.490   6.522   2.477  0.5641  0.4535  0.2053
 8485TIP3    H146946   6.556   6.513   2.409  1.8275 -1.7124  1.5907
 8485TIP3    H246947   6.441   6.601   2.453  1.5633  0.3200 -2.6159
 8486TIP3   OH246948   6.801   4.107   1.115 -0.4923 -0.3543 -0.1472
 8486TIP3    H146949   6.768   4.155   1.039  1.0865  0.3065 -0.4501
 8486TIP3    H246950   6.888   4.077   1.088  0.1115 -0.0875  1.4001
 8487TIP3   OH246951   5.987   0.767   3.648 -0.4090 -0.7461 -0.0466
 8487TIP3    H146952   6.036   0.729   3.720  1.0277 -1.4515 -1.3250
 8487TIP3    H246953   5.914   0.812   3.689  0.9839 -0.1432  1.9243
 8488TIP3   OH246954   2.179   5.349  14.328  0.2259 -0.2210 -0.5229
 8488TIP3    H146955   2.092   5.390  14.323 -0.2572 -1.0356  0.7259
 8488TIP3    H246956   2.232   5.413  14.375  0.8417  1.0723 -2.8277
 8489TIP3   OH246957   6.267   5.590   1.776  0.1812  0.3234  0.2656
 8489TIP3    H146958   6.301   5.678   1.760  2.4884 -0.2861  1.3732
 8489TIP3    H246959   6.237   5.560   1.691 -0.5484  2.1196 -0.1576
 8490TIP3   OH246960   3.998   0.190  12.895 -0.0393 -1.3921  0.3711
 8490TIP3    H146961   3.933   0.169  12.827 -0.8908 -1.1229  1.0745
 8490TIP3    H246962   4.046   0.264  12.859 -2.2738  0.5613  1.1022
 8491TIP3   OH246963   4.063   1.695   5.111  0.6044 -0.0107  0.0988
 8491TIP3    H146964   4.096   1.717   5.024  1.9848  0.2930  0.6693
 8491TIP3    H246965   4.142   1.670   5.160 -0.3780 -2.2107  0.6745
 8492TIP3   OH246966   0.193   1.637   3.450  0.0976  0.1602  0.1676
 8492TIP3    H146967   0.180   1.692   3.373  0.4751 -2.4755 -1.8870
 8492TIP3    H246968   0.288   1.634   3.462  0.0483  0.4283  0.6930
 8493TIP3   OH246969   0.674   0.271  15.638 -0.4079 -0.6558 -0.6413
 8493TIP3    H146970   0.746   0.223  15.680  2.4840  3.5137 -0.2522
 8493TIP3    H246971   0.619   0.301  15.710 -0.0478 -0.2333 -0.5404
 8494TIP3   OH246972   4.637   2.167  15.668  0.1447 -0.1706 -0.0742
 8494TIP3    H146973   4.712   2.192  15.614  0.0876 -0.3520 -0.2437
 8494TIP3    H246974   4.561   2.178  15.609 -0.0041  0.3699  0.2085
 8495TIP3   OH246975   2.821   2.450   3.392  0.2055  0.0315 -0.0367
 8495TIP3    H146976   2.834   2.355   3.395  1.0393  0.1543  0.5289
 8495TIP3    H246977   2.741   2.461   3.341  0.5767 -0.9344 -0.8748
 8496TIP3   OH246978   3.360   1.249   0.264  0.0203 -0.2259  0.3668
 8496TIP3    H146979   3.300   1.211   0.200 -0.8588  1.5428  0.0769
 8496TIP3    H246980   3.447   1.234   0.227 -0.3314 -1.2100 -0.1067
 8497TIP3   OH246981   6.090   5.405  16.531  0.4176  0.3087  0.3385
 8497TIP3    H146982   6.065   5.438  16.444 -1.2875  1.0076  1.0481
 8497TIP3    H246983   6.128   5.480  16.575  1.3348 -0.0621  0.1983
 8498TIP3   OH246984   0.306   5.395   2.269 -0.0406  0.5598  0.2313
 8498TIP3    H146985   0.239   5.327   2.272 -0.3800  0.8977  0.4439
 8498TIP3    H246986   0.366   5.374   2.340  0.9805 -0.6553 -0.9521
 8499TIP3   OH246987   5.099   2.835  15.036 -0.3358 -0.2310  0.1735
 8499TIP3    H146988   5.107   2.930  15.028 -0.7619 -0.2086  0.0071
 8499TIP3    H246989   5.151   2.813  15.113  0.4133  0.0396 -0.2387
 8500TIP3   OH246990   2.274   5.034  12.189 -0.2051 -0.8394  0.5716
 8500TIP3    H146991   2.328   5.039  12.268  1.7987  0.4773 -0.7963
 8500TIP3    H246992   2.285   4.945  12.157 -0.9804 -1.3658  1.7007
 8501TIP3   OH246993   2.940   4.471   5.396  0.2850 -0.2382  0.0047
 8501TIP3    H146994   2.997   4.544   5.421 -0.1616  0.4713 -0.9818
 8501TIP3    H246995   2.886   4.506   5.325  0.4959 -1.7260 -0.9182
 8502TIP3   OH246996   5.337   1.409   6.367  0.0964  0.0265 -0.1058
 8502TIP3    H146997   5.305   1.328   6.407  0.4327  0.3601  0.8647
 8502TIP3    H246998   5.292   1.414   6.283  2.5456 -2.9252 -1.8127
 8503TIP3   OH246999   0.419   0.002  15.485 -0.0034 -0.1813 -0.2294
 8503TIP3    H147000   0.461  -0.023  15.567  1.3932  1.2296 -0.4673
 8503TIP3    H247001   0.488  -0.006  15.419  1.0261  4.9595 -0.2078
 8504TIP3   OH247002   5.957   0.501   2.583  0.0051  0.2990  0.6545
 8504TIP3    H147003   5.896   0.436   2.619 -0.6973  0.8330  0.4413
 8504TIP3    H247004   5.905   0.551   2.521  1.3701 -1.0864 -1.7479
 8505TIP3   OH247005   1.518   5.843  16.337 -0.4256  0.3430 -0.2757
 8505TIP3    H147006   1.465   5.788  16.395 -0.3539 -0.9186 -1.3715
 8505TIP3    H247007   1.605   5.844  16.376  0.1655 -2.1732 -1.3522
 8506TIP3   OH247008   2.294   3.869   1.376 -0.5338 -0.4069  0.4677
 8506TIP3    H147009   2.323   3.957   1.354  2.2229 -1.4998 -0.8291
 8506TIP3    H247010   2.262   3.875   1.466 -1.9530  2.1701 -0.1305
 8507TIP3   OH247011   4.810   5.707  10.781  0.0074 -0.5394  0.4209
 8507TIP3    H147012   4.750   5.633  10.786 -1.5320  0.4594 -1.8383
 8507TIP3    H247013   4.760   5.781  10.815  0.5127  0.0070 -0.0023
 8508TIP3   OH247014   2.854   0.308  13.596 -0.3389  0.4874  0.3960
 8508TIP3    H147015   2.777   0.310  13.654 -1.1623 -2.4569 -0.4201
 8508TIP3    H247016   2.823   0.348  13.515 -1.8265 -2.4927 -0.6495
 8509TIP3   OH247017   3.248   3.436  11.458  0.0257 -0.7682  0.0756
 8509TIP3    H147018   3.320   3.396  11.507  0.7841  0.9833  0.5089
 8509TIP3    H247019   3.250   3.528  11.486 -1.0602 -0.2408 -1.4814
 8510TIP3   OH247020   2.060   1.574  16.212  0.2892  0.4077 -0.0746
 8510TIP3    H147021   2.033   1.650  16.160  0.4204  0.7756  0.3908
 8510TIP3    H247022   2.145   1.599  16.249  0.5723 -0.1620 -0.3231
 8511TIP3   OH247023   4.232   6.738  10.683 -0.3899 -0.0636 -0.3653
 8511TIP3    H147024   4.197   6.811  10.632 -2.3990  0.4013  1.5269
 8511TIP3    H247025   4.317   6.769  10.714 -0.4095  0.7392 -1.0804
 8512TIP3   OH247026   1.908   3.621  10.987 -0.0789  0.3943 -0.1210
 8512TIP3    H147027   1.858   3.656  11.061  0.2657 -2.3742  1.5488
 8512TIP3    H247028   1.842   3.609  10.918 -1.0811 -0.0317  0.8758
 8513TIP3   OH247029   4.079   3.621  13.205 -0.0204  0.3181  0.1946
 8513TIP3    H147030   4.022   3.568  13.261  0.2914 -0.7112 -0.4216
 8513TIP3    H247031   4.149   3.650  13.263  1.0593 -1.8975  0.1175
 8514TIP3   OH247032   5.746   0.629  13.203 -0.2113  0.0333  0.0682
 8514TIP3    H147033   5.795   0.689  13.146  1.2624  0.7248  1.9791
 8514TIP3    H247034   5.762   0.543  13.165 -1.9918  0.6796 -2.4711
 8515TIP3   OH247035   0.801   0.114   5.660  0.4776  0.2315 -0.6712
 8515TIP3    H147036   0.858   0.123   5.583  2.0356  3.3000  0.6267
 8515TIP3    H247037   0.860   0.125   5.734 -0.8451 -3.3778  1.1203
 8516TIP3   OH247038   1.253   3.516   3.436 -0.4511 -0.0334 -0.1260
 8516TIP3    H147039   1.274   3.424   3.449 -2.0230 -0.6874 -1.7982
 8516TIP3    H247040   1.337   3.557   3.414  0.4685 -0.7993  1.7387
 8517TIP3   OH247041   0.713   4.926   2.517 -0.2038 -0.2181 -0.4872
 8517TIP3    H147042   0.737   4.841   2.478  0.3680  0.4559 -1.6591
 8517TIP3    H247043   0.745   4.922   2.606  0.1666 -1.0926 -0.6504
 8518TIP3   OH247044   4.096   0.952  16.638  0.0226 -0.0933 -0.2878
 8518TIP3    H147045   4.068   0.951  16.546 -0.1350  1.4634 -0.2799
 8518TIP3    H247046   4.023   0.912  16.685  0.8404 -2.6044 -0.9723
 8519TIP3   OH247047   4.949   4.283   0.221 -1.0212  0.1386 -0.4778
 8519TIP3    H147048   5.012   4.243   0.161 -1.0718  0.3290 -0.6572
 8519TIP3    H247049   4.923   4.211   0.279 -0.3608  0.1425 -0.1682
 8520TIP3   OH247050   1.044   3.698   3.312  0.2136  0.3023 -0.2058
 8520TIP3    H147051   1.101   3.622   3.328  1.5592  1.0679 -1.1217
 8520TIP3    H247052   1.092   3.772   3.352 -1.2832  0.6397  1.0781
 8521TIP3   OH247053   6.240   4.475  15.345 -0.2904  0.0326 -0.7186
 8521TIP3    H147054   6.335   4.472  15.351 -0.3449  0.3732  0.6451
 8521TIP3    H247055   6.210   4.421  15.418 -1.1362  0.4582 -0.7397
 8522TIP3   OH247056   3.026   2.101   3.016 -0.4211 -0.1708 -0.3806
 8522TIP3    H147057   2.998   2.026   3.069  1.5008 -0.6290  0.0786
 8522TIP3    H247058   3.096   2.066   2.960 -0.5289  0.9461 -1.2551
 8523TIP3   OH247059   1.979   4.435   3.284 -0.9824  0.4018  0.1343
 8523TIP3    H147060   1.935   4.351   3.297 -0.5899  0.4967  2.4203
 8523TIP3    H247061   1.920   4.499   3.324 -0.5230  1.0167 -0.1586
 8524TIP3   OH247062   5.923   6.558  13.942 -0.2812  0.0895 -0.2594
 8524TIP3    H147063   5.871   6.481  13.919  2.5869 -1.2647 -3.1293
 8524TIP3    H247064   5.945   6.598  13.857  2.8739  0.7573  0.7326
 8525TIP3   OH247065   3.384   3.606  14.301  0.3810  0.3888  0.1022
 8525TIP3    H147066   3.318   3.544  14.272  1.0818 -1.0361  1.3910
 8525TIP3    H247067   3.335   3.676  14.343 -0.3689 -0.4248  0.6303
 8526TIP3   OH247068   3.118   2.045   2.352  0.2252 -0.6923  0.1079
 8526TIP3    H147069   3.143   1.953   2.356 -0.3124 -0.7902  2.6899
 8526TIP3    H247070   3.023   2.045   2.360 -0.0384  0.0495 -2.1631
 8527TIP3   OH247071   6.509   0.043  15.185  0.0380  0.1308  0.5772
 8527TIP3    H147072   6.569   0.026  15.112 -0.4197  1.5928 -0.1751
 8527TIP3    H247073   6.523  -0.031  15.245  1.5692 -0.2795 -0.2304
 8528TIP3   OH247074   2.942   0.061  11.685 -0.3809 -0.4161 -0.5055
 8528TIP3    H147075   3.006   0.004  11.728 -1.7869 -0.1778  2.1271
 8528TIP3    H247076   2.903   0.006  11.617  0.8325 -1.3600 -0.4909
 8529TIP3   OH247077   3.694   6.595   0.476  0.5542 -0.6111 -0.1944
 8529TIP3    H147078   3.663   6.509   0.505 -0.1345  0.1104  1.3159
 8529TIP3    H247079   3.660   6.604   0.388  1.4862 -2.2968 -0.7728
 8530TIP3   OH247080   3.720   5.850  11.942 -0.1991 -0.1038 -0.4736
 8530TIP3    H147081   3.724   5.943  11.923  0.6882  0.5010  2.1850
 8530TIP3    H247082   3.811   5.821  11.941 -0.5240 -1.1793 -2.1203
 8531TIP3   OH247083   6.416   2.940   4.241 -0.8993  0.0402  0.3275
 8531TIP3    H147084   6.494   2.906   4.284  0.5636 -0.7372 -2.6722
 8531TIP3    H247085   6.355   2.867   4.239  0.0063 -0.7231 -1.0254
 8532TIP3   OH247086   4.655   3.063  12.289  0.0863  0.4797  0.5529
 8532TIP3    H147087   4.750   3.061  12.279  0.0612 -0.0535  0.4082
 8532TIP3    H247088   4.638   3.008  12.366 -0.2631 -1.1536 -0.6574
 8533TIP3   OH247089   3.730   3.735   5.908  0.0713 -0.2208 -0.3919
 8533TIP3    H147090   3.726   3.671   5.980 -0.3373 -1.8738 -1.8248
 8533TIP3    H247091   3.769   3.813   5.948 -0.3891 -0.9801  1.6869
 8534TIP3   OH247092   4.185   1.685  11.377 -0.2267  0.5202 -0.0875
 8534TIP3    H147093   4.212   1.768  11.337 -0.1602  0.0234 -1.0973
 8534TIP3    H247094   4.229   1.684  11.462  0.6707  1.0185 -0.5356
 8535TIP3   OH247095   4.196   1.079  16.223 -0.0459  0.0394  0.0101
 8535TIP3    H147096   4.202   1.066  16.318 -1.6314 -1.2429 -0.0175
 8535TIP3    H247097   4.265   1.024  16.186  1.2042  1.2818  0.4325
 8536TIP3   OH247098   4.584   0.864  14.428  0.2856 -0.1865 -0.2901
 8536TIP3    H147099   4.499   0.828  14.402 -0.6878  0.2078  2.1435
 8536TIP3    H247100   4.624   0.891  14.345 -2.1821  0.1316 -1.4722
 8537TIP3   OH247101   6.442   1.522  17.113 -0.2944 -0.9976  0.6655
 8537TIP3    H147102   6.382   1.462  17.156  0.1402 -1.3744  0.7564
 8537TIP3    H247103   6.399   1.544  17.030 -1.5508  0.4288  1.6456
 8538TIP3   OH247104   3.039   5.927   3.257  0.6559 -0.2857 -0.4124
 8538TIP3    H147105   3.109   5.980   3.295  0.6092  0.2951 -1.1154
 8538TIP3    H247106   2.996   5.985   3.194 -0.6543 -0.5391  0.2164
 8539TIP3   OH247107   6.524   2.544   4.109  1.2088  0.7878 -0.0810
 8539TIP3    H147108   6.443   2.568   4.155  0.3849 -0.4125 -0.8650
 8539TIP3    H247109   6.508   2.456   4.076  2.8967  0.4768 -0.1582
 8540TIP3   OH247110   3.521   5.917   4.765 -0.6802 -0.0874  0.2216
 8540TIP3    H147111   3.600   5.865   4.751 -0.0805  0.8076  0.2295
 8540TIP3    H247112   3.497   5.950   4.679 -0.4462  0.4926  0.3759
 8541TIP3   OH247113   6.701   3.088  16.847 -0.1019 -0.3979 -0.7146
 8541TIP3    H147114   6.773   3.144  16.878  0.9415 -1.3942 -1.2407
 8541TIP3    H247115   6.692   3.110  16.755 -0.7700  0.0222 -0.5515
 8542TIP3   OH247116   3.991   1.118  11.151  0.2720 -0.1117  0.3932
 8542TIP3    H147117   3.930   1.071  11.094 -0.5088  0.6309  0.5849
 8542TIP3    H247118   4.006   1.201  11.106 -0.1983  0.4003  1.1675
 8543TIP3   OH247119   0.187   3.157   0.525 -0.1283  0.2947 -0.1652
 8543TIP3    H147120   0.221   3.106   0.452  2.4134 -0.5209  1.4249
 8543TIP3    H247121   0.132   3.224   0.485  1.1680 -0.1108 -2.8070
 8544TIP3   OH247122   6.797   2.921   0.053  0.2075  0.2082  0.1115
 8544TIP3    H147123   6.712   2.952   0.020 -0.3482  0.2904  1.5444
 8544TIP3    H247124   6.813   2.840   0.005 -0.4116  0.4831 -0.5818
 8545TIP3   OH247125   6.668   1.765  13.051  0.1472 -0.2415 -0.3567
 8545TIP3    H147126   6.762   1.777  13.066  0.2632 -2.3119  1.0983
 8545TIP3    H247127   6.633   1.744  13.138 -0.8504 -3.9191 -1.4946
 8546TIP3   OH247128   2.416   4.897   3.041 -0.6413  0.0931 -0.7693
 8546TIP3    H147129   2.495   4.915   2.992 -0.6304 -1.1699 -1.2584
 8546TIP3    H247130   2.350   4.878   2.975 -0.2670 -3.1022 -0.3938
 8547TIP3   OH247131   1.802   0.220  11.128 -0.0362 -0.1479 -0.1900
 8547TIP3    H147132   1.752   0.170  11.063  0.4241  0.4951 -1.0569
 8547TIP3    H247133   1.891   0.184  11.123 -0.0181 -0.1629  0.1650
 8548TIP3   OH247134   0.284   2.071   0.999 -0.8850  0.2968  0.0708
 8548TIP3    H147135   0.351   2.048   0.935 -1.3946  0.7323 -0.6234
 8548TIP3    H247136   0.222   1.998   0.996 -0.1667 -0.3790  1.1183
 8549TIP3   OH247137   3.186   1.701  15.219  0.7095 -0.4533  0.0039
 8549TIP3    H147138   3.143   1.682  15.302 -0.2597 -0.1808 -0.4217
 8549TIP3    H247139   3.184   1.618  15.172 -0.9189 -0.0607 -0.6943
 8550TIP3   OH247140   0.544   6.528  15.791 -0.7637 -0.0952 -0.4667
 8550TIP3    H147141   0.574   6.521  15.882 -0.5115  2.2337 -0.3003
 8550TIP3    H247142   0.483   6.455  15.780 -0.6349 -0.5628  1.5005
 8551TIP3   OH247143   1.674   6.705  14.623 -0.4039  0.7932 -0.1930
 8551TIP3    H147144   1.672   6.721  14.529  0.0228  0.1903 -0.3099
 8551TIP3    H247145   1.663   6.792  14.662  0.3684  1.1869 -0.8036
 8552TIP3   OH247146   4.393   0.152   4.298 -0.5401 -0.3932 -0.5016
 8552TIP3    H147147   4.434   0.205   4.367  0.2113 -0.2022 -1.0862
 8552TIP3    H247148   4.303   0.186   4.292 -0.6931 -0.5847  0.5550
 8553TIP3   OH247149   3.057   2.987   0.649  0.3425 -0.5002  0.2574
 8553TIP3    H147150   3.103   3.069   0.632 -0.5894  0.1831  0.9489
 8553TIP3    H247151   3.078   2.966   0.741 -2.1364  0.8114  1.2147
 8554TIP3   OH247152   0.906   6.371  11.308  0.0369  0.8882  0.3190
 8554TIP3    H147153   0.868   6.454  11.281 -0.5202  1.4435  2.5997
 8554TIP3    H247154   0.966   6.394  11.379 -0.6427 -0.7272  1.4633
 8555TIP3   OH247155   4.661   2.966   4.956 -0.1945 -0.3534  0.4204
 8555TIP3    H147156   4.660   3.050   4.910 -1.7886 -0.4311  0.2465
 8555TIP3    H247157   4.698   2.904   4.894 -1.6972 -0.3185 -0.5717
 8556TIP3   OH247158   4.343   5.183  15.822 -0.2512 -0.0173 -0.1592
 8556TIP3    H147159   4.310   5.183  15.732  0.7541  1.0634 -0.5532
 8556TIP3    H247160   4.425   5.135  15.818 -0.2564 -0.0616  0.2024
 8557TIP3   OH247161   3.828   1.364   2.776  0.1601  0.2823  0.0777
 8557TIP3    H147162   3.903   1.355   2.835  0.0358 -2.0904 -0.0216
 8557TIP3    H247163   3.816   1.276   2.740 -0.9561  1.2259 -2.0425
 8558TIP3   OH247164   5.895   5.699   1.385  0.0391  0.3471  0.2532
 8558TIP3    H147165   5.893   5.737   1.298 -1.6259 -0.3578 -0.0469
 8558TIP3    H247166   5.917   5.773   1.443  1.8398  0.6842 -0.7764
 8559TIP3   OH247167   2.119   3.322  12.396 -0.2973 -0.0224 -1.1908
 8559TIP3    H147168   2.116   3.237  12.440  0.1608  1.0015  0.9469
 8559TIP3    H247169   2.033   3.359  12.410  0.3062  0.9305  0.2315
 8560TIP3   OH247170   5.059   1.392   0.277  0.0962  0.3227  0.4250
 8560TIP3    H147171   5.116   1.442   0.336  0.0021  0.9611 -0.0170
 8560TIP3    H247172   5.063   1.439   0.194 -0.0948 -0.3433  0.0360
 8561TIP3   OH247173   5.471   5.937  12.074  0.2101 -0.1780 -0.4037
 8561TIP3    H147174   5.468   5.842  12.068  2.8655 -0.4603  1.3527
 8561TIP3    H247175   5.464   5.956  12.168  1.9604  1.1711 -0.4893
 8562TIP3   OH247176   4.853   3.190   3.064  0.2473 -0.5394  0.7679
 8562TIP3    H147177   4.934   3.149   3.095  0.5297  0.5034  1.4613
 8562TIP3    H247178   4.818   3.233   3.141 -0.5870 -0.3509  0.2877
 8563TIP3   OH247179   4.751   1.607  15.810 -0.2748 -0.0131  0.1744
 8563TIP3    H147180   4.733   1.618  15.717  3.2432  2.3711 -0.4573
 8563TIP3    H247181   4.707   1.681  15.852 -2.1048 -1.2511  0.5286
 8564TIP3   OH247182   1.786   3.431  17.123  0.2456 -0.2487 -0.5666
 8564TIP3    H147183   1.851   3.442  17.054 -0.3431 -3.1234 -1.7065
 8564TIP3    H247184   1.745   3.518  17.132  3.0236  1.2150 -0.9573
 8565TIP3   OH247185   2.608   2.351   0.808  0.3960  0.2537 -0.1049
 8565TIP3    H147186   2.536   2.396   0.852 -1.1846 -1.0102 -1.2658
 8565TIP3    H247187   2.605   2.383   0.718 -0.3839 -1.6006 -0.8052
 8566TIP3   OH247188   0.196   2.643   4.730 -0.3831  0.3281 -0.5296
 8566TIP3    H147189   0.204   2.738   4.724  1.8425  0.4853  2.6639
 8566TIP3    H247190   0.108   2.629   4.765  0.1130  1.4312  1.2723
 8567TIP3   OH247191   0.184   0.286  11.717 -0.6255  0.0694 -0.3539
 8567TIP3    H147192   0.091   0.277  11.740 -0.0475  0.4804  2.6080
 8567TIP3    H247193   0.220   0.198  11.728 -0.7595 -0.2877 -2.3764
 8568TIP3   OH247194   5.134   6.107   5.216  0.5375  0.1394  0.1958
 8568TIP3    H147195   5.203   6.132   5.155  1.3528 -0.1192  0.9871
 8568TIP3    H247196   5.150   6.014   5.233  0.5232  0.2855  1.0468
 8569TIP3   OH247197   0.437   2.617   0.484 -0.5050 -0.9587  0.7243
 8569TIP3    H147198   0.465   2.704   0.457  1.8489 -1.1080  2.3784
 8569TIP3    H247199   0.512   2.561   0.464 -0.4445 -1.8668  3.1839
 8570TIP3   OH247200   4.564   6.483  14.773 -0.0808  0.1502  0.4153
 8570TIP3    H147201   4.548   6.554  14.710 -2.6125  1.3966  2.3225
 8570TIP3    H247202   4.627   6.426  14.728 -0.9540  1.4897 -2.8030
 8571TIP3   OH247203   3.490   2.944   5.036 -0.1561  0.1975 -0.3721
 8571TIP3    H147204   3.455   3.018   5.087 -0.0404  1.0573 -1.5051
 8571TIP3    H247205   3.584   2.945   5.054 -0.0568  0.7492 -0.9075
 8572TIP3   OH247206   6.365   2.022   4.157  0.7588 -0.0796  1.0861
 8572TIP3    H147207   6.388   1.934   4.127  1.9846  0.4347  0.4540
 8572TIP3    H247208   6.270   2.019   4.170  0.6175 -1.1677 -0.0147
 8573TIP3   OH247209   5.845   3.652  11.307 -0.3641  0.0106 -0.3715
 8573TIP3    H147210   5.754   3.642  11.336 -1.2235  0.6682 -2.6674
 8573TIP3    H247211   5.853   3.597  11.230  0.8791  0.7455 -0.8033
 8574TIP3   OH247212   4.917   3.197   1.810  0.1892  0.2725 -0.2434
 8574TIP3    H147213   4.887   3.149   1.733  0.1944 -1.8354  1.0178
 8574TIP3    H247214   5.004   3.230   1.785 -0.4625  1.0182 -1.6634
 8575TIP3   OH247215   4.186   6.399  12.553 -0.6066 -0.1756 -0.2992
 8575TIP3    H147216   4.130   6.475  12.572  0.6482  0.5672  0.6141
 8575TIP3    H247217   4.255   6.404  12.619  0.4426 -1.1612 -1.2864
 8576TIP3   OH247218   0.362   4.503  12.856  0.1797  0.4003 -0.5044
 8576TIP3    H147219   0.387   4.568  12.922  0.3499  1.0924 -1.2373
 8576TIP3    H247220   0.438   4.498  12.797 -0.9662  1.7922 -2.1940
 8577TIP3   OH247221   5.226   4.583   5.862  0.5307 -0.1594 -0.2987
 8577TIP3    H147222   5.280   4.598   5.940  0.2913 -0.4579 -0.0698
 8577TIP3    H247223   5.146   4.544   5.896  0.7536 -1.0644 -0.7698
 8578TIP3   OH247224   6.827   6.252   5.260 -0.5761  0.4454 -0.0871
 8578TIP3    H147225   6.892   6.196   5.303 -1.6746 -1.0989 -0.3294
 8578TIP3    H247226   6.845   6.243   5.167  0.0344  1.5414 -0.0886
 8579TIP3   OH247227   2.258   1.334  11.967 -0.0410  0.0128 -0.0928
 8579TIP3    H147228   2.303   1.416  11.945  1.1952 -0.6164  0.0027
 8579TIP3    H247229   2.223   1.304  11.883 -0.1316  0.4179 -0.2046
 8580TIP3   OH247230   3.978   5.990  10.183  0.0584  0.1344 -0.4374
 8580TIP3    H147231   4.005   5.934  10.111  1.0871 -0.1183  0.1405
 8580TIP3    H247232   3.928   5.933  10.241 -1.9273  0.6203 -1.5471
 8581TIP3   OH247233   2.447   3.848  10.945 -0.2866  0.2127  0.1033
 8581TIP3    H147234   2.387   3.875  11.014 -1.6431 -1.1115 -0.5157
 8581TIP3    H247235   2.430   3.755  10.932 -0.0168  0.3972 -1.9585
 8582TIP3   OH247236   3.785   3.359   5.313 -0.4290  0.2440 -0.8380
 8582TIP3    H147237   3.719   3.360   5.383  1.5275 -0.4579  1.1021
 8582TIP3    H247238   3.830   3.443   5.322  0.5701 -0.3170 -0.4933
 8583TIP3   OH247239   5.493   6.699  15.368  0.2103  0.6317 -0.2471
 8583TIP3    H147240   5.549   6.622  15.375  0.7185  1.1655  2.8025
 8583TIP3    H247241   5.411   6.673  15.411 -0.8304  0.8356 -1.9933
 8584TIP3   OH247242   0.820   4.724   4.101 -0.1160  0.3043 -0.5492
 8584TIP3    H147243   0.786   4.767   4.023 -0.0982 -1.3699 -1.5366
 8584TIP3    H247244   0.842   4.635   4.072  1.4086  0.1195  0.9815
 8585TIP3   OH247245   3.682   5.815   2.987  0.2357  0.1236 -0.2586
 8585TIP3    H147246   3.597   5.799   2.946 -1.3813 -2.2640  3.5040
 8585TIP3    H247247   3.744   5.763   2.935 -1.0690 -0.3591 -1.3957
 8586TIP3   OH247248   2.167   1.461  17.057 -0.0182 -0.1513 -0.2687
 8586TIP3    H147249   2.179   1.543  17.010  0.4142 -0.0811 -0.0454
 8586TIP3    H247250   2.224   1.469  17.134 -0.3709 -0.4484  0.0235
 8587TIP3   OH247251   0.110   4.035  13.319 -0.0566  0.2232 -0.4127
 8587TIP3    H147252   0.116   3.996  13.232  3.2425  1.4552 -0.8884
 8587TIP3    H247253   0.091   4.128  13.302  2.8109  0.9466 -0.0629
 8588TIP3   OH247254   0.787   6.003   1.005 -0.2653 -0.0485 -0.6450
 8588TIP3    H147255   0.722   5.933   1.011 -1.9787  1.3932 -1.0525
 8588TIP3    H247256   0.871   5.961   1.020 -1.3827 -1.8485  0.9756
 8589TIP3   OH247257   0.151   0.024  12.948  0.2927  0.6754 -0.0315
 8589TIP3    H147258   0.090   0.089  12.912 -0.2881  0.6805  0.9315
 8589TIP3    H247259   0.229   0.073  12.971 -0.4434  1.1944  1.4457
 8590TIP3   OH247260   1.068   0.811   2.500  0.3013 -0.1406 -0.9182
 8590TIP3    H147261   1.138   0.749   2.481 -1.3428 -2.7650  0.8170
 8590TIP3    H247262   1.003   0.796   2.431 -0.0498 -0.2568 -0.5646
 8591TIP3   OH247263   5.433   3.100  17.016 -0.1106 -0.3176 -0.6567
 8591TIP3    H147264   5.487   3.175  17.042  0.7637 -1.1712  0.0239
 8591TIP3    H247265   5.381   3.080  17.094 -0.4146 -0.3649 -0.8703
 8592TIP3   OH247266   1.963   0.234  13.805 -0.6091 -0.5868  0.1782
 8592TIP3    H147267   1.878   0.222  13.848 -1.1920  0.5365 -0.5998
 8592TIP3    H247268   1.942   0.237  13.712 -0.0084  1.6915  0.0575
 8593TIP3   OH247269   1.972   1.473   5.414  0.0020 -0.1633  1.1114
 8593TIP3    H147270   1.922   1.546   5.376  3.2673  0.6125 -2.3092
 8593TIP3    H247271   1.921   1.395   5.392 -0.3721  0.6611 -1.2007
 8594TIP3   OH247272   2.792   0.884   4.637 -0.0242 -0.5265  0.6049
 8594TIP3    H147273   2.750   0.799   4.621 -0.3696  0.1054 -2.5204
 8594TIP3    H247274   2.723   0.938   4.676 -0.8740 -0.7324 -0.5652
 8595TIP3   OH247275   4.148   5.646   4.855 -0.5414  0.2611  0.0127
 8595TIP3    H147276   4.197   5.631   4.774 -0.0205  2.4918 -0.1659
 8595TIP3    H247277   4.056   5.640   4.830 -0.3805 -0.6978 -0.3725
 8596TIP3   OH247278   2.087   6.693   5.495 -0.4973 -0.2989 -0.3081
 8596TIP3    H147279   2.047   6.779   5.487  0.2900  0.0736 -0.3264
 8596TIP3    H247280   2.181   6.709   5.485 -0.4950 -1.4744 -2.8700
 8597TIP3   OH247281   2.755   2.695  13.463  0.0811  0.2726 -0.6222
 8597TIP3    H147282   2.672   2.742  13.454  0.6073  1.1410 -1.1884
 8597TIP3    H247283   2.784   2.712  13.552 -1.5216 -2.1065  0.4554
 8598TIP3   OH247284   5.926   4.005   0.104 -0.2177  0.2460 -0.5430
 8598TIP3    H147285   5.976   3.946   0.161  0.0587 -1.6824 -2.6744
 8598TIP3    H247286   5.836   3.997   0.136 -0.0039 -0.4618 -0.0730
 8599TIP3   OH247287   3.011   6.043  13.203 -0.5172 -0.2623 -0.3842
 8599TIP3    H147288   2.944   6.048  13.135 -0.5983  0.5034 -0.2500
 8599TIP3    H247289   3.069   5.972  13.175 -0.7013 -0.1255 -1.1082
 8600TIP3   OH247290   4.761   6.103   6.341  0.2168  0.2524  0.0462
 8600TIP3    H147291   4.730   6.021   6.303  0.5198  0.6959 -1.2251
 8600TIP3    H247292   4.682   6.152   6.361  0.0476 -0.0058  0.0107
 8601TIP3   OH247293   5.226   3.614   3.520  0.2335 -0.7960  0.1904
 8601TIP3    H147294   5.267   3.527   3.522  1.3463 -0.3080 -0.7702
 8601TIP3    H247295   5.255   3.656   3.601  3.6897  0.3973 -1.4510
 8602TIP3   OH247296   5.336   6.341  15.378 -0.3927 -0.0583  0.1733
 8602TIP3    H147297   5.330   6.267  15.438  0.9306  0.2376  0.6902
 8602TIP3    H247298   5.427   6.369  15.382 -0.7997  1.4458 -0.1888
 8603TIP3   OH247299   6.630   4.487   5.954  0.0564  0.0227  0.1892
 8603TIP3    H147300   6.630   4.391   5.951 -1.9607 -0.0347  0.8878
 8603TIP3    H247301   6.539   4.510   5.969  0.6061  2.0555  0.5792
 8604TIP3   OH247302   1.591   2.572  11.240 -0.4126 -0.0606  0.1551
 8604TIP3    H147303   1.618   2.652  11.195  0.8334 -1.3309 -1.4599
 8604TIP3    H247304   1.600   2.503  11.175 -1.5862 -1.5294  1.4618
 8605TIP3   OH247305   0.803   4.784   5.360 -0.1597 -0.0226  0.4297
 8605TIP3    H147306   0.709   4.788   5.345  0.0308  0.7141 -0.6916
 8605TIP3    H247307   0.824   4.691   5.359 -0.8107 -0.1693  0.2804
 8606TIP3   OH247308   2.793   0.378   0.259  0.2856  0.5718 -0.1805
 8606TIP3    H147309   2.774   0.452   0.202 -0.9520 -0.4690 -1.1759
 8606TIP3    H247310   2.726   0.381   0.327  0.4660  0.5739  0.0009
 8607TIP3   OH247311   1.558   3.934  14.193  0.5778 -0.4142 -0.4147
 8607TIP3    H147312   1.624   3.870  14.168 -0.6187 -2.3512  1.0485
 8607TIP3    H247313   1.478   3.883  14.204 -1.2612  1.8423 -2.2783
 8608TIP3   OH247314   0.057   1.800  14.079 -0.0654  0.0525  0.1116
 8608TIP3    H147315   0.062   1.721  14.133  0.8972  0.6388  0.9162
 8608TIP3    H247316   0.084   1.871  14.137 -0.2135  0.8841 -0.7973
 8609TIP3   OH247317   2.156   3.317   1.385  0.2778  0.0812  0.4417
 8609TIP3    H147318   2.223   3.325   1.318 -0.0240 -2.2589 -0.2225
 8609TIP3    H247319   2.076   3.297   1.336 -0.9595  2.7482  1.2152
 8610TIP3   OH247320   1.703   2.694  13.230 -0.4508 -0.1365 -0.2051
 8610TIP3    H147321   1.707   2.627  13.299  1.3571  0.5128  0.3864
 8610TIP3    H247322   1.635   2.662  13.171 -0.1045 -2.1783  0.3902
 8611TIP3   OH247323   2.680   6.632   5.923 -0.3163  0.4162  0.2863
 8611TIP3    H147324   2.732   6.554   5.902 -1.9281 -0.6538  0.0476
 8611TIP3    H247325   2.671   6.631   6.018  0.6135  0.9685  0.3881
 8612TIP3   OH247326   3.511   0.780   2.351 -0.4018 -0.0537  0.4704
 8612TIP3    H147327   3.439   0.774   2.414 -1.0262  2.7376  0.1424
 8612TIP3    H247328   3.564   0.853   2.382 -0.8609  1.5625 -2.2933
 8613TIP3   OH247329   1.006   6.505   0.487  0.0932 -0.1547  0.4065
 8613TIP3    H147330   0.985   6.554   0.567  0.0516  1.0717 -0.3328
 8613TIP3    H247331   1.083   6.548   0.451 -0.0673 -0.4950 -0.3789
 8614TIP3   OH247332   2.507   4.213   6.892  0.0565 -0.2967  0.1608
 8614TIP3    H147333   2.465   4.128   6.883 -1.6586  0.6121 -1.1934
 8614TIP3    H247334   2.593   4.194   6.928 -0.0813 -2.6350 -0.5800
 8615TIP3   OH247335   3.982   0.999   6.044  0.4906 -0.1117 -0.7601
 8615TIP3    H147336   4.030   1.059   5.987  1.5891  0.5704  0.8263
 8615TIP3    H247337   3.930   1.056   6.101  0.0604 -0.7447 -0.5130
 8616TIP3   OH247338   2.204   1.063   0.739 -0.0912 -0.5242  0.0023
 8616TIP3    H147339   2.269   1.133   0.734 -0.9522  0.2250 -1.6749
 8616TIP3    H247340   2.166   1.072   0.826 -0.3814  1.3261 -0.2757
 8617TIP3   OH247341   0.614   2.776  13.222 -0.0477  0.6842 -0.5812
 8617TIP3    H147342   0.628   2.691  13.180 -0.3051 -0.0308  0.7355
 8617TIP3    H247343   0.570   2.828  13.155 -0.3723 -0.3895 -1.2374
 8618TIP3   OH247344   2.577   3.709   5.082  0.1483 -0.0619  0.7097
 8618TIP3    H147345   2.584   3.791   5.033  0.2368  0.6272  1.8427
 8618TIP3    H247346   2.554   3.643   5.016  3.8764  0.0829 -0.9924
 8619TIP3   OH247347   0.102   2.610   5.356 -0.0653  0.1165  0.5623
 8619TIP3    H147348   0.105   2.590   5.450 -2.0973  1.3110  0.9482
 8619TIP3    H247349   0.123   2.528   5.313  1.3522 -0.3560  2.0504
 8620TIP3   OH247350   5.806   3.053  11.876 -0.3295  0.2280  0.0873
 8620TIP3    H147351   5.840   3.119  11.937 -0.6102  0.8729 -0.4382
 8620TIP3    H247352   5.872   2.984  11.876  0.8180  1.2867 -0.6343
 8621TIP3   OH247353   1.461   2.061   6.008 -0.6456 -0.1747 -0.2533
 8621TIP3    H147354   1.530   2.032   6.067 -0.5965  0.8157  0.1957
 8621TIP3    H247355   1.458   2.156   6.019 -1.3914 -0.0943 -1.0216
 8622TIP3   OH247356   1.221   5.900  14.310 -0.1285 -0.1766  0.1954
 8622TIP3    H147357   1.127   5.919  14.310 -0.0404  0.3753  2.0263
 8622TIP3    H247358   1.226   5.807  14.331 -0.2574  0.0123  1.1145
 8623TIP3   OH247359   1.873   6.565   6.290 -0.3387 -0.8243 -0.1953
 8623TIP3    H147360   1.955   6.572   6.340 -0.8797 -0.1049  0.6157
 8623TIP3    H247361   1.897   6.513   6.213  0.3653 -2.5775  1.1288
 8624TIP3   OH247362   2.899   6.763  15.925 -0.6416 -0.1979  0.4867
 8624TIP3    H147363   2.949   6.776  15.845 -3.1669 -0.6889 -1.2622
 8624TIP3    H247364   2.886   6.668  15.930 -1.4571 -0.0711  0.8912
 8625TIP3   OH247365   2.674   2.834   5.132  0.0628  0.2614 -0.0054
 8625TIP3    H147366   2.658   2.840   5.226  2.2629 -0.6436  0.4707
 8625TIP3    H247367   2.632   2.752   5.106  0.8553 -0.3216  0.5241
 8626TIP3   OH247368   1.543   1.743   4.194 -0.2228  0.2397 -0.1940
 8626TIP3    H147369   1.575   1.718   4.281  2.1171  0.9901 -0.7730
 8626TIP3    H247370   1.619   1.734   4.137 -0.9112  2.5638 -1.6116
 8627TIP3   OH247371   0.889   6.013   0.413  0.0994 -0.6113  0.2894
 8627TIP3    H147372   0.909   6.084   0.353  0.1260  0.2046  1.2453
 8627TIP3    H247373   0.918   5.934   0.367 -0.4597 -0.0848 -1.0290
 8628TIP3   OH247374   0.353   1.557   2.459  0.5066  0.2588 -0.2695
 8628TIP3    H147375   0.446   1.535   2.453  1.0217  2.2875 -0.7154
 8628TIP3    H247376   0.334   1.603   2.377 -1.3055 -1.4248 -0.8520
 8629TIP3   OH247377   5.184   3.002  11.264 -0.0418  0.6719  0.1071
 8629TIP3    H147378   5.210   2.912  11.242  0.8937  0.8601  0.3961
 8629TIP3    H247379   5.263   3.042  11.299 -1.1412  0.7439  2.7128
 8630TIP3   OH247380   2.704   2.271   5.708 -0.0198 -0.2925 -0.4010
 8630TIP3    H147381   2.708   2.242   5.617  0.4817  0.4659 -0.6320
 8630TIP3    H247382   2.660   2.200   5.754  0.2478 -0.9478 -1.1312
 8631TIP3   OH247383   2.893   5.188   3.925 -0.4300 -0.1967  0.0537
 8631TIP3    H147384   2.834   5.258   3.953 -0.1483  0.5395 -1.0865
 8631TIP3    H247385   2.975   5.207   3.970  0.2256  1.3669 -1.6448
 8632TIP3   OH247386   2.226   5.657  11.746  0.0673  0.1052 -0.5380
 8632TIP3    H147387   2.192   5.742  11.773 -0.5207 -0.4283  0.4412
 8632TIP3    H247388   2.177   5.593  11.798  1.1888 -0.7818 -0.5136
 8633TIP3   OH247389   1.483   6.105  15.633 -0.4976  0.4454  0.5064
 8633TIP3    H147390   1.435   6.181  15.600 -0.6617  0.4822  0.8191
 8633TIP3    H247391   1.569   6.110  15.592 -0.1734  1.3336  1.2508
 8634TIP3   OH247392   2.946   2.872  12.350  0.0063 -0.3312  0.1499
 8634TIP3    H147393   2.945   2.963  12.321  1.7445  0.3694  2.0200
 8634TIP3    H247394   2.856   2.842  12.339 -0.7583  1.8267  0.1002
 8635TIP3   OH247395   6.142   3.104  15.366  0.9282  0.9200  0.0176
 8635TIP3    H147396   6.220   3.159  15.354  0.9869  1.3463  2.0193
 8635TIP3    H247397   6.168   3.019  15.329  1.6733  1.5681 -1.0011
 8636TIP3   OH247398   0.281   5.118   2.171  0.0474 -0.0906  0.8100
 8636TIP3    H147399   0.258   5.026   2.177  0.6865 -0.3094  0.0211
 8636TIP3    H247400   0.375   5.121   2.187 -0.0423  0.4836  1.2834
 8637TIP3   OH247401   2.281   3.424   4.079  0.3286 -0.1728 -0.0527
 8637TIP3    H147402   2.275   3.423   3.983 -0.8124 -0.8557  0.0138
 8637TIP3    H247403   2.224   3.496   4.106  1.5331  0.7691  0.0875
 8638TIP3   OH247404   2.736   2.238  12.453 -0.2383  0.2848  0.1382
 8638TIP3    H147405   2.740   2.143  12.442 -1.7936  0.0006  1.6810
 8638TIP3    H247406   2.806   2.258  12.515 -1.8872 -0.3444  2.3197
 8639TIP3   OH247407   3.937   5.856  11.466 -0.4680  0.3056 -0.0384
 8639TIP3    H147408   3.915   5.947  11.488 -0.1605  0.9541 -2.1990
 8639TIP3    H247409   4.019   5.863  11.417  1.0055 -1.4192  1.9927
 8640TIP3   OH247410   1.460   4.428  16.813 -0.5429 -0.1838 -0.4015
 8640TIP3    H147411   1.475   4.520  16.838 -0.9557  0.0665 -1.0463
 8640TIP3    H247412   1.547   4.397  16.786 -0.4057  0.0331 -0.2151
 8641TIP3   OH247413   4.073   1.751   2.684  0.1365 -0.1020 -0.7738
 8641TIP3    H147414   4.010   1.679   2.679  0.3191 -0.4125  0.7866
 8641TIP3    H247415   4.158   1.708   2.676  0.2972 -0.2519  1.2006
 8642TIP3   OH247416   5.756   3.440   5.257  0.2920 -0.1294  0.0657
 8642TIP3    H147417   5.685   3.502   5.275  0.2066 -0.6818  1.8655
 8642TIP3    H247418   5.832   3.476   5.305  0.6467 -0.6243 -0.1160
 8643TIP3   OH247419   0.026   0.278  12.792  0.2201  0.1063  0.2271
 8643TIP3    H147420  -0.025   0.259  12.713  0.7715  0.4459 -0.2232
 8643TIP3    H247421   0.110   0.309  12.758 -0.0136  1.6109  0.9397
 8644TIP3   OH247422   6.042   3.147  12.220 -0.0304  0.4968  0.0035
 8644TIP3    H147423   6.108   3.215  12.235  1.0765 -0.9378  1.9351
 8644TIP3    H247424   5.998   3.137  12.304 -0.9753 -0.3679 -0.5752
 8645TIP3   OH247425   5.800   4.207   1.933 -0.6770  0.0085  0.1351
 8645TIP3    H147426   5.837   4.193   1.846  0.8101 -0.7124  0.8319
 8645TIP3    H247427   5.706   4.193   1.923 -1.0417  3.0359 -1.9751
 8646TIP3   OH247428   3.666   5.397  16.363 -0.3139  0.0806 -0.1679
 8646TIP3    H147429   3.588   5.407  16.417  0.3785  1.9435  0.5485
 8646TIP3    H247430   3.738   5.385  16.425  0.4351  1.8569 -0.6317
 8647TIP3   OH247431   3.847   1.967   3.560 -0.2238 -0.2031 -0.4672
 8647TIP3    H147432   3.791   1.988   3.485 -1.2228  1.5371  0.7000
 8647TIP3    H247433   3.922   1.922   3.522 -0.3707  1.2200 -2.6035
 8648TIP3   OH247434   0.441   4.804   3.316  0.3236  0.6118 -0.7593
 8648TIP3    H147435   0.381   4.817   3.390 -1.0491  1.2880 -1.9548
 8648TIP3    H247436   0.435   4.711   3.297 -0.4667  0.6968 -0.9547
 8649TIP3   OH247437   2.329   1.916   5.260 -0.6994  0.4075 -0.6195
 8649TIP3    H147438   2.416   1.954   5.247 -0.9396  0.9757 -0.5839
 8649TIP3    H247439   2.342   1.849   5.327 -0.3493  0.7083 -0.3818
 8650TIP3   OH247440   5.383   4.460  10.779  0.2739  0.2645 -0.4783
 8650TIP3    H147441   5.448   4.425  10.840 -0.6048 -1.6208 -0.5592
 8650TIP3    H247442   5.319   4.504  10.836 -0.4513 -1.3333 -0.0110
 8651TIP3   OH247443   0.818   4.447  13.744  0.2968 -0.0236  0.1188
 8651TIP3    H147444   0.790   4.360  13.717  0.9415 -0.7134  1.5873
 8651TIP3    H247445   0.759   4.471  13.816 -1.4449  1.8223 -1.7593
 8652TIP3   OH247446   3.650   4.023   6.403 -0.3733  0.2229  0.0217
 8652TIP3    H147447   3.571   4.034   6.455  0.1180 -0.0621  0.8503
 8652TIP3    H247448   3.721   4.020   6.467  0.2549 -0.0651 -0.6664
 8653TIP3   OH247449   5.716   5.551  13.779  0.1620 -0.1622  0.0931
 8653TIP3    H147450   5.724   5.546  13.684  1.4621  1.9272  0.0302
 8653TIP3    H247451   5.738   5.464  13.810 -0.7968 -1.0303 -1.5204
 8654TIP3   OH247452   3.814   3.557  14.399  0.2400 -0.2253  0.2360
 8654TIP3    H147453   3.881   3.493  14.425 -1.2524 -1.5861  0.8356
 8654TIP3    H247454   3.826   3.565  14.304  1.5097 -0.1243  0.3817
 8655TIP3   OH247455   1.292   6.236   2.429  0.1262  0.1882 -0.1088
 8655TIP3    H147456   1.262   6.149   2.455  0.3303  0.4367  1.0105
 8655TIP3    H247457   1.243   6.296   2.486 -0.4717  0.8490 -1.2943
 8656TIP3   OH247458   5.433   1.093  15.841  0.5348  0.7016 -0.1648
 8656TIP3    H147459   5.353   1.141  15.821  0.2009  1.1826  1.9868
 8656TIP3    H247460   5.492   1.113  15.770 -0.3463  2.5690 -0.4274
 8657TIP3   OH247461   0.555   1.890  16.900 -0.1968  0.0017 -0.0782
 8657TIP3    H147462   0.542   1.924  16.988  1.5069  0.6660 -0.0589
 8657TIP3    H247463   0.553   1.795  16.911  2.5742  0.0128  1.1604
 8658TIP3   OH247464   2.385   0.753  16.867  0.2689 -0.2134 -0.7023
 8658TIP3    H147465   2.399   0.821  16.801  0.7814  2.1901  1.7236
 8658TIP3    H247466   2.469   0.743  16.911 -0.1857 -1.3584 -0.0396
 8659TIP3   OH247467   2.938   2.938   4.257 -0.1064 -0.3301 -0.4798
 8659TIP3    H147468   3.027   2.914   4.282 -0.2466  0.0754  0.4637
 8659TIP3    H247469   2.883   2.907   4.329 -0.8280 -1.1698 -1.3584
 8660TIP3   OH247470   4.728   0.680  14.067 -0.3817 -0.0853 -0.1996
 8660TIP3    H147471   4.645   0.677  14.116 -0.3710  1.7850  0.0048
 8660TIP3    H247472   4.758   0.589  14.066 -2.8181 -0.9767 -0.9860
 8661TIP3   OH247473   1.213   3.454   6.774  0.2256  0.1857  0.7050
 8661TIP3    H147474   1.258   3.387   6.722  0.6123 -0.6894  2.1041
 8661TIP3    H247475   1.249   3.537   6.743 -1.0023 -0.1116 -1.7923
 8662TIP3   OH247476   5.449   4.121  14.888  0.7071 -0.0066  0.6248
 8662TIP3    H147477   5.473   4.028  14.885  1.5721  0.1128  2.4897
 8662TIP3    H247478   5.374   4.128  14.828  0.7554 -1.8487  0.2767
 8663TIP3   OH247479   6.592   0.296   5.634 -0.1242 -0.0636 -0.4025
 8663TIP3    H147480   6.548   0.291   5.549  0.1309  0.2649 -0.5544
 8663TIP3    H247481   6.685   0.295   5.613 -0.0607  0.4062 -0.1464
 8664TIP3   OH247482   6.182   3.841   2.367  0.5152  0.5759  0.9849
 8664TIP3    H147483   6.217   3.824   2.280 -1.6755  0.3366  0.0990
 8664TIP3    H247484   6.250   3.809   2.426  1.7293  0.0400 -0.6328
 8665TIP3   OH247485   6.669   4.409  16.325 -0.3095  0.2360  0.2067
 8665TIP3    H147486   6.619   4.332  16.352  1.9791 -0.6186  2.4864
 8665TIP3    H247487   6.761   4.381  16.331  0.5535  2.4622 -1.2191
 8666TIP3   OH247488   2.185   4.187   3.241 -0.0977 -0.1342  0.1102
 8666TIP3    H147489   2.090   4.180   3.239 -0.0445 -0.9216 -1.9408
 8666TIP3    H247490   2.214   4.110   3.289 -0.4575 -0.4309 -0.1459
 8667TIP3   OH247491   4.463   4.982  11.893  0.2382  0.2101  0.1750
 8667TIP3    H147492   4.378   4.938  11.895  0.7303 -0.7444  0.6607
 8667TIP3    H247493   4.479   5.000  11.801  0.3759 -1.3310 -0.1147
 8668TIP3   OH247494   6.023   4.687  11.741 -0.3917 -0.0469  0.0064
 8668TIP3    H147495   6.038   4.660  11.651  0.8951  1.3365 -0.2410
 8668TIP3    H247496   6.095   4.747  11.760 -0.1967 -0.9030  2.2197
 8669TIP3   OH247497   2.003   5.081  14.989 -0.4025 -0.1204  0.4622
 8669TIP3    H147498   2.011   4.990  14.962 -0.3973  0.5823 -2.1331
 8669TIP3    H247499   1.908   5.095  14.997 -0.5709  0.2688 -1.6952
 8670TIP3   OH247500   0.555   6.309   4.882  0.7511  0.1869 -0.2329
 8670TIP3    H147501   0.470   6.301   4.840  0.3951 -0.4542  0.5865
 8670TIP3    H247502   0.537   6.302   4.976  1.4686  1.9545  0.0961
 8671TIP3   OH247503   4.703   1.727   1.028 -0.2923 -0.4645  0.0461
 8671TIP3    H147504   4.740   1.667   1.092 -0.6060  0.3636  1.0279
 8671TIP3    H247505   4.767   1.798   1.022 -1.6492  1.0110  1.8053
 8672TIP3   OH247506   6.508   0.381  11.967  0.3814  0.2069  0.3329
 8672TIP3    H147507   6.437   0.323  11.995  0.9082  0.2014  1.7385
 8672TIP3    H247508   6.466   0.466  11.954  0.2036  0.3507  1.7343
 8673TIP3   OH247509   2.630   0.863   0.344  0.4821  0.0450  0.8205
 8673TIP3    H147510   2.632   0.834   0.435 -0.7094  0.8738  1.1309
 8673TIP3    H247511   2.578   0.943   0.346 -2.8575 -1.8696 -1.1113
 8674TIP3   OH247512   1.554   5.737   1.131  0.1608  0.6014 -0.1103
 8674TIP3    H147513   1.621   5.698   1.075  0.8327  0.5795  0.6844
 8674TIP3    H247514   1.597   5.811   1.173 -0.7112  1.4001 -0.5791
 8675TIP3   OH247515   4.857   2.238  14.710  0.4381  0.1916  0.0020
 8675TIP3    H147516   4.880   2.196  14.793  2.0797  1.1087  0.0586
 8675TIP3    H247517   4.869   2.169  14.644  1.2827  0.0398  0.3010
 8676TIP3   OH247518   4.933   3.543  13.622  0.5265  0.0550  0.0299
 8676TIP3    H147519   4.912   3.459  13.582  1.4988 -0.9658  1.5819
 8676TIP3    H247520   5.017   3.568  13.582  2.8057 -2.1702  2.9838
 8677TIP3   OH247521   4.339   1.895   4.872  0.0063 -0.7024  0.4004
 8677TIP3    H147522   4.412   1.833   4.870  2.2068  1.7180  0.8115
 8677TIP3    H247523   4.356   1.950   4.948 -1.0688  1.2658 -0.7127
 8678TIP3   OH247524   5.557   6.827   5.576 -0.4414 -0.6664  0.2748
 8678TIP3    H147525   5.546   6.893   5.645  0.2069  0.1373 -0.3756
 8678TIP3    H247526   5.468   6.811   5.544 -0.8057 -1.3719  1.5749
 8679TIP3   OH247527   5.402   2.404   5.209 -0.3860  0.2215  0.4191
 8679TIP3    H147528   5.459   2.395   5.133 -0.5175  2.4961  0.0089
 8679TIP3    H247529   5.373   2.314   5.227  1.2619 -0.6483 -0.9195
 8680TIP3   OH247530   3.836   1.656  12.585 -0.0188 -0.1474 -0.4843
 8680TIP3    H147531   3.910   1.659  12.647 -0.1747  2.3345 -0.3097
 8680TIP3    H247532   3.872   1.612  12.508  1.8839  1.4836 -0.6180
 8681TIP3   OH247533   4.037   4.507   3.452  0.4316 -0.0413  0.0644
 8681TIP3    H147534   4.107   4.495   3.516  0.6963  1.5894  0.1307
 8681TIP3    H247535   4.056   4.591   3.411  0.0657 -0.8678 -1.9371
 8682TIP3   OH247536   4.330   5.037   0.709  0.1443 -0.2330 -0.6061
 8682TIP3    H147537   4.348   5.055   0.617  0.9316 -0.9254 -0.5968
 8682TIP3    H247538   4.406   4.988   0.739 -0.4043 -0.5821  0.2431
 8683TIP3   OH247539   5.870   5.307  11.878 -0.1424  0.3996 -0.0899
 8683TIP3    H147540   5.857   5.227  11.827 -1.3403 -0.8611  2.0910
 8683TIP3    H247541   5.959   5.299  11.913 -0.5030 -0.3490  0.6881
 8684TIP3   OH247542   3.815   3.018  12.201 -0.4352  0.1201  0.4898
 8684TIP3    H147543   3.745   2.980  12.255 -0.8593  1.0975  0.6591
 8684TIP3    H247544   3.806   3.112  12.215  1.6077  0.2377  1.3884
 8685TIP3   OH247545   0.088   2.341  16.906 -0.3176 -0.4075  0.0670
 8685TIP3    H147546   0.117   2.412  16.849 -0.1561 -0.1485  0.4681
 8685TIP3    H247547   0.119   2.261  16.863 -0.4953 -0.2396 -0.3830
 8686TIP3   OH247548   6.502   4.904   2.794 -0.2007 -0.1909  0.0477
 8686TIP3    H147549   6.501   4.998   2.812 -0.4705 -0.2697  0.4603
 8686TIP3    H247550   6.591   4.876   2.818 -0.0683 -0.0160 -0.2283
 8687TIP3   OH247551   0.152   3.610  11.545 -0.5962  0.5829 -0.0773
 8687TIP3    H147552   0.077   3.592  11.488 -1.4881  1.0246  0.9217
 8687TIP3    H247553   0.190   3.690  11.510 -0.5426  0.3228 -0.6303
 8688TIP3   OH247554   6.025   1.518  15.339  0.2850  0.3157 -0.6287
 8688TIP3    H147555   6.118   1.525  15.361 -0.0103  2.5439  0.1605
 8688TIP3    H247556   5.986   1.597  15.375 -1.8897 -0.4260 -1.2088
 8689TIP3   OH247557   5.001   1.818  10.966  0.1623 -0.4122  0.1609
 8689TIP3    H147558   4.941   1.891  10.975  0.0487 -0.5020  0.1273
 8689TIP3    H247559   5.030   1.799  11.056  1.2069  0.5223  0.0544
 8690TIP3   OH247560   6.298   6.421  15.241  0.2193  0.0275 -0.2490
 8690TIP3    H147561   6.271   6.408  15.150 -0.2612  0.8706 -0.2265
 8690TIP3    H247562   6.310   6.332  15.274 -2.0417 -0.4053 -0.4046
 8691TIP3   OH247563   6.761   5.724  16.630  0.0053  0.0116 -0.6255
 8691TIP3    H147564   6.736   5.804  16.676 -0.6209 -0.4383 -0.1643
 8691TIP3    H247565   6.846   5.701  16.666 -0.1167  0.1061 -0.2766
 8692TIP3   OH247566   1.199   1.924   0.891 -0.5421 -0.1152 -0.2379
 8692TIP3    H147567   1.225   1.981   0.964  0.4746 -1.3062  0.3599
 8692TIP3    H247568   1.268   1.935   0.826 -2.3856  2.4114 -1.9470
 8693TIP3   OH247569   1.475   6.534  11.033 -0.3987 -0.3993 -0.0165
 8693TIP3    H147570   1.505   6.447  11.060  0.6552 -0.6335 -1.8072
 8693TIP3    H247571   1.409   6.518  10.966  1.7657  0.0760 -2.4299
 8694TIP3   OH247572   1.347   0.103   6.687  0.4178 -0.2840  0.3153
 8694TIP3    H147573   1.363   0.090   6.594  1.2691  1.2560  0.2081
 8694TIP3    H247574   1.424   0.069   6.731  0.7750  0.4962  0.3173
 8695TIP3   OH247575   1.128   3.959  15.888  0.7756 -0.4479 -0.1086
 8695TIP3    H147576   1.061   4.026  15.876 -0.5328 -1.6829  0.1653
 8695TIP3    H247577   1.085   3.877  15.867  1.6112 -1.4909  1.9328
 8696TIP3   OH247578   5.763   3.578   0.666  0.1314 -0.1699 -0.9942
 8696TIP3    H147579   5.834   3.514   0.661  0.3263 -0.3643  2.1469
 8696TIP3    H247580   5.805   3.659   0.694 -0.4015  0.8939 -3.0256
 8697TIP3   OH247581   4.477   2.636   4.923 -0.3556 -0.2485  0.1412
 8697TIP3    H147582   4.545   2.691   4.883  0.5965 -2.1793 -1.0403
 8697TIP3    H247583   4.416   2.617   4.852 -1.2352  0.0859  0.7899
 8698TIP3   OH247584   3.113   5.246  14.680  0.2320 -0.0507 -0.0024
 8698TIP3    H147585   3.157   5.314  14.731 -0.7441  0.7105 -0.1386
 8698TIP3    H247586   3.182   5.184  14.658  1.1446  0.8813  0.1538
 8699TIP3   OH247587   5.848   0.693   6.379 -0.4039 -0.0357  0.4352
 8699TIP3    H147588   5.843   0.623   6.315 -1.0518 -0.6246  1.1057
 8699TIP3    H247589   5.942   0.706   6.393 -0.2712 -0.4647 -0.0255
 8700TIP3   OH247590   2.144   3.707  13.379 -0.3580  0.4263 -0.2447
 8700TIP3    H147591   2.172   3.799  13.384  1.3910 -0.1064  0.3365
 8700TIP3    H247592   2.096   3.692  13.460 -1.0048  0.9282 -0.5274
 8701TIP3   OH247593   0.964   1.403  15.286 -0.5117  0.1679 -0.5797
 8701TIP3    H147594   1.031   1.354  15.335 -0.8455 -0.7806 -1.0402
 8701TIP3    H247595   0.996   1.404  15.196  0.5395  2.6785 -0.2415
 8702TIP3   OH247596   6.558   1.394  12.707  0.4974 -0.3770  0.1352
 8702TIP3    H147597   6.468   1.417  12.686  0.7138 -1.1463 -1.8781
 8702TIP3    H247598   6.589   1.465  12.763 -1.4875 -0.3684  1.3286
 8703TIP3   OH247599   2.410   1.937  12.074  0.0970 -0.0337  0.1186
 8703TIP3    H147600   2.404   2.010  12.012  1.4942 -0.4889 -0.5910
 8703TIP3    H247601   2.394   1.977  12.160 -1.5929  0.6599 -0.4749
 8704TIP3   OH247602   0.287   6.410  12.768  0.1016 -0.3106  0.1985
 8704TIP3    H147603   0.330   6.495  12.777  0.6643 -0.6144  0.3991
 8704TIP3    H247604   0.281   6.395  12.674  2.4206 -1.2501  0.1351
 8705TIP3   OH247605   0.263   4.836   6.344  0.1033  0.4166 -0.0657
 8705TIP3    H147606   0.244   4.808   6.434  1.6078  1.0185  0.4712
 8705TIP3    H247607   0.320   4.912   6.354  2.5757 -1.1151 -1.5137
 8706TIP3   OH247608   3.354   4.433  14.859  0.5800 -0.0730 -0.2947
 8706TIP3    H147609   3.341   4.467  14.770 -0.3789 -0.3701 -0.2770
 8706TIP3    H247610   3.449   4.418  14.865  0.6929  0.2337 -1.1583
 8707TIP3   OH247611   6.046   5.854  12.808  0.5181 -0.0733  0.3106
 8707TIP3    H147612   6.063   5.824  12.897 -2.0270 -1.1933  0.5278
 8707TIP3    H247613   6.011   5.776  12.764 -2.4694  1.4968 -0.3217
 8708TIP3   OH247614   2.450   0.123  15.390  0.0321 -0.0702 -0.6198
 8708TIP3    H147615   2.364   0.156  15.418 -0.9704 -2.2534 -0.9885
 8708TIP3    H247616   2.463   0.043  15.441  1.4421 -0.2713 -1.2523
 8709TIP3   OH247617   0.333   4.650  14.117  0.5025  0.3899  0.1890
 8709TIP3    H147618   0.389   4.690  14.051  1.6830 -0.7987  0.4357
 8709TIP3    H247619   0.389   4.640  14.194 -0.9697  2.2502  1.6300
 8710TIP3   OH247620   2.751   4.641   5.246 -0.1884 -0.4123  0.0734
 8710TIP3    H147621   2.657   4.621   5.248 -0.2051 -0.5901 -1.3415
 8710TIP3    H247622   2.760   4.719   5.301 -1.6668  1.3706 -2.0230
 8711TIP3   OH247623   0.516   1.469  15.174  0.0047 -0.2112 -0.0895
 8711TIP3    H147624   0.607   1.472  15.143 -0.4335 -0.7727 -1.5257
 8711TIP3    H247625   0.512   1.389  15.227  0.3145 -0.2637 -0.1411
 8712TIP3   OH247626   1.494   0.846   2.516 -0.4229  0.4732 -0.2179
 8712TIP3    H147627   1.460   0.795   2.442  2.2091 -0.8291 -0.6170
 8712TIP3    H247628   1.559   0.905   2.477  0.1644  0.6013  0.9196
 8713TIP3   OH247629   0.851   5.533   0.192  0.2164 -0.2391 -0.1184
 8713TIP3    H147630   0.867   5.507   0.102  0.3153 -0.3409 -0.0721
 8713TIP3    H247631   0.771   5.586   0.189  0.0513 -0.4958 -0.2222
 8714TIP3   OH247632   4.630   3.927  14.194 -0.3589 -0.3428 -0.3466
 8714TIP3    H147633   4.637   3.912  14.288  1.3872 -0.3944 -0.4516
 8714TIP3    H247634   4.720   3.937  14.164 -0.9061  0.2836 -1.9265
 8715TIP3   OH247635   4.498   6.617   3.696 -0.1753 -0.1546  0.4744
 8715TIP3    H147636   4.438   6.690   3.715 -0.3353 -0.1345 -0.0616
 8715TIP3    H247637   4.547   6.604   3.776 -0.0647  0.6278  0.5408
 8716TIP3   OH247638   0.709   5.881  15.222  0.2075  0.2062  0.4030
 8716TIP3    H147639   0.733   5.892  15.130  1.4049 -0.1699  0.6444
 8716TIP3    H247640   0.665   5.963  15.246 -0.7289  0.0420 -0.6697
 8717TIP3   OH247641   6.238   3.623   5.307 -0.2300 -0.0848  0.0929
 8717TIP3    H147642   6.172   3.565   5.270 -0.1860  0.4327 -0.8331
 8717TIP3    H247643   6.267   3.579   5.387 -0.3583 -1.2156 -0.4720
 8718TIP3   OH247644   6.425   4.419  16.525 -0.1744  0.1903  0.2947
 8718TIP3    H147645   6.514   4.401  16.553 -0.0409  0.7207  0.2231
 8718TIP3    H247646   6.380   4.335  16.530  0.4497 -0.1718 -0.1222
 8719TIP3   OH247647   1.041   4.723   0.052 -0.3820 -0.1824 -0.1140
 8719TIP3    H147648   1.079   4.802   0.013  0.2668 -0.2795  0.3126
 8719TIP3    H247649   1.059   4.731   0.146  0.1759 -1.0926 -0.1315
 8720TIP3   OH247650   0.714   0.514   4.577  0.6306  0.1822  0.5405
 8720TIP3    H147651   0.779   0.456   4.536  0.5598  0.8636 -0.5816
 8720TIP3    H247652   0.668   0.458   4.639  2.0037 -0.4253  1.0549
 8721TIP3   OH247653   6.644   3.918   1.561 -0.2624 -0.3221  0.1054
 8721TIP3    H147654   6.649   4.014   1.563 -1.3860 -0.1656 -2.2041
 8721TIP3    H247655   6.553   3.899   1.586 -1.0512 -0.5446 -2.6865
 8722TIP3   OH247656   3.575   6.709   3.983 -0.5227  0.2215  0.2327
 8722TIP3    H147657   3.551   6.657   4.059  0.1511  0.5355  0.6712
 8722TIP3    H247658   3.492   6.743   3.950 -0.9427 -0.8288  0.1420
 8723TIP3   OH247659   5.970   5.121  16.560  0.1137 -0.0212  0.6024
 8723TIP3    H147660   5.886   5.161  16.582 -0.7738 -0.0330 -2.3275
 8723TIP3    H247661   6.028   5.195  16.541  0.0202 -0.0290  0.2718
 8724TIP3   OH247662   4.087   1.011  13.685  0.0710 -0.0574  0.2192
 8724TIP3    H147663   4.129   1.036  13.603  2.9544 -0.8010  1.3265
 8724TIP3    H247664   4.099   0.917  13.691  0.8269  0.1019  1.8932
 8725TIP3   OH247665   2.378   3.448   3.432 -0.3443  0.3903  0.2966
 8725TIP3    H147666   2.348   3.426   3.519  1.9121  1.1571  1.3468
 8725TIP3    H247667   2.469   3.419   3.429 -0.4687  0.0278 -1.9491
 8726TIP3   OH247668   5.498   6.091   5.244 -0.3166  0.1137 -0.4252
 8726TIP3    H147669   5.513   5.996   5.240  0.1477  0.1583  0.0641
 8726TIP3    H247670   5.460   6.113   5.160  1.9936 -0.0941 -1.6053
 8727TIP3   OH247671   1.499   4.099   0.637  0.0629 -0.3062 -0.4490
 8727TIP3    H147672   1.459   4.171   0.588 -1.2326  0.2113  1.2641
 8727TIP3    H247673   1.589   4.127   0.653  0.1186  0.0828 -1.3798
 8728TIP3   OH247674   3.691   2.898  15.036  0.4982  0.1028  0.7215
 8728TIP3    H147675   3.671   2.848  14.958  1.2714 -0.2329  0.7331
 8728TIP3    H247676   3.609   2.898  15.086  0.5196 -1.2865  0.7956
 8729TIP3   OH247677   2.377   0.922   5.563 -0.1445  0.0037  0.8242
 8729TIP3    H147678   2.376   0.961   5.651 -0.7484  0.6445  0.5370
 8729TIP3    H247679   2.286   0.902   5.544 -0.0780  0.3444  0.1297
 8730TIP3   OH247680   4.560   1.337  15.417 -1.1868 -0.7512  0.5110
 8730TIP3    H147681   4.532   1.378  15.336  0.9261  1.9476  0.9848
 8730TIP3    H247682   4.484   1.288  15.448 -3.6061  1.9936 -0.7339
 8731TIP3   OH247683   2.986   1.515   1.845 -0.2334 -0.6318  0.3883
 8731TIP3    H147684   3.021   1.445   1.901 -0.2115 -1.2582 -0.3865
 8731TIP3    H247685   2.983   1.592   1.901  1.0716 -0.9139  0.8629
 8732TIP3   OH247686   3.353   3.927   4.853  0.2431 -0.1707 -0.3758
 8732TIP3    H147687   3.430   3.875   4.833  0.6449  1.1005 -2.4745
 8732TIP3    H247688   3.382   4.018   4.844 -0.8233  0.4163  1.6107
 8733TIP3   OH247689   3.847   3.094   5.718  0.2923  0.1262  0.1619
 8733TIP3    H147690   3.898   3.014   5.733  0.5278 -0.0021 -1.1999
 8733TIP3    H247691   3.860   3.114   5.625  1.5183  2.6239  0.7663
 8734TIP3   OH247692   5.237   4.889  15.744  0.3129 -0.7328  0.0912
 8734TIP3    H147693   5.206   4.951  15.809 -0.9758  1.0702 -2.0820
 8734TIP3    H247694   5.182   4.812  15.756 -0.6357 -0.0211  0.4668
 8735TIP3   OH247695   1.412   5.499   5.737 -0.1752  0.1034  0.3018
 8735TIP3    H147696   1.364   5.519   5.818 -1.5269 -2.2687  0.1708
 8735TIP3    H247697   1.346   5.460   5.679  0.3931  3.0764 -2.6100
 8736TIP3   OH247698   0.298   0.005   0.951 -0.8269  0.0420  0.5673
 8736TIP3    H147699   0.224   0.020   0.892 -0.9481 -2.0513  0.1150
 8736TIP3    H247700   0.262   0.019   1.039 -1.0727  1.5095  0.2677
 8737TIP3   OH247701   0.529   5.720   3.701 -0.0859  0.1453  0.2299
 8737TIP3    H147702   0.574   5.749   3.622 -0.7731 -0.9686 -0.5948
 8737TIP3    H247703   0.462   5.786   3.717 -0.2309  0.1554 -0.3917
 8738TIP3   OH247704   4.229   4.679  11.144  0.1695 -0.0395 -0.1966
 8738TIP3    H147705   4.171   4.750  11.117  2.4278  1.7877 -0.6250
 8738TIP3    H247706   4.213   4.609  11.080 -0.5166  0.9652 -1.1480
 8739TIP3   OH247707   3.753   5.896  16.486 -0.0535 -0.6108  0.0184
 8739TIP3    H147708   3.713   5.828  16.433  0.6747 -2.0391  1.2437
 8739TIP3    H247709   3.819   5.935  16.428 -0.1215 -1.2875 -0.5237
 8740TIP3   OH247710   0.817   6.354   4.825 -0.3037  0.5107 -0.2645
 8740TIP3    H147711   0.728   6.342   4.859 -0.1108 -1.0585 -0.2339
 8740TIP3    H247712   0.834   6.274   4.776 -0.1230  2.1945 -3.1533
 8741TIP3   OH247713   2.045   4.594   2.247 -0.2465  0.1236 -0.0067
 8741TIP3    H147714   2.003   4.575   2.163  2.3441 -2.6878 -0.8091
 8741TIP3    H247715   2.023   4.519   2.302 -1.3741  1.6358  1.7316
 8742TIP3   OH247716   6.777   3.843  14.108 -0.1324 -0.3320 -0.3288
 8742TIP3    H147717   6.792   3.798  14.025 -2.0853  0.2495 -1.0472
 8742TIP3    H247718   6.683   3.860  14.110  0.1498  1.4180  1.1027
 8743TIP3   OH247719   0.969   0.200   5.869  0.0017 -0.6372  0.3634
 8743TIP3    H147720   1.029   0.267   5.837 -1.0901  0.0506 -0.2950
 8743TIP3    H247721   1.016   0.158   5.941  2.0580 -1.4044 -1.3106
 8744TIP3   OH247722   2.164   5.020   5.637 -0.6364  0.0348  0.3877
 8744TIP3    H147723   2.149   5.080   5.710 -0.7613 -0.5340  0.8352
 8744TIP3    H247724   2.230   4.959   5.669 -1.8889 -1.2388  0.6397
 8745TIP3   OH247725   4.866   3.676   1.158  0.0444 -0.3173  0.3627
 8745TIP3    H147726   4.909   3.757   1.129 -0.7420 -0.1590 -0.4162
 8745TIP3    H247727   4.935   3.609   1.152  0.0095 -0.2537 -1.7208
 8746TIP3   OH247728   5.179   3.512  15.605 -0.3826  0.1348  0.5520
 8746TIP3    H147729   5.093   3.507  15.563 -0.2502  2.1896 -0.0838
 8746TIP3    H247730   5.236   3.547  15.537  1.2018 -1.9841  0.7019
 8747TIP3   OH247731   3.467   3.756   0.079  0.2642 -0.0347 -0.1076
 8747TIP3    H147732   3.461   3.738  -0.015 -1.9631 -0.2334  0.0098
 8747TIP3    H247733   3.506   3.677   0.116 -2.7100 -1.8009 -0.4336
 8748TIP3   OH247734   1.277   1.597   3.986  0.6428 -0.2003 -0.7808
 8748TIP3    H147735   1.292   1.513   3.942  1.8617 -1.0199  1.0238
 8748TIP3    H247736   1.326   1.589   4.068  0.4965  2.1702 -0.4001
 8749TIP3   OH247737   5.785   5.922   5.881  0.3937 -0.6857 -0.6437
 8749TIP3    H147738   5.702   5.904   5.924  1.2158  0.0755  1.4081
 8749TIP3    H247739   5.798   5.849   5.820 -1.0155 -1.6205  0.1391
 8750TIP3   OH247740   3.030   1.196   2.754  0.2721  1.0199 -0.1785
 8750TIP3    H147741   3.028   1.176   2.661 -2.3505 -3.1420  0.4998
 8750TIP3    H247742   2.939   1.188   2.783  0.8610  3.0117  2.6586
 8751TIP3   OH247743   3.266   0.267   2.237  0.2930 -0.5781 -0.5332
 8751TIP3    H147744   3.317   0.342   2.268  0.3469 -0.6736 -0.3867
 8751TIP3    H247745   3.188   0.305   2.199 -0.5024 -0.5117  1.0795
 8752TIP3   OH247746   1.583   3.097  10.650 -0.2796 -0.2895 -0.6175
 8752TIP3    H147747   1.603   3.178  10.603  0.2628  0.1632  0.3408
 8752TIP3    H247748   1.609   3.116  10.741 -2.2080 -0.7668  0.0962
 8753TIP3   OH247749   3.460   5.439   5.179 -0.0106  0.4847 -0.0767
 8753TIP3    H147750   3.420   5.404   5.098  0.2331 -1.6783  0.6631
 8753TIP3    H247751   3.388   5.484   5.223 -1.1935 -1.5422  0.2244
 8754TIP3   OH247752   2.013   4.020   4.719  0.3197 -0.0304  0.2753
 8754TIP3    H147753   1.981   4.109   4.710  0.7171 -0.0267 -1.5518
 8754TIP3    H247754   2.098   4.020   4.675 -0.2132 -1.5740 -0.8486
 8755TIP3   OH247755   4.010   0.551  14.580 -0.3544 -0.6752  0.3971
 8755TIP3    H147756   4.077   0.549  14.511 -3.3857 -1.5910 -2.7939
 8755TIP3    H247757   3.999   0.644  14.599 -0.9175 -0.1758 -2.0325
 8756TIP3   OH247758   0.838   5.743  13.921 -0.4326 -0.4458  0.2695
 8756TIP3    H147759   0.917   5.717  13.967 -0.3501 -0.4824  0.1077
 8756TIP3    H247760   0.778   5.770  13.990  0.4620  1.6540  0.2927
 8757TIP3   OH247761   6.610   0.196  15.706  1.0096 -0.3113  0.0298
 8757TIP3    H147762   6.703   0.186  15.686  1.2185 -0.3400  0.9892
 8757TIP3    H247763   6.606   0.209  15.800  0.0997  0.5296 -0.1026
 8758TIP3   OH247764   1.414   1.575  12.404  0.0896  0.4532 -0.1105
 8758TIP3    H147765   1.435   1.535  12.320 -0.3845  1.8025 -0.9087
 8758TIP3    H247766   1.433   1.507  12.468  3.1536  0.2859 -1.0430
 8759TIP3   OH247767   6.129   2.405  11.439 -0.2120 -0.0247 -0.0513
 8759TIP3    H147768   6.197   2.401  11.506  1.0633  0.2807 -1.2852
 8759TIP3    H247769   6.174   2.381  11.358 -2.0623 -1.9526 -0.5901
 8760TIP3   OH247770   3.978   0.310  16.998  0.4027  0.3251 -0.0100
 8760TIP3    H147771   3.966   0.231  16.945  1.1200  1.3086 -1.7385
 8760TIP3    H247772   3.890   0.331  17.029  0.0901 -0.7603 -0.1165
 8761TIP3   OH247773   3.548   1.176   5.600 -0.2463 -0.2826  0.1609
 8761TIP3    H147774   3.561   1.212   5.512  1.6710 -1.9387 -0.3154
 8761TIP3    H247775   3.476   1.114   5.590 -2.2618  1.8728  0.5619
 8762TIP3   OH247776   3.950   2.766  14.807  0.3589 -0.4344 -0.1762
 8762TIP3    H147777   3.991   2.840  14.851 -0.7371  0.4777 -0.6462
 8762TIP3    H247778   4.009   2.744  14.736  1.0012 -0.4206  0.3496
 8763TIP3   OH247779   5.634   3.669   4.516  0.4417 -0.5833  0.2644
 8763TIP3    H147780   5.614   3.717   4.597 -0.3592  0.2783 -0.4197
 8763TIP3    H247781   5.614   3.578   4.536 -2.0194 -0.0803  0.3515
 8764TIP3   OH247782   0.547   4.603  14.291 -0.5127  0.6943  0.1186
 8764TIP3    H147783   0.549   4.571  14.381 -0.8340  1.9642  0.6082
 8764TIP3    H247784   0.639   4.624  14.271 -0.2395 -0.8667 -0.3573
 8765TIP3   OH247785   3.736   4.736  16.891 -0.4188 -0.0786  0.1379
 8765TIP3    H147786   3.740   4.753  16.985 -2.0797 -0.6127  0.3461
 8765TIP3    H247787   3.737   4.823  16.851 -2.4638  0.3437  0.8385
 8766TIP3   OH247788   6.724   1.665  16.108  0.2523  0.2707 -0.2166
 8766TIP3    H147789   6.710   1.655  16.202  2.7906 -0.8631  0.1226
 8766TIP3    H247790   6.685   1.750  16.086 -0.3436  0.5728  1.8468
 8767TIP3   OH247791   5.910   2.400  10.663 -0.3821 -0.1011 -0.0343
 8767TIP3    H147792   5.834   2.421  10.609 -2.3427 -1.1939  2.1395
 8767TIP3    H247793   5.940   2.484  10.697 -0.1958  0.4031 -1.3923
 8768TIP3   OH247794   4.968   6.381   5.114 -0.0795 -0.6867 -0.5925
 8768TIP3    H147795   5.061   6.359   5.118  0.0480 -0.2559 -1.0073
 8768TIP3    H247796   4.951   6.396   5.021 -0.4774 -0.4059 -0.4794
 8769TIP3   OH247797   0.632   5.383   3.040  0.0588  0.0345  0.0080
 8769TIP3    H147798   0.688   5.441   3.092 -0.7202  1.2363 -0.4220
 8769TIP3    H247799   0.590   5.326   3.104 -1.4609  1.9742  0.8852
 8770TIP3   OH247800   0.130   0.411   1.355 -0.4401  0.1196 -0.4344
 8770TIP3    H147801   0.114   0.332   1.304 -1.9557  1.0085 -1.4022
 8770TIP3    H247802   0.095   0.391   1.442 -1.5333 -0.0311 -0.8928
 8771TIP3   OH247803   1.582   5.828   4.687  0.3568 -0.4723  0.3125
 8771TIP3    H147804   1.530   5.868   4.756  0.9361 -0.2162  0.6093
 8771TIP3    H247805   1.530   5.840   4.608 -0.4619 -1.0703  0.7538
 8772TIP3   OH247806   5.432   4.694  16.775 -0.6391  0.1426 -0.0936
 8772TIP3    H147807   5.508   4.645  16.743 -0.6330 -0.0620  0.2291
 8772TIP3    H247808   5.458   4.786  16.767  0.5212  0.0820  2.0091
 8773TIP3   OH247809   2.705   4.999  17.032 -0.6068  0.0475 -0.0091
 8773TIP3    H147810   2.636   4.937  17.007 -0.4771 -1.2439  2.5751
 8773TIP3    H247811   2.768   4.994  16.960 -1.8733 -0.8132 -1.1068
 8774TIP3   OH247812   3.342   1.561   2.975 -0.4126  0.0285 -0.1115
 8774TIP3    H147813   3.326   1.630   3.040  0.1228 -0.1408  0.2070
 8774TIP3    H247814   3.260   1.511   2.972  0.0013 -0.8328  1.4968
 8775TIP3   OH247815   6.016   5.964   2.774 -1.0111  0.1530  0.2439
 8775TIP3    H147816   5.951   5.971   2.704 -1.0978 -0.2130  0.2883
 8775TIP3    H247817   6.022   5.870   2.792  1.5341 -0.1573 -1.6669
 8776TIP3   OH247818   5.356   5.204  15.568 -0.0642  0.0228 -0.0492
 8776TIP3    H147819   5.385   5.285  15.525  0.0899 -0.5031 -0.9571
 8776TIP3    H247820   5.438   5.156  15.584 -0.1564  0.0359  0.4837
 8777TIP3   OH247821   2.728   4.537   2.055  0.6657 -0.0216  0.3406
 8777TIP3    H147822   2.734   4.473   1.984  2.2636  1.0026 -0.5084
 8777TIP3    H247823   2.643   4.578   2.043  0.7411 -0.1547 -0.7257
 8778TIP3   OH247824   4.508   1.335  11.443  0.5088  0.4252 -0.3890
 8778TIP3    H147825   4.479   1.246  11.423 -0.1429  0.5135  0.1214
 8778TIP3    H247826   4.602   1.328  11.454  0.4069 -0.2823  0.0853
 8779TIP3   OH247827   4.374   5.607   5.557  0.3689  0.0770 -0.0969
 8779TIP3    H147828   4.371   5.581   5.465  2.8855  0.4143 -0.3267
 8779TIP3    H247829   4.462   5.583   5.586 -0.1898  0.4784  2.0841
 8780TIP3   OH247830   0.576   0.811   0.247 -0.3365 -0.0626 -0.1373
 8780TIP3    H147831   0.635   0.736   0.245 -0.2232  0.0328 -0.5256
 8780TIP3    H247832   0.629   0.884   0.214 -0.7687 -0.0433 -0.7960
 8781TIP3   OH247833   0.879   3.739   4.172 -0.0578  0.3700  0.0614
 8781TIP3    H147834   0.807   3.744   4.234 -0.5206  0.5575 -0.4886
 8781TIP3    H247835   0.888   3.645   4.154 -1.9150  0.4924 -1.8774
 8782TIP3   OH247836   4.762   4.780   0.306 -0.2202 -0.2123  0.5804
 8782TIP3    H147837   4.671   4.760   0.284 -0.1170 -0.3209  0.2448
 8782TIP3    H247838   4.790   4.844   0.240 -0.3830  0.6388  1.3288
 8783TIP3   OH247839   3.625   2.309  10.938  0.3705  0.0491  0.7321
 8783TIP3    H147840   3.594   2.299  10.848 -3.4448 -1.3611  2.0044
 8783TIP3    H247841   3.694   2.242  10.947  0.9014  0.2918 -1.1051
 8784TIP3   OH247842   1.542   2.314   4.831 -0.0881 -0.3880  0.1488
 8784TIP3    H147843   1.622   2.293   4.783  0.3999 -0.6599  1.0543
 8784TIP3    H247844   1.565   2.392   4.881 -0.4625 -0.3458  0.2554
 8785TIP3   OH247845   1.672   6.514  13.427  0.4406 -0.0963  0.1906
 8785TIP3    H147846   1.708   6.432  13.394  0.7314 -0.0675  0.4344
 8785TIP3    H247847   1.688   6.512  13.521 -0.7516 -0.3614  0.4079
 8786TIP3   OH247848   2.655   6.003   6.519  0.6150 -0.0075  0.1217
 8786TIP3    H147849   2.686   6.060   6.449 -0.4893  2.0592  1.2088
 8786TIP3    H247850   2.722   6.009   6.587 -0.2606  1.4359  0.9216
 8787TIP3   OH247851   2.552   0.466  10.903  0.5948  0.2802 -0.0152
 8787TIP3    H147852   2.478   0.484  10.961 -0.2165 -0.8707 -0.6549
 8787TIP3    H247853   2.521   0.493  10.817  0.8483 -0.3721 -0.3149
 8788TIP3   OH247854   6.352   1.422   1.056 -0.1139  0.1054  0.2938
 8788TIP3    H147855   6.352   1.511   1.092 -1.7273  0.0407  0.5468
 8788TIP3    H247856   6.287   1.375   1.109  0.5895 -1.1851  0.0503
 8789TIP3   OH247857   1.148   0.157  13.885  0.4479  0.2456 -0.5925
 8789TIP3    H147858   1.106   0.178  13.801 -0.2241 -1.0869 -0.6140
 8789TIP3    H247859   1.094   0.088  13.922  1.6357 -0.2765  0.2157
 8790TIP3   OH247860   4.528   0.048   3.237 -0.0717 -0.2340  0.0062
 8790TIP3    H147861   4.475   0.004   3.303 -0.1814  1.7259  1.3287
 8790TIP3    H247862   4.595   0.095   3.288  1.6727 -0.9867 -1.4864
 8791TIP3   OH247863   5.472   4.760  14.333  0.2788 -0.7803 -0.2184
 8791TIP3    H147864   5.476   4.772  14.427  0.5240 -4.0801  0.3080
 8791TIP3    H247865   5.420   4.834  14.301  0.2060  0.4195  2.4668
 8792TIP3   OH247866   2.149   4.515  16.556 -0.2991 -0.0104  0.0681
 8792TIP3    H147867   2.199   4.458  16.498 -0.8757 -0.2218 -0.2340
 8792TIP3    H247868   2.070   4.536  16.506  0.0815  1.3827  0.0104
 8793TIP3   OH247869   5.592   4.847  13.357 -0.3993  0.0936 -0.0563
 8793TIP3    H147870   5.649   4.843  13.281  1.7214  2.2502  1.2753
 8793TIP3    H247871   5.534   4.772  13.348  3.1493 -2.8222 -1.1536
 8794TIP3   OH247872   2.821   4.896  11.522 -0.1656 -0.2898 -0.2698
 8794TIP3    H147873   2.888   4.888  11.453 -1.2885  0.5518 -1.5091
 8794TIP3    H247874   2.788   4.807  11.534  1.6295 -0.8482  0.8680
 8795TIP3   OH247875   3.486   6.513   3.397 -0.3163 -0.1771  0.0539
 8795TIP3    H147876   3.538   6.433   3.395 -1.5799 -1.1466  2.2097
 8795TIP3    H247877   3.528   6.567   3.464 -1.5082 -0.6313  1.2312
 8796TIP3   OH247878   5.546   3.125   3.309 -0.2027  0.0143  0.6731
 8796TIP3    H147879   5.567   3.207   3.355  1.2073 -1.3888  2.6895
 8796TIP3    H247880   5.606   3.124   3.234 -1.1211  1.3714 -0.1407
 8797TIP3   OH247881   5.928   4.702   1.027 -0.1204  0.4546  0.3941
 8797TIP3    H147882   5.924   4.609   1.006  0.8766  0.8244 -1.5968
 8797TIP3    H247883   5.842   4.736   1.001 -0.2801  0.1998  0.5863
 8798TIP3   OH247884   4.901   6.347   1.914  0.3107  0.7291  0.5824
 8798TIP3    H147885   4.883   6.386   1.828  1.7930 -3.2772 -1.8307
 8798TIP3    H247886   4.996   6.336   1.915  0.1215 -1.3206  1.6740
 8799TIP3   OH247887   6.271   3.869   4.232  0.2670 -0.9174  0.1862
 8799TIP3    H147888   6.320   3.895   4.155  0.2259  0.5292  0.6234
 8799TIP3    H247889   6.332   3.885   4.305 -0.5518  0.1590  0.6615
 8800TIP3   OH247890   6.182   5.455   1.490  0.4244  0.4433 -0.6316
 8800TIP3    H147891   6.093   5.420   1.500  1.1610 -1.2044  0.7902
 8800TIP3    H247892   6.181   5.498   1.404 -1.3750 -0.6825 -1.2480
 8801TIP3   OH247893   3.899   6.813   2.523  0.3029  0.1414  0.4050
 8801TIP3    H147894   3.857   6.728   2.508  1.0712 -0.1574 -0.1543
 8801TIP3    H247895   3.963   6.796   2.592  1.3942 -0.0718 -0.6319
 8802TIP3   OH247896   1.871   0.640   6.252  0.2500  0.2236  0.4448
 8802TIP3    H147897   1.859   0.726   6.291 -0.7278  0.3730 -0.1526
 8802TIP3    H247898   1.953   0.607   6.291 -0.2394  0.7039  1.9535
 8803TIP3   OH247899   1.911   1.062  13.564  0.5812  0.0256  0.1788
 8803TIP3    H147900   1.962   1.141  13.546  1.9219 -0.8048  0.1935
 8803TIP3    H247901   1.878   1.074  13.653  0.4707  0.7217  0.0452
 8804TIP3   OH247902   4.061   4.684  11.446 -0.1954  0.4270 -0.3092
 8804TIP3    H147903   4.044   4.606  11.498 -0.2164  1.4001  1.1952
 8804TIP3    H247904   3.996   4.748  11.476  1.9652  2.1604  1.0131
 8805TIP3   OH247905   1.532   3.939   4.340  0.0086 -0.5748  0.0767
 8805TIP3    H147906   1.597   4.010   4.342 -1.4954  0.9546 -1.3699
 8805TIP3    H247907   1.552   3.891   4.260 -0.1707 -0.5487  0.0150
 8806TIP3   OH247908   1.072   2.268  10.760  0.0282 -0.6174  0.1303
 8806TIP3    H147909   0.986   2.255  10.799  0.5178  1.2773  2.0180
 8806TIP3    H247910   1.070   2.357  10.726  1.7788  0.1280  1.8127
 8807TIP3   OH247911   6.071   6.000   1.125 -0.0126 -0.3992 -0.3615
 8807TIP3    H147912   6.033   5.981   1.039  0.1772 -0.2705 -0.4745
 8807TIP3    H247913   6.049   5.924   1.178 -0.4642 -0.3078 -0.4151
 8808TIP3   OH247914   4.466   0.536  13.845  0.5082  0.4959 -0.1650
 8808TIP3    H147915   4.402   0.602  13.872 -0.8252 -1.1018  0.7116
 8808TIP3    H247916   4.414   0.470  13.799  0.9140 -2.3568  3.1211
 8809TIP3   OH247917   4.141   5.117  10.442  0.3634  0.1831  0.2705
 8809TIP3    H147918   4.198   5.043  10.425 -0.9844 -0.7794 -0.2715
 8809TIP3    H247919   4.185   5.192  10.402  0.6651 -0.7564 -1.2328
 8810TIP3   OH247920   3.931   1.472   1.758  0.0239 -0.0255  0.1304
 8810TIP3    H147921   3.951   1.552   1.709 -0.5243 -0.2007 -0.3769
 8810TIP3    H247922   3.909   1.503   1.846 -0.1710  0.3815 -0.0611
 8811TIP3   OH247923   0.689   0.647   1.031 -0.0413 -0.0228  0.0740
 8811TIP3    H147924   0.599   0.658   1.063  0.0980 -1.6284  1.0894
 8811TIP3    H247925   0.680   0.593   0.952 -0.0023  0.2494 -0.1187
 8812TIP3   OH247926   6.736   3.284  14.232 -0.6746  0.3210  0.0485
 8812TIP3    H147927   6.746   3.225  14.158 -0.9148 -1.0171  1.0600
 8812TIP3    H247928   6.743   3.372  14.193  0.7698 -0.3493 -1.3301
 8813TIP3   OH247929   4.154   0.091  11.085 -0.0908  0.3330  0.3224
 8813TIP3    H147930   4.160   0.000  11.056  2.3340  0.4182  0.4001
 8813TIP3    H247931   4.141   0.085  11.180  1.9311 -0.0021  0.6287
 8814TIP3   OH247932   2.232   3.121   2.219 -0.0370 -0.2248 -0.3561
 8814TIP3    H147933   2.259   3.189   2.280 -0.6560 -0.1403 -0.1695
 8814TIP3    H247934   2.174   3.165   2.158 -1.6520 -0.8686  0.6546
 8815TIP3   OH247935   1.517   3.995  15.866  0.0462  0.3975 -0.8312
 8815TIP3    H147936   1.485   4.085  15.855 -1.0802  0.2157  0.6312
 8815TIP3    H247937   1.469   3.962  15.942  2.9612 -0.2590  0.8847
 8816TIP3   OH247938   3.360   5.840  13.004  0.2062  0.2166  0.8966
 8816TIP3    H147939   3.296   5.770  12.992 -0.0884  0.5323  0.5563
 8816TIP3    H247940   3.314   5.919  12.972  0.6160  0.5163  1.0421
 8817TIP3   OH247941   0.489   2.292  16.609  0.5050 -0.1098 -0.0277
 8817TIP3    H147942   0.457   2.211  16.648 -0.1666  1.5366  3.2854
 8817TIP3    H247943   0.439   2.302  16.529 -0.9196 -1.9255  0.5629
 8818TIP3   OH247944   4.776   5.578   2.207 -0.4551 -0.1189  0.2351
 8818TIP3    H147945   4.714   5.618   2.146 -2.4932 -0.3343  2.0645
 8818TIP3    H247946   4.843   5.539   2.150 -1.4476  0.9394 -1.7820
 8819TIP3   OH247947   3.194   2.026  11.617 -0.1488  0.5394 -0.1691
 8819TIP3    H147948   3.143   2.095  11.658 -0.0717  0.3821  0.1965
 8819TIP3    H247949   3.149   2.008  11.535 -0.5696  0.5337  0.0618
 8820TIP3   OH247950   0.429   5.647   4.179 -0.7899  0.2371  0.1151
 8820TIP3    H147951   0.492   5.709   4.215  0.1239 -1.0919  0.9059
 8820TIP3    H247952   0.357   5.701   4.147  0.2331  1.7220  0.2428
 8821TIP3   OH247953   0.510   4.816  14.589  0.5182 -0.3661  0.3883
 8821TIP3    H147954   0.498   4.721  14.585  1.0181 -0.4132 -0.2432
 8821TIP3    H247955   0.433   4.848  14.635  1.7706 -1.3318  3.3946
 8822TIP3   OH247956   5.278   2.359  16.336 -0.3522 -0.0027  0.2523
 8822TIP3    H147957   5.331   2.325  16.407  1.0175 -0.2314 -0.8353
 8822TIP3    H247958   5.314   2.446  16.318  1.1933 -0.9882 -1.9204
 8823TIP3   OH247959   1.176   5.627  11.363 -0.4258 -0.1536 -0.2331
 8823TIP3    H147960   1.266   5.614  11.395 -0.7157  0.6975  0.9656
 8823TIP3    H247961   1.188   5.659  11.274  0.5870  2.2645  0.6735
 8824TIP3   OH247962   3.201   2.375   5.894 -0.3971 -0.1895  0.0658
 8824TIP3    H147963   3.252   2.449   5.863 -0.1774 -0.3618  0.0096
 8824TIP3    H247964   3.153   2.409   5.970  0.7167 -0.3237  0.8679
 8825TIP3   OH247965   0.486   5.021   1.658  0.1216 -0.1997 -0.4336
 8825TIP3    H147966   0.429   5.054   1.728  1.4703  0.1226  0.5756
 8825TIP3    H247967   0.516   4.936   1.689  1.6097  0.4232 -0.0480
 8826TIP3   OH247968   3.233   3.095   4.003 -0.1224  0.0446 -0.4250
 8826TIP3    H147969   3.160   3.079   4.064  0.2210  0.6611  0.1614
 8826TIP3    H247970   3.196   3.151   3.935 -0.6538 -1.0895 -1.1112
 8827TIP3   OH247971   1.412   1.894  13.342  0.3831  0.6484 -0.2274
 8827TIP3    H147972   1.467   1.819  13.322  1.2622  0.4809  2.3876
 8827TIP3    H247973   1.323   1.858  13.348  0.0472  0.7233 -3.3655
 8828TIP3   OH247974   0.533   4.900  14.329  0.0067 -0.1602 -0.5645
 8828TIP3    H147975   0.564   4.814  14.300 -0.7637 -0.3027 -0.9869
 8828TIP3    H247976   0.519   4.889  14.423 -1.1507 -0.8431 -0.7987
 8829TIP3   OH247977   0.100   3.980   0.221 -0.2680 -0.5913  0.3006
 8829TIP3    H147978   0.135   3.921   0.154  1.2624  0.2477  0.3339
 8829TIP3    H247979   0.145   4.063   0.206 -1.5428  0.2496  0.9887
 8830TIP3   OH247980   5.756   5.609  12.713  0.3856 -0.0527 -0.1922
 8830TIP3    H147981   5.719   5.688  12.754  0.1064  0.3274 -1.1448
 8830TIP3    H247982   5.835   5.640  12.669 -0.4283  0.0046 -1.7021
 8831TIP3   OH247983   2.331   0.030   1.037  0.3434  0.3261  0.3859
 8831TIP3    H147984   2.384   0.103   1.071  2.3840 -1.1840  0.6077
 8831TIP3    H247985   2.253   0.031   1.092  0.1026  2.5941  0.1106
 8832TIP3   OH247986   6.410   4.340  11.298  0.1446  0.1779  0.1671
 8832TIP3    H147987   6.388   4.257  11.255  1.9898 -0.2150 -0.1124
 8832TIP3    H247988   6.392   4.324  11.391 -0.7912 -0.0634 -0.0429
 8833TIP3   OH247989   0.399   5.194   1.465  0.3304 -0.7192 -0.3032
 8833TIP3    H147990   0.412   5.274   1.516  1.7774 -0.3415 -1.1978
 8833TIP3    H247991   0.447   5.127   1.515  0.5563 -0.6524 -0.4278
 8834TIP3   OH247992   4.716   6.418   4.613 -0.3213  0.2306 -0.0842
 8834TIP3    H147993   4.751   6.353   4.674  0.3482 -1.2044 -1.9034
 8834TIP3    H247994   4.791   6.472   4.590 -0.2134 -0.2142 -0.7999
 8835TIP3   OH247995   3.931   4.255  11.788 -0.1053  0.3415  0.2920
 8835TIP3    H147996   3.913   4.183  11.849  1.5330 -0.0739  0.3266
 8835TIP3    H247997   3.844   4.289  11.766 -0.8135 -0.2752  1.9108
 8836TIP3   OH247998   4.797   5.874  13.227 -0.5045  0.4773 -0.5515
 8836TIP3    H147999   4.829   5.813  13.294 -1.2556  0.0773 -0.5528
 8836TIP3    H248000   4.814   5.961  13.264  0.9977  0.3018 -0.7465
 8837TIP3   OH248001   0.597   4.532   2.316 -0.1576 -0.2711 -0.2645
 8837TIP3    H148002   0.541   4.473   2.366  0.4011  0.9892  1.9854
 8837TIP3    H248003   0.553   4.540   2.231 -3.0968  0.1264  1.1486
 8838TIP3   OH248004   5.773   1.194  15.372 -0.5005  0.0825  0.0456
 8838TIP3    H148005   5.757   1.286  15.351 -1.2113 -0.2271 -0.8223
 8838TIP3    H248006   5.715   1.146  15.313  2.6863 -1.1159 -2.3428
 8839TIP3   OH248007   2.461   0.767   0.664 -0.0032  0.5810  0.3529
 8839TIP3    H148008   2.533   0.830   0.667  0.4370  0.0855  0.3318
 8839TIP3    H248009   2.405   0.791   0.739 -0.0776  1.2658  0.0849
 8840TIP3   OH248010   6.446   4.333  12.994  0.2776  0.0569  0.1262
 8840TIP3    H148011   6.352   4.347  13.003  0.0714 -0.4153 -1.0936
 8840TIP3    H248012   6.473   4.395  12.926  0.9677  0.6162  0.8934
 8841TIP3   OH248013   4.211   1.041   2.273  0.4036  0.1476  0.1879
 8841TIP3    H148014   4.286   1.014   2.219  0.3602  0.1316  0.1358
 8841TIP3    H248015   4.156   0.963   2.277  0.7108 -0.0468  0.7707
 8842TIP3   OH248016   3.652   0.827   1.754  0.3364  0.2801  0.3693
 8842TIP3    H148017   3.598   0.791   1.825  0.0270  1.5125  0.7761
 8842TIP3    H248018   3.738   0.838   1.793  0.3136  0.4148  0.3818
 8843TIP3   OH248019   4.300   4.249   5.809  0.1416 -0.2780  0.0876
 8843TIP3    H148020   4.299   4.303   5.888  0.6650 -0.2963  0.1072
 8843TIP3    H248021   4.304   4.312   5.737  0.0821 -0.2727  0.0890
 8844TIP3   OH248022   1.216   2.588   2.812 -0.3970 -0.1994 -0.2867
 8844TIP3    H148023   1.285   2.605   2.875 -1.5971  0.1078  1.0008
 8844TIP3    H248024   1.259   2.541   2.741  0.9543 -0.7302  0.8430
 8845TIP3   OH248025   0.468   0.890   5.835 -0.5408 -0.1947 -0.2131
 8845TIP3    H148026   0.426   0.943   5.904 -0.0434 -1.1155  0.8354
 8845TIP3    H248027   0.422   0.806   5.840  0.2038 -0.6053 -0.2998
 8846TIP3   OH248028   3.270   6.389   1.110 -0.3880  0.0717  0.1180
 8846TIP3    H148029   3.352   6.354   1.076 -0.2698  1.3510 -1.0062
 8846TIP3    H248030   3.287   6.482   1.123 -2.1602  0.7769 -1.9173
 8847TIP3   OH248031   0.873   5.933   3.067  0.5287  0.0361 -0.4499
 8847TIP3    H148032   0.910   5.912   2.981 -0.1314  1.7492 -1.2199
 8847TIP3    H248033   0.939   5.990   3.107 -1.1389  3.3170 -1.9348
 8848TIP3   OH248034   0.613   5.948   5.383 -0.1576  0.4144  0.1135
 8848TIP3    H148035   0.682   5.958   5.448 -0.4045  1.2256  0.2682
 8848TIP3    H248036   0.592   6.038   5.357  1.2158  0.1120 -2.4515
 8849TIP3   OH248037   0.016   0.220  14.214  0.2552  0.1867  0.3206
 8849TIP3    H148038   0.065   0.202  14.294  0.7243  0.7955  0.1695
 8849TIP3    H248039  -0.076   0.212  14.241  0.4160 -1.2355  0.5337
 8850TIP3   OH248040   1.657   2.780   0.935  0.4485  0.5693 -0.4311
 8850TIP3    H148041   1.607   2.844   0.987  2.4262  2.7231 -0.9909
 8850TIP3    H248042   1.635   2.801   0.844  0.8800  0.2409 -0.6131
 8851TIP3   OH248043   4.409   5.464  12.042  0.0096 -0.4373 -0.5499
 8851TIP3    H148044   4.462   5.387  12.063 -0.3449 -0.1944  1.4430
 8851TIP3    H248045   4.319   5.431  12.038 -0.0875 -0.2183 -0.2058
 8852TIP3   OH248046   1.032   3.759   0.350 -0.4919 -0.0622  0.3068
 8852TIP3    H148047   1.094   3.809   0.297 -0.9852  0.9540  0.6481
 8852TIP3    H248048   0.991   3.698   0.289 -1.2634  1.2851 -0.5785
 8853TIP3   OH248049   1.403   0.036  13.552  0.7045  0.6231  0.0466
 8853TIP3    H148050   1.311   0.015  13.536  1.1771 -1.2169 -0.5268
 8853TIP3    H248051   1.406   0.132  13.553 -1.5442  0.7767  2.2001
 8854TIP3   OH248052   5.309   0.425   1.146  0.2580 -0.3619  0.0194
 8854TIP3    H148053   5.244   0.475   1.197  1.4228 -0.2207  1.4362
 8854TIP3    H248054   5.273   0.337   1.143 -0.3385 -0.1341  0.1829
 8855TIP3   OH248055   4.528   4.861   0.870  0.3218  0.2255  0.2332
 8855TIP3    H148056   4.528   4.860   0.966 -0.5804  2.2418  0.2958
 8855TIP3    H248057   4.615   4.828   0.846  1.5754  2.1634  1.8168
 8856TIP3   OH248058   1.257   1.835  16.037 -0.2778 -0.5120 -0.2204
 8856TIP3    H148059   1.164   1.854  16.052 -0.7616 -1.1975 -2.1213
 8856TIP3    H248060   1.301   1.917  16.061 -1.1430 -0.6698  2.2551
 8857TIP3   OH248061   5.213   2.835  16.330  0.2881  0.2140  0.1312
 8857TIP3    H148062   5.176   2.772  16.269 -0.6429 -0.3099  1.1949
 8857TIP3    H248063   5.149   2.906  16.334  0.3725  0.2769  0.4429
 8858TIP3   OH248064   2.503   5.961   2.509 -0.8008  0.2272  0.0584
 8858TIP3    H148065   2.512   5.865   2.508  0.6358  0.3334 -1.4446
 8858TIP3    H248066   2.499   5.983   2.602 -1.7490 -1.3256  0.4292
 8859TIP3   OH248067   2.813   6.113  15.746  0.6094 -0.3554 -0.3316
 8859TIP3    H148068   2.757   6.191  15.744  1.4673  0.2670 -0.9827
 8859TIP3    H248069   2.826   6.092  15.653  1.4780 -0.4634 -0.1833
 8860TIP3   OH248070   0.543   4.531  13.300 -0.5572 -0.3223  0.0046
 8860TIP3    H148071   0.450   4.510  13.308 -0.5137  0.0195  1.8021
 8860TIP3    H248072   0.546   4.620  13.266 -0.8236 -0.9636 -1.8114
 8861TIP3   OH248073   6.097   2.413   4.769 -0.5232 -0.2103 -0.1551
 8861TIP3    H148074   6.068   2.504   4.782  2.9544  0.8429  1.2789
 8861TIP3    H248075   6.117   2.382   4.857 -1.1071 -2.2547 -0.6929
 8862TIP3   OH248076   4.069   6.589   2.109 -0.3713 -0.1069  0.0098
 8862TIP3    H148077   4.126   6.616   2.182 -1.6369  0.3864  0.8546
 8862TIP3    H248078   4.085   6.495   2.100  0.3398 -0.0368  0.4387
 8863TIP3   OH248079   1.041   6.002   1.102  0.4499  0.4231  0.5179
 8863TIP3    H148080   1.079   6.076   1.054  0.7785  0.9110  1.4972
 8863TIP3    H248081   1.102   5.930   1.088 -0.3957  0.0214 -1.2878
 8864TIP3   OH248082   2.693   4.467   3.631 -0.2203  0.3271  0.0830
 8864TIP3    H148083   2.693   4.524   3.707 -0.3810  1.0885 -0.4785
 8864TIP3    H248084   2.786   4.457   3.609 -0.1758  0.1314  0.3572
 8865TIP3   OH248085   4.245   0.091   4.896 -0.2041  0.1367 -0.0666
 8865TIP3    H148086   4.193   0.076   4.817  0.6800  1.3216 -0.9049
 8865TIP3    H248087   4.256   0.004   4.935  0.0675 -0.5983 -1.7205
 8866TIP3   OH248088   1.041   3.621  14.764  0.3049  0.1107  0.1147
 8866TIP3    H148089   0.946   3.624  14.757  0.3016 -1.0994 -0.5561
 8866TIP3    H248090   1.064   3.529  14.758  1.5774  0.4387 -0.6513
 8867TIP3   OH248091   2.571   0.162  14.504  0.2467 -0.0306  0.1760
 8867TIP3    H148092   2.523   0.089  14.542 -1.6785  0.9350 -0.3026
 8867TIP3    H248093   2.554   0.236  14.562  1.2047  0.3404  0.0107
 8868TIP3   OH248094   0.614   6.614   2.566  0.0249  0.1983  1.1856
 8868TIP3    H148095   0.668   6.658   2.499 -0.4974  0.5014  0.9599
 8868TIP3    H248096   0.663   6.535   2.587  0.2247  0.1259  0.4850
 8869TIP3   OH248097   1.095   4.283  15.720  0.3684  0.4298 -0.1788
 8869TIP3    H148098   1.032   4.253  15.785  0.2781 -1.4943 -1.0901
 8869TIP3    H248099   1.062   4.250  15.636  1.7314  0.7576 -0.8849
 8870TIP3   OH248100   0.889   6.595  13.793 -0.0552 -0.2544  0.1940
 8870TIP3    H148101   0.813   6.650  13.777 -0.1599  0.0685  1.6121
 8870TIP3    H248102   0.859   6.532  13.859  0.6838 -0.6038  0.2056
 8871TIP3   OH248103   0.818   2.726   5.942  0.2216 -0.2765 -0.1364
 8871TIP3    H148104   0.768   2.647   5.962 -0.7238  0.6346  1.3326
 8871TIP3    H248105   0.861   2.749   6.024  0.5295  0.7104 -0.5553
 8872TIP3   OH248106   3.458   3.134  13.249 -0.4161  0.5116 -0.1297
 8872TIP3    H148107   3.466   3.077  13.325 -0.8603  0.6369  0.0160
 8872TIP3    H248108   3.367   3.122  13.221 -0.3787  0.8039 -0.3710
 8873TIP3   OH248109   5.174   0.275   0.214  0.2162 -0.0162 -0.1959
 8873TIP3    H148110   5.120   0.197   0.200  0.3543 -0.0950 -0.2953
 8873TIP3    H248111   5.159   0.299   0.305 -0.4879  0.3426 -0.3940
 8874TIP3   OH248112   4.025   4.078  16.271 -0.4638 -0.3822 -0.0432
 8874TIP3    H148113   4.071   4.004  16.310 -0.5448  0.3244  1.4503
 8874TIP3    H248114   4.078   4.154  16.293 -0.3106  0.0268 -1.6765
 8875TIP3   OH248115   6.407   3.528  13.741  0.1455 -0.2133 -0.1198
 8875TIP3    H148116   6.492   3.531  13.784  0.8313  1.1280 -1.4770
 8875TIP3    H248117   6.344   3.520  13.813  1.3615 -0.4427  0.9560
 8876TIP3   OH248118   0.509   5.022  12.193  0.0394  0.1278 -0.5235
 8876TIP3    H148119   0.530   4.934  12.224 -0.3846  0.2462  0.1307
 8876TIP3    H248120   0.481   5.069  12.272  0.3719  0.8837 -0.8430
 8877TIP3   OH248121   6.032   5.200  13.710  0.7030 -0.4804 -0.0552
 8877TIP3    H148122   6.032   5.113  13.750  3.8526 -0.1350  0.9154
 8877TIP3    H248123   6.075   5.189  13.626  2.0642  0.2540  0.5133
 8878TIP3   OH248124   5.552   5.276   0.647 -0.2661  0.0396  0.1811
 8878TIP3    H148125   5.531   5.186   0.619 -0.4232  0.4813 -1.2261
 8878TIP3    H248126   5.476   5.303   0.698 -0.1535 -0.6767  0.7482
 8879TIP3   OH248127   2.257   1.224   4.561 -0.1627 -0.1837 -0.1911
 8879TIP3    H148128   2.213   1.307   4.545 -0.3386 -0.0092  1.0732
 8879TIP3    H248129   2.244   1.174   4.481 -0.1491  0.9574 -0.9308
 8880TIP3   OH248130   5.316   2.558  15.963  0.0914 -0.1061  0.4650
 8880TIP3    H148131   5.406   2.551  15.995 -0.3795 -1.0715  1.6196
 8880TIP3    H248132   5.323   2.615  15.886  1.6484  0.0276  0.6723
 8881TIP3   OH248133   5.676   6.793  16.957  0.0475  0.0121 -0.1657
 8881TIP3    H148134   5.632   6.876  16.975  0.8632  0.1325  1.4900
 8881TIP3    H248135   5.719   6.770  17.040  1.0798 -1.3048 -1.0148
 8882TIP3   OH248136   4.490   3.579   6.260 -0.3709 -0.5608  0.1399
 8882TIP3    H148137   4.428   3.650   6.278 -0.6591 -0.6657 -0.4223
 8882TIP3    H248138   4.551   3.582   6.334 -0.5778  0.0540  0.2952
 8883TIP3   OH248139   2.096   1.644   2.467  0.0972  0.4677 -0.2040
 8883TIP3    H148140   2.091   1.726   2.515  0.7462  0.1311  0.4481
 8883TIP3    H248141   2.019   1.595   2.496  0.4778  0.2727  0.4835
 8884TIP3   OH248142   1.788   3.771  13.436 -0.1021  0.1447 -0.0339
 8884TIP3    H148143   1.847   3.699  13.458 -0.0118  0.5494  1.1411
 8884TIP3    H248144   1.838   3.825  13.376  0.7759  0.4990  0.9772
 8885TIP3   OH248145   1.032   5.361  14.719 -0.3369 -0.4813  0.0672
 8885TIP3    H148146   1.119   5.336  14.688  0.2869 -2.1792  2.8650
 8885TIP3    H248147   0.973   5.331  14.650  1.0219 -3.0317 -0.1328
 8886TIP3   OH248148   1.037   2.884  15.321 -0.2487 -0.3714 -0.1251
 8886TIP3    H148149   1.116   2.936  15.305 -1.0577  0.9991  0.1521
 8886TIP3    H248150   1.063   2.794  15.302  0.9945  0.2159 -1.4175
 8887TIP3   OH248151   1.273   6.546   3.737  0.2688  0.1801  0.7466
 8887TIP3    H148152   1.319   6.619   3.778  0.6543  1.8091 -2.2783
 8887TIP3    H248153   1.188   6.583   3.713  0.3100 -0.4888 -0.4682
 8888TIP3   OH248154   5.111   4.212  10.524  0.0043 -0.0871 -0.0296
 8888TIP3    H148155   5.053   4.144  10.490 -0.4945 -0.2748  1.1149
 8888TIP3    H248156   5.058   4.292  10.523  0.2956  0.1036 -0.5529
 8889TIP3   OH248157   2.555   5.568  12.224  0.5571 -0.2735 -0.2478
 8889TIP3    H148158   2.566   5.604  12.136  1.9991 -0.5830 -0.2198
 8889TIP3    H248159   2.575   5.475  12.215  1.6123 -0.1414  0.5626
 8890TIP3   OH248160   6.684   5.897   2.130  0.6711  0.0213 -0.5053
 8890TIP3    H148161   6.648   5.809   2.126 -2.1424  1.0677 -0.5405
 8890TIP3    H248162   6.639   5.938   2.204 -0.1800  2.2302 -2.1404
 8891TIP3   OH248163   2.276   4.421   2.804 -0.4853 -0.2122  0.2203
 8891TIP3    H148164   2.301   4.388   2.891 -0.1889  0.4657  0.4045
 8891TIP3    H248165   2.323   4.504   2.796 -1.9253  0.6250  0.1672
 8892TIP3   OH248166   4.487   5.021  14.106  0.5079 -0.0552  0.2706
 8892TIP3    H148167   4.392   5.019  14.117  0.5099 -0.5671  0.2170
 8892TIP3    H248168   4.512   5.110  14.131  0.3321 -0.6598  2.8608
 8893TIP3   OH248169   0.291   3.085   4.864 -0.1754  0.2420 -0.3233
 8893TIP3    H148170   0.336   3.063   4.783  2.2227 -1.1176  1.2622
 8893TIP3    H248171   0.312   3.013   4.924 -3.5026  0.1634  0.9789
 8894TIP3   OH248172   1.703   5.677   4.231  0.0286 -0.1573  0.6710
 8894TIP3    H148173   1.696   5.607   4.166  1.5785  2.6004 -2.7499
 8894TIP3    H248174   1.614   5.710   4.240 -0.3775 -1.2513  0.8318
 8895TIP3   OH248175   5.125   1.529  12.289  0.9856  0.3165  0.5436
 8895TIP3    H148176   5.054   1.525  12.354  1.8971  0.3338  1.5705
 8895TIP3    H248177   5.104   1.606  12.236  0.3600  0.4590  0.9871
 8896TIP3   OH248178   1.230   2.162  11.695 -0.1471 -0.0429  0.2334
 8896TIP3    H148179   1.243   2.068  11.685 -2.1031 -0.2663 -0.5710
 8896TIP3    H248180   1.264   2.200  11.614  2.4442  0.2133  1.3352
 8897TIP3   OH248181   3.627   3.765  13.760  0.5232  0.3082  0.6319
 8897TIP3    H148182   3.600   3.679  13.727  0.0865  0.3350  0.9110
 8897TIP3    H248183   3.655   3.813  13.682  3.2032 -0.9198  0.7034
 8898TIP3   OH248184   4.097   6.279   0.076  0.3004 -0.4337 -0.0084
 8898TIP3    H148185   4.170   6.263   0.137  0.9986 -2.2992 -1.2261
 8898TIP3    H248186   4.136   6.268  -0.011 -0.8733  1.2690 -0.8119
 8899TIP3   OH248187   6.663   3.574   2.724  0.0659  0.2474  0.3039
 8899TIP3    H148188   6.640   3.491   2.681  0.3086 -0.4777  1.5206
 8899TIP3    H248189   6.678   3.635   2.652  0.6750 -0.9781 -0.6575
 8900TIP3   OH248190   1.546   6.152  11.781  0.0825 -0.1604  0.0907
 8900TIP3    H148191   1.577   6.216  11.717  2.0394  0.3055  1.3978
 8900TIP3    H248192   1.452   6.145  11.765  0.1061  1.7567 -1.2107
 8901TIP3   OH248193   0.283   6.551  16.754  0.1852 -0.3512  0.1158
 8901TIP3    H148194   0.338   6.473  16.759 -0.5677 -0.9580 -0.7464
 8901TIP3    H248195   0.208   6.532  16.810  0.2202 -0.0556  0.2664
 8902TIP3   OH248196   1.911   3.008  12.310 -0.6114 -0.2118 -0.1078
 8902TIP3    H148197   1.831   3.047  12.274  0.0108  1.3248  0.0961
 8902TIP3    H248198   1.924   3.054  12.393  0.4850 -0.4295 -0.1484
 8903TIP3   OH248199   1.652   5.512  14.593 -0.1142 -0.7834 -0.4910
 8903TIP3    H148200   1.729   5.473  14.635 -1.2380 -1.7137  0.8072
 8903TIP3    H248201   1.589   5.524  14.665 -1.8698 -1.7547 -1.7952
 8904TIP3   OH248202   0.590   5.177   0.673 -0.0938  0.0417 -0.2099
 8904TIP3    H148203   0.633   5.151   0.591  0.0806  0.0208 -0.1115
 8904TIP3    H248204   0.618   5.112   0.737 -0.2032  0.0782 -0.1244
 8905TIP3   OH248205   1.278   0.650  14.097  0.1953  0.4159  0.6641
 8905TIP3    H148206   1.245   0.569  14.059  0.0854  0.4346  0.7179
 8905TIP3    H248207   1.371   0.636  14.110  0.4117  0.7449 -0.4810
 8906TIP3   OH248208   1.048   4.746   5.184  0.4783  0.1572  0.1853
 8906TIP3    H148209   0.989   4.699   5.243 -0.8858  0.6465 -0.7359
 8906TIP3    H248210   1.130   4.697   5.187 -0.1081 -0.7949  1.1730
 8907TIP3   OH248211   2.048   3.918   5.562 -0.5237  0.5908  0.4114
 8907TIP3    H148212   1.954   3.923   5.579 -0.7552 -0.1379 -0.6186
 8907TIP3    H248213   2.079   4.008   5.578 -0.9312  0.3326  3.1680
 8908TIP3   OH248214   2.994   1.246   0.455  0.7003  0.2129 -0.4948
 8908TIP3    H148215   2.993   1.235   0.550  0.3186 -0.4209 -0.5681
 8908TIP3    H248216   3.086   1.230   0.430  0.5656 -0.8530 -0.3643
 8909TIP3   OH248217   1.630   0.598  15.173 -0.5545  0.1867 -0.1268
 8909TIP3    H148218   1.652   0.505  15.163 -0.9063  0.1892 -1.0256
 8909TIP3    H248219   1.651   0.636  15.088 -1.2017  0.7716 -0.0272
 8910TIP3   OH248220   6.474   5.499   3.772  0.1012  0.3722  0.3148
 8910TIP3    H148221   6.559   5.531   3.803  0.0692 -0.0614  0.8638
 8910TIP3    H248222   6.462   5.543   3.688  0.8899  0.4083  0.2064
 8911TIP3   OH248223   3.079   5.158  13.027 -0.0328  0.6894  0.9892
 8911TIP3    H148224   3.080   5.064  13.045  0.0460  0.5525  0.2986
 8911TIP3    H248225   2.996   5.173  12.981 -0.1734  1.0077  1.3401
 8912TIP3   OH248226   6.303   5.241   1.635  0.1411  0.1314  0.3492
 8912TIP3    H148227   6.264   5.269   1.551  0.5470 -1.1890 -0.2969
 8912TIP3    H248228   6.329   5.151   1.620  1.3843  0.2799  1.5131
 8913TIP3   OH248229   5.886   3.939  16.371 -0.0068  0.1348 -0.1107
 8913TIP3    H148230   5.797   3.919  16.401  0.4193  0.7346  1.6480
 8913TIP3    H248231   5.875   4.014  16.313 -0.6246  0.3893  0.3245
 8914TIP3   OH248232   1.607   3.112   5.245 -0.5287  0.1545 -0.6529
 8914TIP3    H148233   1.656   3.133   5.165 -0.2016 -1.2326 -0.8581
 8914TIP3    H248234   1.644   3.169   5.311 -0.1916  0.7140 -1.3081
 8915TIP3   OH248235   1.605   0.336   1.237  0.7244 -0.2555  0.0912
 8915TIP3    H148236   1.560   0.301   1.160  0.6019  0.1749 -0.0357
 8915TIP3    H248237   1.687   0.287   1.240  0.6847 -0.3492 -0.2546
 8916TIP3   OH248238   1.933   1.380  12.098 -0.0939  0.1805  0.3483
 8916TIP3    H148239   1.965   1.318  12.033 -0.8693  0.9537 -0.8155
 8916TIP3    H248240   1.997   1.376  12.169  0.0716 -1.6496  0.1443
 8917TIP3   OH248241   2.973   4.194   0.643 -0.1503  0.0588  0.1567
 8917TIP3    H148242   2.895   4.216   0.693 -1.3358 -1.5325 -0.9089
 8917TIP3    H248243   2.995   4.274   0.595 -2.2368  0.0024 -0.9616
 8918TIP3   OH248244   5.435   6.510   6.260 -0.6117  0.6303 -0.0502
 8918TIP3    H148245   5.502   6.531   6.195 -0.0965 -1.1111 -0.1308
 8918TIP3    H248246   5.391   6.593   6.276  0.4493  1.4738 -1.2584
 8919TIP3   OH248247   1.279   1.670   2.868 -0.5484 -0.2710  0.5334
 8919TIP3    H148248   1.249   1.666   2.958  0.7168 -0.7965  0.9609
 8919TIP3    H248249   1.240   1.750   2.832 -0.8455  0.0802  1.6255
 8920TIP3   OH248250   0.022   0.427  15.119 -0.0066 -0.1228  0.5086
 8920TIP3    H148251   0.036   0.481  15.196  0.7769  2.6356 -1.4152
 8920TIP3    H248252  -0.026   0.483  15.058  2.0095 -1.0314 -2.1239
 8921TIP3   OH248253   0.124   6.382   3.151  0.4833  0.3203  0.0942
 8921TIP3    H148254   0.116   6.320   3.223  1.2889 -0.5747 -0.5650
 8921TIP3    H248255   0.109   6.468   3.192  0.0411 -0.2441  1.1449
 8922TIP3   OH248256   6.290   0.833   5.279 -1.0298  0.2791  0.3092
 8922TIP3    H148257   6.309   0.744   5.309 -0.6261  0.7220  1.4371
 8922TIP3    H248258   6.358   0.852   5.215 -1.4159 -0.4001 -0.3122
 8923TIP3   OH248259   1.723   1.437  13.111 -0.0716 -0.3066 -0.5192
 8923TIP3    H148260   1.745   1.450  13.203 -1.9945 -1.3284  0.1346
 8923TIP3    H248261   1.787   1.373  13.080 -0.9181 -1.8704  0.8302
 8924TIP3   OH248262   3.798   4.370   4.090 -0.0105 -0.0314 -0.2870
 8924TIP3    H148263   3.715   4.323   4.102  0.7657 -1.6060 -0.8140
 8924TIP3    H248264   3.772   4.462   4.081 -1.6733 -0.4540 -0.2451
 8925TIP3   OH248265   0.595   3.025  14.654  0.0531 -0.3112  0.4233
 8925TIP3    H148266   0.560   3.078  14.725 -0.6039  0.0851 -0.1758
 8925TIP3    H248267   0.662   3.081  14.614 -0.2939 -0.1203  0.0999
 8926TIP3   OH248268   2.667   2.629  12.438 -0.3496 -0.5713 -0.1910
 8926TIP3    H148269   2.759   2.604  12.448  0.2212  1.5294  0.3111
 8926TIP3    H248270   2.631   2.626  12.527  0.3346  2.3162  0.2813
 8927TIP3   OH248271   6.547   1.705  11.791 -0.4432  0.1460 -0.4712
 8927TIP3    H148272   6.608   1.699  11.864  2.7151 -1.4196 -3.0422
 8927TIP3    H248273   6.573   1.784  11.744 -1.2009  0.0873 -1.0159
 8928TIP3   OH248274   5.221   4.602   5.415  0.0031  0.4505  0.0526
 8928TIP3    H148275   5.242   4.583   5.324 -0.1067  4.0280 -0.8957
 8928TIP3    H248276   5.305   4.596   5.461  0.6869  1.6617 -0.9779
 8929TIP3   OH248277   5.692   1.359   3.574  0.8428  0.0019  0.0819
 8929TIP3    H148278   5.668   1.333   3.485  1.3038  0.6661 -0.2489
 8929TIP3    H248279   5.765   1.420   3.561  0.7223  0.3182  0.9065
 8930TIP3   OH248280   2.894   6.088  17.162 -0.2024 -0.7770 -0.3609
 8930TIP3    H148281   2.879   5.996  17.183  1.4175 -1.2193 -0.9698
 8930TIP3    H248282   2.855   6.100  17.075  2.1826 -1.7485 -1.6599
 8931TIP3   OH248283   6.703   6.280   0.414 -0.0758 -0.3611 -0.3468
 8931TIP3    H148284   6.735   6.275   0.504  1.1715  0.1690 -0.7442
 8931TIP3    H248285   6.668   6.369   0.406 -0.3808 -0.4786 -0.3280
 8932TIP3   OH248286   3.008   2.229   2.109 -0.4662  0.1147  0.3443
 8932TIP3    H148287   2.941   2.203   2.047 -1.0441 -0.4561  1.1945
 8932TIP3    H248288   3.037   2.147   2.150 -0.7384  0.5634  1.4674
 8933TIP3   OH248289   4.544   1.046   2.056  0.2975  0.2130  0.4930
 8933TIP3    H148290   4.633   1.011   2.054  0.0508 -0.4047 -1.3296
 8933TIP3    H248291   4.491   0.975   2.092  0.0736 -0.7240 -1.5441
 8934TIP3   OH248292   1.009   1.612   5.851  0.0086 -0.5494  0.2905
 8934TIP3    H148293   1.019   1.533   5.798  1.3166 -0.6653  0.6600
 8934TIP3    H248294   1.092   1.619   5.899 -1.0708 -0.4376  2.2836
 8935TIP3   OH248295   3.333   1.085   1.861 -0.0301  0.5117 -0.3615
 8935TIP3    H148296   3.351   1.035   1.941  1.3482  0.0340 -0.9448
 8935TIP3    H248297   3.321   1.018   1.794  1.2470  0.9407 -1.0374
 8936TIP3   OH248298   5.937   5.124   3.123  0.4307 -0.5427 -0.3197
 8936TIP3    H148299   5.957   5.215   3.099  1.2099 -1.0850 -1.9189
 8936TIP3    H248300   5.944   5.076   3.040 -1.3867 -1.8488  0.2254
 8937TIP3   OH248301   1.679   1.024   2.404 -0.2202  0.4108  0.0648
 8937TIP3    H148302   1.749   1.051   2.464 -1.8039 -0.5738  2.4897
 8937TIP3    H248303   1.654   1.105   2.359  1.3635  1.0856  0.3307
 8938TIP3   OH248304   6.358   6.659  10.923 -0.5405 -0.2982  0.3762
 8938TIP3    H148305   6.436   6.605  10.942 -0.3098  0.3886  1.4743
 8938TIP3    H248306   6.390   6.749  10.929 -1.5978  0.0159  1.7641
 8939TIP3   OH248307   3.533   6.546   4.199  0.6221  0.5680 -0.4084
 8939TIP3    H148308   3.510   6.564   4.291  0.7993 -0.0797 -0.2339
 8939TIP3    H248309   3.613   6.493   4.204  0.4634  0.2743 -0.9320
 8940TIP3   OH248310   0.019   6.685  12.720  0.1190 -0.3276  0.4135
 8940TIP3    H148311   0.087   6.750  12.704 -1.8499  1.4149 -1.4990
 8940TIP3    H248312  -0.059   6.736  12.740 -1.8092 -1.9663 -2.2812
 8941TIP3   OH248313   2.701   5.346   3.456  0.0592 -0.2183  0.1266
 8941TIP3    H148314   2.732   5.436   3.451  1.8417 -0.8662 -1.9527
 8941TIP3    H248315   2.609   5.351   3.433  0.3540  0.9884 -0.9006
 8942TIP3   OH248316   1.206   4.816   3.324 -0.1195  0.1401  0.0236
 8942TIP3    H148317   1.135   4.771   3.370  1.6686 -2.6095  0.3216
 8942TIP3    H248318   1.162   4.884   3.273 -2.7664 -0.3611  1.4435
 8943TIP3   OH248319   4.276   0.981   4.545  0.1291  0.0579 -0.1845
 8943TIP3    H148320   4.349   0.923   4.525 -0.3358 -0.3461 -0.7182
 8943TIP3    H248321   4.311   1.041   4.611  0.8277 -0.3669 -0.1597
 8944TIP3   OH248322   5.728   4.509   4.333  0.0206  0.0180  0.6953
 8944TIP3    H148323   5.791   4.545   4.270 -1.2701  0.2959 -0.4823
 8944TIP3    H248324   5.686   4.586   4.372  0.5278 -0.1617  1.6407
 8945TIP3   OH248325   0.104   2.774   6.183 -0.6705  0.0814  0.4288
 8945TIP3    H148326   0.174   2.747   6.243  0.3995  0.8795 -0.4099
 8945TIP3    H248327   0.083   2.694   6.135  0.4943  0.0638 -0.0971
 8946TIP3   OH248328   4.192   6.140  14.229  0.2505  0.3257  0.0317
 8946TIP3    H148329   4.144   6.094  14.298 -1.8324 -0.2017 -1.6466
 8946TIP3    H248330   4.138   6.216  14.208  1.7739  1.5118  0.1938
 8947TIP3   OH248331   3.860   1.845  12.793  0.4464  0.2484 -0.2277
 8947TIP3    H148332   3.788   1.829  12.855 -0.8099  1.7604 -1.2222
 8947TIP3    H248333   3.827   1.812  12.709  1.0048  0.7853 -0.6654
 8948TIP3   OH248334   4.935   4.666  16.630  0.2008 -0.3758 -0.0161
 8948TIP3    H148335   4.973   4.586  16.665 -0.2529 -0.1090  1.1138
 8948TIP3    H248336   4.953   4.732  16.697 -2.4797 -0.2883  0.7188
 8949TIP3   OH248337   2.000   5.863  13.025  0.1627  0.5084  0.4330
 8949TIP3    H148338   1.931   5.899  13.081  0.3389 -1.2734  1.8712
 8949TIP3    H248339   1.972   5.774  13.005  1.0763  0.4385 -0.7012
 8950TIP3   OH248340   3.717   4.503   2.054  0.5106 -0.6224 -0.5436
 8950TIP3    H148341   3.690   4.422   2.097 -0.3563 -0.0029  0.1166
 8950TIP3    H248342   3.784   4.540   2.112 -1.2437  0.6280  0.7703
 8951TIP3   OH248343   0.921   1.577  14.274  0.7846 -0.0384 -0.9188
 8951TIP3    H148344   0.917   1.485  14.301 -0.5137 -0.1567 -1.4676
 8951TIP3    H248345   1.015   1.594  14.264  1.0135 -1.8200 -2.4696
 8952TIP3   OH248346   3.612   5.391   3.920 -0.7475  0.4337  0.3546
 8952TIP3    H148347   3.680   5.363   3.981  0.2365  1.3762 -0.2825
 8952TIP3    H248348   3.615   5.487   3.922 -0.0989  0.5180 -1.7775
 8953TIP3   OH248349   6.042   0.014  15.577 -0.0696 -0.6008  0.0024
 8953TIP3    H148350   6.132   0.018  15.544  0.2607  1.2136  0.9814
 8953TIP3    H248351   5.988   0.015  15.498  0.7389 -2.3044 -0.6248
 8954TIP3   OH248352   4.368   3.074  13.680 -0.2911  0.1963  0.0896
 8954TIP3    H148353   4.372   3.167  13.660  0.1171  0.6480  2.0388
 8954TIP3    H248354   4.459   3.047  13.689 -0.4244 -0.2463  0.1180
 8955TIP3   OH248355   0.358   1.744  13.280 -0.2731 -0.2998 -0.0156
 8955TIP3    H148356   0.428   1.730  13.344  1.5324 -0.9132 -1.9779
 8955TIP3    H248357   0.315   1.659  13.272  0.3424 -0.5818 -0.4876
 8956TIP3   OH248358   3.785   1.568  16.481 -0.4140 -0.3687 -0.9063
 8956TIP3    H148359   3.738   1.494  16.520  1.1919 -0.5164  0.8891
 8956TIP3    H248360   3.865   1.529  16.446  1.1581  0.6302  1.3409
 8957TIP3   OH248361   2.432   1.326  13.723 -0.4226 -0.0329  0.7130
 8957TIP3    H148362   2.389   1.251  13.762 -3.1012  0.0070 -1.8388
 8957TIP3    H248363   2.406   1.400  13.777 -2.0524 -0.2914  0.3240
 8958TIP3   OH248364   3.341   2.221  10.681 -0.5706  0.6063  0.9363
 8958TIP3    H148365   3.433   2.248  10.671 -0.6690  0.8550  0.6749
 8958TIP3    H248366   3.297   2.262  10.607 -0.8153  0.1343  0.8189
 8959TIP3   OH248367   5.684   5.422  10.792 -0.0583  0.2288 -0.2227
 8959TIP3    H148368   5.719   5.484  10.727  1.1827 -0.0791  0.1343
 8959TIP3    H248369   5.626   5.365  10.741 -0.6070  1.1854 -0.6968
 8960TIP3   OH248370   0.837   1.032   3.327  0.5555 -0.0262 -0.1861
 8960TIP3    H148371   0.912   0.975   3.316  0.0363 -0.7036 -0.2770
 8960TIP3    H248372   0.761   0.976   3.311  0.0634  0.9143 -1.2732
 8961TIP3   OH248373   6.081   5.865  10.781  0.5319 -0.2595  0.0152
 8961TIP3    H148374   6.006   5.843  10.837 -0.3849  1.7562 -0.2981
 8961TIP3    H248375   6.045   5.929  10.718  1.9021 -1.2322 -1.8665
 8962TIP3   OH248376   0.591   5.842   4.317  0.5200  0.2070 -0.2949
 8962TIP3    H148377   0.578   5.833   4.411  0.8385 -0.2531 -0.2937
 8962TIP3    H248378   0.662   5.905   4.307  0.7049  0.0100 -0.2202
 8963TIP3   OH248379   4.337   0.840   2.138  0.0170  0.8915  0.4703
 8963TIP3    H148380   4.289   0.761   2.163  1.8688  0.0129  1.3814
 8963TIP3    H248381   4.413   0.842   2.196  1.7577  1.5612 -1.6868
 8964TIP3   OH248382   0.912   0.285   6.625 -0.1733 -0.0410 -0.6103
 8964TIP3    H148383   0.934   0.211   6.569  0.5723 -1.4893  1.4796
 8964TIP3    H248384   0.996   0.321   6.654 -0.4587 -0.9134  1.4998
 8965TIP3   OH248385   1.184   4.164   3.846  0.0777 -0.0007  0.2382
 8965TIP3    H148386   1.237   4.160   3.767  0.7877  0.5084  0.6806
 8965TIP3    H248387   1.140   4.249   3.842  1.0444  0.5564  0.9597
 8966TIP3   OH248388   0.945   5.063   0.420 -0.2498 -0.1259 -0.0943
 8966TIP3    H148389   0.935   5.072   0.325 -0.3621 -0.7707 -0.1476
 8966TIP3    H248390   0.971   5.150   0.449 -2.9593  0.8619 -0.3284
 8967TIP3   OH248391   3.669   5.564  13.614 -0.2320  0.0619  0.9026
 8967TIP3    H148392   3.676   5.635  13.551  0.3658 -1.2568 -0.5862
 8967TIP3    H248393   3.724   5.592  13.688  0.4062  0.9249  0.1228
 8968TIP3   OH248394   6.210   1.728  14.412 -0.4774 -0.1789 -0.0379
 8968TIP3    H148395   6.247   1.788  14.476  0.6392 -0.1642 -0.6719
 8968TIP3    H248396   6.286   1.689  14.368 -1.1882  0.2881 -1.7880
 8969TIP3   OH248397   4.832   4.790  14.144 -0.2205 -0.0094  0.3198
 8969TIP3    H148398   4.874   4.756  14.065 -0.4150  1.6688 -0.5473
 8969TIP3    H248399   4.743   4.754  14.141 -0.7084  1.2138 -1.0486
 8970TIP3   OH248400   6.577   3.220  11.564  0.0003  0.1066 -0.6086
 8970TIP3    H148401   6.602   3.130  11.584 -1.2598 -0.0605  0.3885
 8970TIP3    H248402   6.570   3.262  11.650 -2.3381  0.3063 -0.8187
 8971TIP3   OH248403   5.460   6.495  12.350  0.5935  0.2176 -0.3726
 8971TIP3    H148404   5.429   6.408  12.326  0.2619  0.2397 -0.0324
 8971TIP3    H248405   5.414   6.515  12.432  0.0645  1.0390 -0.8548
 8972TIP3   OH248406   0.230   4.400   5.854  0.0941  0.0257  0.0147
 8972TIP3    H148407   0.320   4.432   5.847  0.2724 -0.5470 -0.4623
 8972TIP3    H248408   0.188   4.459   5.916  0.8908  0.1113  0.4980
 8973TIP3   OH248409   6.291   4.161   0.049 -0.1824  0.7221  0.1615
 8973TIP3    H148410   6.313   4.068   0.059 -0.4339  0.6802  0.3399
 8973TIP3    H248411   6.247   4.166  -0.036 -0.6499  0.5866  0.3940
 8974TIP3   OH248412   5.714   6.728  13.441 -0.2693  0.1363  1.3118
 8974TIP3    H148413   5.636   6.705  13.493 -1.2701  0.5149  0.0462
 8974TIP3    H248414   5.686   6.803  13.389  1.3610  1.0745  1.7071
 8975TIP3   OH248415   4.425   5.634  11.570  0.0024 -0.4823  0.0905
 8975TIP3    H148416   4.407   5.584  11.490  2.1293 -1.9494  0.4366
 8975TIP3    H248417   4.513   5.671  11.555  0.1754 -0.2738  1.5078
 8976TIP3   OH248418   1.878   0.308   1.363 -0.1588 -0.6361 -0.1970
 8976TIP3    H148419   1.963   0.322   1.321  0.9199 -0.7633  1.8044
 8976TIP3    H248420   1.895   0.237   1.426 -1.4679  0.0918  1.0055
 8977TIP3   OH248421   5.670   3.829   4.302  0.3422  0.2330  0.1370
 8977TIP3    H148422   5.654   3.777   4.381  0.2144  0.4136  0.2274
 8977TIP3    H248423   5.611   3.904   4.309  0.4191  0.3140 -0.0696
 8978TIP3   OH248424   0.613   1.921   5.674  0.9534 -0.1364  0.8488
 8978TIP3    H148425   0.692   1.878   5.641  1.7907  0.5389  1.9284
 8978TIP3    H248426   0.605   2.000   5.620  0.9403 -0.2644  0.6615
 8979TIP3   OH248427   2.302   1.724   4.844 -0.4930 -0.3742 -0.3448
 8979TIP3    H148428   2.366   1.773   4.792  0.2243 -1.2739 -0.3179
 8979TIP3    H248429   2.289   1.778   4.922 -1.5742  0.9925 -1.4038
 8980TIP3   OH248430   1.130   6.132   4.760  0.4963  0.1750  0.0523
 8980TIP3    H148431   1.156   6.192   4.830  2.6358 -0.8414  0.1825
 8980TIP3    H248432   1.168   6.048   4.785  2.3826  0.0398 -2.8708
 8981TIP3   OH248433   4.158   1.831  11.095  0.2826 -0.0083  0.3352
 8981TIP3    H148434   4.154   1.815  11.001 -1.6821  3.6680 -0.3868
 8981TIP3    H248435   4.077   1.794  11.129  0.4540 -0.3111  0.4245
 8982TIP3   OH248436   4.459   2.380  16.113  0.1973 -0.2440 -0.4325
 8982TIP3    H148437   4.392   2.402  16.177  2.1130  0.5618  1.3928
 8982TIP3    H248438   4.410   2.354  16.035 -2.2066  0.0999  0.8838
 8983TIP3   OH248439   5.492   0.639  15.689  0.8039  0.0121  0.1125
 8983TIP3    H148440   5.399   0.659  15.700  0.8442  1.2411 -1.4602
 8983TIP3    H248441   5.528   0.642  15.778 -0.4980  0.3155  0.6466
 8984TIP3   OH248442   0.103   6.550   2.267  0.1094  0.2791 -0.8818
 8984TIP3    H148443   0.135   6.470   2.308  0.8570  0.7465 -0.5331
 8984TIP3    H248444   0.106   6.615   2.336 -2.4134  0.1844 -0.5790
 8985TIP3   OH248445   0.131   2.047   6.346  0.4441  0.1520 -0.1886
 8985TIP3    H148446   0.137   1.951   6.353 -0.4336  0.1492  0.8977
 8985TIP3    H248447   0.085   2.073   6.426  1.0138  1.5261 -0.2891
 8986TIP3   OH248448   5.148   5.771  15.942  0.0745  0.0476  0.3396
 8986TIP3    H148449   5.148   5.796  15.850  1.7677 -0.2341  0.2346
 8986TIP3    H248450   5.184   5.846  15.988 -2.8511  1.1118  1.1263
 8987TIP3   OH248451   5.526   0.320   3.602 -0.3937  0.0409  1.0605
 8987TIP3    H148452   5.432   0.332   3.609 -0.2911  0.3110  1.9892
 8987TIP3    H248453   5.564   0.405   3.625  0.0370  0.4422 -0.9378
 8988TIP3   OH248454   0.185   5.533   1.554 -0.3806 -0.0191  0.8721
 8988TIP3    H148455   0.155   5.621   1.577  0.4237  1.1191 -1.9601
 8988TIP3    H248456   0.104   5.484   1.538 -0.8827  1.2899 -0.9361
 8989TIP3   OH248457   4.203   6.537  13.989 -0.7751 -0.0027 -0.4891
 8989TIP3    H148458   4.142   6.502  14.054 -0.4944  0.2318 -0.0905
 8989TIP3    H248459   4.263   6.464  13.971 -1.2596 -0.2867 -1.0046
 8990TIP3   OH248460   0.889   3.832  11.906 -0.1483  0.3002  0.7190
 8990TIP3    H148461   0.948   3.787  11.967  0.4021 -0.3085 -0.2343
 8990TIP3    H248462   0.912   3.924  11.915  0.6286  0.1140  0.7062
 8991TIP3   OH248463   5.348   5.129   3.001  0.0715 -0.4995 -0.3048
 8991TIP3    H148464   5.272   5.186   2.989  1.5262  1.4928 -0.7620
 8991TIP3    H248465   5.329   5.080   3.080 -0.6705  1.8057  1.0583
 8992TIP3   OH248466   2.537   5.599  15.467 -0.0209 -0.4258 -0.2181
 8992TIP3    H148467   2.632   5.610  15.457 -0.3594  2.8414 -1.1517
 8992TIP3    H248468   2.506   5.578  15.379 -0.2264 -1.2412  0.0379
 8993TIP3   OH248469   6.225   6.594   3.625  0.0949  0.5377  0.3215
 8993TIP3    H148470   6.212   6.675   3.576 -1.7331  1.3449  2.0143
 8993TIP3    H248471   6.160   6.534   3.590  0.0498  0.4845  0.4991
 8994TIP3   OH248472   2.855   2.681  14.424  0.0214  0.5342  0.4302
 8994TIP3    H148473   2.919   2.737  14.379  1.0103 -0.1037  1.0207
 8994TIP3    H248474   2.770   2.713  14.392  0.6635 -0.4595 -2.6323
 8995TIP3   OH248475   4.587   3.251  10.737  0.0491 -0.4837  0.0055
 8995TIP3    H148476   4.562   3.163  10.707 -1.9072 -0.5754  1.6861
 8995TIP3    H248477   4.515   3.307  10.707  0.0953  0.1087  0.9681
 8996TIP3   OH248478   3.688   0.408   2.068 -0.9240  0.5784  0.6357
 8996TIP3    H148479   3.660   0.324   2.105  0.3885 -0.1865 -0.0309
 8996TIP3    H248480   3.621   0.470   2.096 -2.8581 -0.9874 -0.2116
 8997TIP3   OH248481   0.477   4.549   2.077 -0.4312 -0.3499  0.1161
 8997TIP3    H148482   0.483   4.471   2.022 -1.1954 -0.7106  0.5313
 8997TIP3    H248483   0.414   4.605   2.031 -0.5703 -0.3691  0.2829
 8998TIP3   OH248484   6.093   3.917  13.098  0.2053 -0.2059 -0.2549
 8998TIP3    H148485   6.081   3.996  13.045 -2.1521 -0.2488  0.1075
 8998TIP3    H248486   6.083   3.946  13.188 -0.3083 -0.8389 -0.0964
 8999TIP3   OH248487   1.000   5.385   3.253  0.0189 -0.5067  0.0127
 8999TIP3    H148488   1.030   5.347   3.335 -0.7867  0.2786  0.7063
 8999TIP3    H248489   0.905   5.376   3.256  0.0490 -1.5033 -1.3786
 9000TIP3   OH248490   2.284   4.352  12.377  0.1931  0.0148  0.3651
 9000TIP3    H148491   2.286   4.309  12.292 -3.4341  2.1381 -1.0440
 9000TIP3    H248492   2.373   4.386  12.389  1.0303 -1.0618 -2.1605
 9001TIP3   OH248493   1.679   6.047   3.523  0.0045 -0.0174 -0.5350
 9001TIP3    H148494   1.756   6.004   3.485  0.1160  0.6631 -1.0988
 9001TIP3    H248495   1.636   5.978   3.574  2.3348  0.1547  1.8687
 9002TIP3   OH248496   4.173   4.732   2.919  0.0800 -0.5886 -0.3336
 9002TIP3    H148497   4.134   4.673   2.855 -0.5225 -0.7952  0.2197
 9002TIP3    H248498   4.141   4.819   2.894 -0.1463 -0.6671 -0.3153
 9003TIP3   OH248499   1.052   5.757   5.171  0.0197  0.0363 -0.2229
 9003TIP3    H148500   1.010   5.673   5.188 -1.1690  0.7282  0.4137
 9003TIP3    H248501   0.980   5.815   5.144  0.6522  1.0979  0.3000
 9004TIP3   OH248502   0.321   1.228   3.883  0.5179 -0.2357  0.3829
 9004TIP3    H148503   0.335   1.309   3.933  4.1368  0.8634 -2.0200
 9004TIP3    H248504   0.310   1.257   3.793 -2.1222 -2.3497 -0.0938
 9005TIP3   OH248505   3.887   1.684  15.434 -1.0370  0.1571  0.5585
 9005TIP3    H148506   3.810   1.711  15.383 -0.6167  0.6192  0.1622
 9005TIP3    H248507   3.959   1.737  15.398 -0.4554 -0.5616  0.6555
 9006TIP3   OH248508   4.851   4.216  13.979  0.2047  0.5087  0.0695
 9006TIP3    H148509   4.789   4.270  14.028  0.9878  1.6623 -0.1618
 9006TIP3    H248510   4.822   4.225  13.888  0.2444  0.4120  0.0477
 9007TIP3   OH248511   0.749   2.698   3.029  0.5634 -0.5895 -0.2779
 9007TIP3    H148512   0.719   2.712   3.119 -0.2172 -0.7669 -0.5035
 9007TIP3    H248513   0.844   2.696   3.036  0.4964 -1.2471  0.6487
 9008TIP3   OH248514   4.774   0.138  16.093  0.0438  0.1509  0.0011
 9008TIP3    H148515   4.715   0.151  16.019 -0.0561 -0.8698 -0.0990
 9008TIP3    H248516   4.760   0.048  16.121  0.1134  0.5004  1.2448
 9009TIP3   OH248517   1.826   5.895  15.207  0.5627  0.3001  0.1047
 9009TIP3    H148518   1.797   5.971  15.258 -2.3584 -1.6581  1.6887
 9009TIP3    H248519   1.836   5.929  15.118  0.4988  2.7576  0.9379
 9010TIP3   OH248520   0.529   4.550   0.729  0.0611  0.1874  0.8248
 9010TIP3    H148521   0.607   4.499   0.751 -0.0007  0.3134  1.3685
 9010TIP3    H248522   0.558   4.641   0.734  0.4099  0.2193 -1.0611
 9011TIP3   OH248523   1.203   0.084  15.113 -0.1969  0.5413  0.4742
 9011TIP3    H148524   1.218   0.175  15.139  0.9321  0.4365  0.2513
 9011TIP3    H248525   1.108   0.076  15.106 -0.2763  2.1241 -0.9680
 9012TIP3   OH248526   2.397   4.277  12.117  0.2379 -0.2750 -0.1748
 9012TIP3    H148527   2.393   4.252  12.025 -1.7841  1.2396 -0.5857
 9012TIP3    H248528   2.480   4.323  12.126  0.4161 -0.3528 -1.2744
 9013TIP3   OH248529   0.765   6.504  12.346  0.1587 -0.0794  0.1007
 9013TIP3    H148530   0.784   6.422  12.391  0.8628 -0.7979 -1.4302
 9013TIP3    H248531   0.669   6.510  12.348  0.0781 -1.1134 -0.0481
 9014TIP3   OH248532   5.051   6.759  14.992  0.6515  0.2484 -0.2572
 9014TIP3    H148533   5.145   6.762  15.011  1.0119  2.0703 -1.9719
 9014TIP3    H248534   5.041   6.812  14.913 -1.9066  0.5793  0.2044
 9015TIP3   OH248535   3.298   6.071  12.672 -0.2744  0.3001  0.2678
 9015TIP3    H148536   3.279   5.977  12.672  1.6906 -0.1415  0.2768
 9015TIP3    H248537   3.275   6.099  12.761  1.5308 -0.7626  1.1335
 9016TIP3   OH248538   6.758   1.589   6.730  0.1828 -0.0283 -0.1554
 9016TIP3    H148539   6.794   1.659   6.785 -1.8944  1.7489 -0.8895
 9016TIP3    H248540   6.687   1.552   6.782  0.2797 -0.5438 -0.3842
 9017TIP3   OH248541   4.335   3.064  12.938 -0.3028  0.0323  0.0915
 9017TIP3    H148542   4.423   3.088  12.966  0.3090 -1.9971  0.0760
 9017TIP3    H248543   4.340   3.063  12.842 -0.3889  0.1198  0.0865
 9018TIP3   OH248544   4.197   4.856  12.670  0.2676  0.5725  0.4909
 9018TIP3    H148545   4.102   4.865  12.679  0.2993  1.2702  0.1458
 9018TIP3    H248546   4.209   4.812  12.586  0.2717  1.1339  0.1922
 9019TIP3   OH248547   1.658   5.096  11.264 -0.8899  0.1361  0.2834
 9019TIP3    H148548   1.668   5.045  11.344 -0.1866 -0.7707 -0.3535
 9019TIP3    H248549   1.691   5.038  11.195 -1.9096  0.7129 -0.7226
 9020TIP3   OH248550   5.019   2.105  15.717  0.0215 -0.0728 -0.3221
 9020TIP3    H148551   5.095   2.150  15.754 -0.1119 -0.5010  0.5012
 9020TIP3    H248552   4.996   2.039  15.782 -0.7324 -0.3074 -0.8070
 9021TIP3   OH248553   3.289   1.169   2.278 -0.5541 -0.1481 -0.5084
 9021TIP3    H148554   3.369   1.219   2.259  0.9592 -1.5069  1.7633
 9021TIP3    H248555   3.239   1.226   2.337  0.4781 -0.6519  0.9111
 9022TIP3   OH248556   2.022   4.184  14.775 -0.0147 -0.4764 -0.1691
 9022TIP3    H148557   2.001   4.108  14.830 -1.2118  0.4041  0.6104
 9022TIP3    H248558   2.118   4.189  14.779  0.0485 -1.5860  0.2521
 9023TIP3   OH248559   3.061   1.341   3.497  0.0686  0.1321 -0.6347
 9023TIP3    H148560   3.031   1.415   3.549 -0.3560 -0.4995  0.0413
 9023TIP3    H248561   3.142   1.313   3.540 -0.1165 -0.1989 -0.5012
 9024TIP3   OH248562   5.913   2.953   4.629  0.4649  0.6258 -0.0559
 9024TIP3    H148563   5.996   2.934   4.586  0.5918  0.4114  0.2834
 9024TIP3    H248564   5.849   2.897   4.585  0.9077 -0.9834  1.2404
 9025TIP3   OH248565   6.835   4.765   0.849  0.1323 -0.4805  0.2299
 9025TIP3    H148566   6.829   4.684   0.900 -2.0865  1.0901  2.7653
 9025TIP3    H248567   6.869   4.829   0.912  0.8888  0.8085 -1.4230
 9026TIP3   OH248568   6.093   3.099   1.076  0.0953 -0.4152  0.4570
 9026TIP3    H148569   6.021   3.045   1.043  0.1416 -0.5192  0.5270
 9026TIP3    H248570   6.093   3.085   1.171 -1.4644  1.6064  0.8221
 9027TIP3   OH248571   5.866   4.975  13.767 -0.5176  0.1262  0.4137
 9027TIP3    H148572   5.789   5.032  13.773 -1.0757 -0.6718  1.1252
 9027TIP3    H248573   5.851   4.923  13.688 -0.4573  0.3317  0.2673
 9028TIP3   OH248574   1.706   4.924   0.012 -0.0132  0.2626 -0.2487
 9028TIP3    H148575   1.711   4.987   0.084  2.8666 -0.4386  0.2710
 9028TIP3    H248576   1.773   4.952  -0.050  0.7079 -1.7311 -0.4346
 9029TIP3   OH248577   0.209   5.992   3.095 -0.1430  0.5910 -0.1110
 9029TIP3    H148578   0.251   5.916   3.137  0.1337  0.6812 -0.2245
 9029TIP3    H248579   0.282   6.050   3.071 -0.4163  1.4225  0.9955
 9030TIP3   OH248580   4.711   2.242   4.622  0.5754 -0.2314 -0.6223
 9030TIP3    H148581   4.623   2.236   4.658  0.7495 -0.0452 -0.1586
 9030TIP3    H248582   4.766   2.197   4.686  1.0028  0.8174 -0.2215
 9031TIP3   OH248583   3.632   1.755  10.742  0.3679 -0.3752 -0.0927
 9031TIP3    H148584   3.613   1.846  10.720 -1.3567 -0.3601  1.2135
 9031TIP3    H248585   3.652   1.713  10.659  1.4537  1.2258 -0.6913
 9032TIP3   OH248586   5.358   5.272   3.726  0.1756 -0.2509 -0.2577
 9032TIP3    H148587   5.306   5.246   3.651  0.8085  2.5101 -1.7903
 9032TIP3    H248588   5.300   5.260   3.801 -1.6449 -0.0559 -1.5631
 9033TIP3   OH248589   3.871   5.262   3.759 -0.6698  0.2430 -0.2768
 9033TIP3    H148590   3.880   5.200   3.831 -0.2840 -0.9723 -1.3250
 9033TIP3    H248591   3.777   5.265   3.741 -0.6620 -0.2958 -0.4246
 9034TIP3   OH248592   1.200   4.014   2.779 -0.6175  0.7204 -0.0150
 9034TIP3    H148593   1.156   3.929   2.783 -2.2835  1.2853 -3.0427
 9034TIP3    H248594   1.150   4.069   2.839  0.4295 -0.3300  1.9164
 9035TIP3   OH248595   5.027   4.440   5.982  0.9678 -0.0165  0.2588
 9035TIP3    H148596   5.016   4.350   6.013  0.1285 -0.6856 -1.7296
 9035TIP3    H248597   4.947   4.485   6.010 -0.1693 -0.8302 -1.4574
 9036TIP3   OH248598   4.954   0.983  16.882 -0.2698 -0.2917  0.4444
 9036TIP3    H148599   5.033   1.005  16.930  2.1232 -3.0305 -1.8323
 9036TIP3    H248600   4.891   0.956  16.949  1.7676 -0.9006  2.1920
 9037TIP3   OH248601   6.674   3.145   3.619 -0.0394 -0.3801  0.8161
 9037TIP3    H148602   6.584   3.134   3.588  0.4813 -4.3321  0.2116
 9037TIP3    H248603   6.718   3.192   3.548 -1.2350  0.2961  0.4769
 9038TIP3   OH248604   3.494   3.712  10.970 -0.2817 -0.6358  0.4830
 9038TIP3    H148605   3.412   3.762  10.970 -1.1331 -1.9728  1.8746
 9038TIP3    H248606   3.467   3.621  10.963  1.1420 -1.0643  0.2453
 9039TIP3   OH248607   4.263   4.848  10.431 -0.1083  0.0234  0.0449
 9039TIP3    H148608   4.199   4.817  10.367 -0.9506 -1.0755  1.3677
 9039TIP3    H248609   4.346   4.810  10.402 -0.5526 -0.7950 -0.1900
 9040TIP3   OH248610   4.810   1.189  11.125 -0.1968 -0.1619 -0.0012
 9040TIP3    H148611   4.778   1.273  11.091  0.1041 -0.4451 -1.0139
 9040TIP3    H248612   4.876   1.213  11.190 -1.0026  0.3961  0.6419
 9041TIP3   OH248613   1.026   3.106  13.134 -0.5640  0.3172 -0.1255
 9041TIP3    H148614   0.959   3.065  13.188 -1.4057  0.7780 -0.7867
 9041TIP3    H248615   1.054   3.038  13.073  0.3613 -0.1925  0.8393
 9042TIP3   OH248616   6.756   2.305   0.740 -0.4162 -0.1430  0.3491
 9042TIP3    H148617   6.744   2.345   0.826 -0.4601  1.6371 -0.4366
 9042TIP3    H248618   6.838   2.342   0.707 -0.8436 -0.0982 -0.7238
 9043TIP3   OH248619   3.397   4.933  12.828 -0.0643 -0.5109  0.2036
 9043TIP3    H148620   3.429   5.002  12.886 -1.1989  0.1001  0.1390
 9043TIP3    H248621   3.443   4.854  12.856  0.3945  0.0447  1.0421
 9044TIP3   OH248622   2.193   3.066  13.721 -0.0838  0.2847  0.1075
 9044TIP3    H148623   2.184   3.062  13.626 -0.7282  1.1642  0.1146
 9044TIP3    H248624   2.103   3.061  13.754  0.1294  0.0434  0.6649
 9045TIP3   OH248625   3.679   0.402  10.759 -0.1744 -0.1818  0.1336
 9045TIP3    H148626   3.593   0.380  10.723  0.2126 -0.0413 -0.8943
 9045TIP3    H248627   3.696   0.491  10.729  0.7370 -0.5479 -0.4536
 9046TIP3   OH248628   3.916   6.724  12.216 -0.0569 -0.0920 -0.0017
 9046TIP3    H148629   3.967   6.709  12.136 -1.3745 -1.4803 -0.6231
 9046TIP3    H248630   3.957   6.801  12.256  0.4390  0.8502 -2.1808
 9047TIP3   OH248631   2.087   2.329   5.491 -0.0065  0.0141  0.1684
 9047TIP3    H148632   2.120   2.283   5.414  2.1270 -0.3454  1.2343
 9047TIP3    H248633   1.991   2.323   5.484  0.0081  1.5157 -3.3510
 9048TIP3   OH248634   0.397   4.385   3.446 -0.0451 -0.2764  0.5270
 9048TIP3    H148635   0.361   4.297   3.451 -0.1873 -0.1541  2.1454
 9048TIP3    H248636   0.446   4.396   3.527  0.4857  0.9231  0.0738
 9049TIP3   OH248637   1.891   2.508  15.096  0.0642 -0.2365 -0.0417
 9049TIP3    H148638   1.803   2.470  15.101  0.0841 -0.2524  0.2301
 9049TIP3    H248639   1.927   2.495  15.184  1.0605 -1.9630 -0.6358
 9050TIP3   OH248640   3.207   2.920  16.984 -0.6697  0.3127 -0.2750
 9050TIP3    H148641   3.290   2.877  17.002 -0.7734  0.6669  1.1527
 9050TIP3    H248642   3.169   2.936  17.070 -1.3402  1.8894 -0.8303
 9051TIP3   OH248643   4.472   2.690   2.200 -0.7550 -0.4178  0.3920
 9051TIP3    H148644   4.511   2.703   2.113 -0.0356 -0.2277  0.7374
 9051TIP3    H248645   4.401   2.628   2.185  0.3901 -1.6508 -0.0715
 9052TIP3   OH248646   5.784   1.229   6.154  0.1366  0.0520 -0.1602
 9052TIP3    H148647   5.716   1.243   6.220 -1.2015  3.7143 -2.0406
 9052TIP3    H248648   5.866   1.251   6.199 -0.5999  1.2305  0.6684
 9053TIP3   OH248649   6.471   4.306   5.338 -0.7568  0.2701 -0.6993
 9053TIP3    H148650   6.484   4.382   5.394 -3.0135  0.4528 -0.3241
 9053TIP3    H248651   6.535   4.242   5.368 -1.5278  0.5573  1.7857
 9054TIP3   OH248652   1.496   5.097   0.318  0.5918  0.3350 -0.2107
 9054TIP3    H148653   1.456   5.091   0.404  1.4410  0.5189  0.2043
 9054TIP3    H248654   1.434   5.150   0.267  0.5825  1.1140  0.5859
 9055TIP3   OH248655   3.612   6.088   5.142  0.3280 -0.0562  0.1971
 9055TIP3    H148656   3.686   6.082   5.202  0.2171 -0.7328  0.2672
 9055TIP3    H248657   3.542   6.128   5.193  0.9622  1.6623 -0.1796
 9056TIP3   OH248658   5.756   3.172   3.144  0.0445  0.4314 -0.3177
 9056TIP3    H148659   5.835   3.138   3.104 -1.5855 -1.6479 -2.0444
 9056TIP3    H248660   5.756   3.266   3.123  0.9070  0.0252 -2.2997
 9057TIP3   OH248661   0.146   4.519   4.200 -0.4945  0.1730 -0.3647
 9057TIP3    H148662   0.153   4.424   4.212  0.3584  0.3956  1.2425
 9057TIP3    H248663   0.159   4.554   4.288 -0.7829  1.7842 -0.9478
 9058TIP3   OH248664   2.082   0.879  13.685 -0.0217  0.5138 -0.3149
 9058TIP3    H148665   2.045   0.901  13.770  2.0930  1.6638  0.3805
 9058TIP3    H248666   2.024   0.921  13.621 -1.6734 -0.4281  0.5024
 9059TIP3   OH248667   2.011   2.385   3.014  0.5086  0.1895 -0.1268
 9059TIP3    H148668   2.098   2.379   3.053  0.3457 -0.8059  0.1112
 9059TIP3    H248669   1.984   2.476   3.030  0.8414  0.0704  1.2589
 9060TIP3   OH248670   6.578   6.293   0.823  0.0504  0.6316 -0.4587
 9060TIP3    H148671   6.658   6.343   0.841  0.5233 -0.2872  0.0538
 9060TIP3    H248672   6.609   6.216   0.776 -0.5054  0.1365 -0.0177
 9061TIP3   OH248673   1.467   3.917  12.835 -0.3735  0.1697 -0.4434
 9061TIP3    H148674   1.407   3.843  12.822 -0.0549 -0.1262 -0.2578
 9061TIP3    H248675   1.447   3.948  12.923 -0.2859  0.1031 -0.4008
 9062TIP3   OH248676   0.814   4.800  15.027  0.0691  0.2794  0.7487
 9062TIP3    H148677   0.732   4.769  15.065  0.4623  0.0656  1.4404
 9062TIP3    H248678   0.818   4.892  15.051  0.7811 -0.0759  2.1068
 9063TIP3   OH248679   0.566   4.982   3.845 -0.1360  0.4281  0.1779
 9063TIP3    H148680   0.578   5.051   3.780  2.5709 -1.8516 -2.0044
 9063TIP3    H248681   0.649   4.979   3.893  0.0042 -1.5637 -0.1030
 9064TIP3   OH248682   2.138   5.456   4.183 -0.5518 -0.4395  0.2705
 9064TIP3    H148683   2.197   5.403   4.129 -1.9150 -0.4916 -1.2687
 9064TIP3    H248684   2.183   5.539   4.194 -0.4076 -0.2566 -1.4058
 9065TIP3   OH248685   4.498   2.659   3.063 -0.3854  0.1488 -0.2170
 9065TIP3    H148686   4.405   2.642   3.048 -0.1321 -0.4073 -1.2606
 9065TIP3    H248687   4.501   2.704   3.148 -1.4952 -0.8627  0.3916
 9066TIP3   OH248688   5.797   6.060  16.213 -0.7485 -0.2136  0.0601
 9066TIP3    H148689   5.825   6.136  16.264 -1.8679 -0.5246  1.1851
 9066TIP3    H248690   5.711   6.038  16.248 -1.7788 -0.1757 -2.3037
 9067TIP3   OH248691   4.570   0.048   5.307 -0.2825 -0.3840  0.1251
 9067TIP3    H148692   4.552  -0.034   5.354 -2.5660 -1.2695 -2.0845
 9067TIP3    H248693   4.485   0.075   5.271  0.8682  1.6252 -1.3035
 9068TIP3   OH248694   2.562   2.882   4.115  0.2286  0.8565 -0.2536
 9068TIP3    H148695   2.561   2.953   4.180 -2.5701  2.0607 -1.4084
 9068TIP3    H248696   2.503   2.816   4.151  4.1023 -1.9528  1.6381
 9069TIP3   OH248697   2.857   5.202   3.082 -0.4843 -0.1093 -0.2220
 9069TIP3    H148698   2.901   5.138   3.026  1.8293  0.4500  0.8226
 9069TIP3    H248699   2.826   5.269   3.022  0.3819 -0.3775 -0.9995
 9070TIP3   OH248700   5.727   6.467  12.716 -0.9952  0.0887 -0.1394
 9070TIP3    H148701   5.755   6.497  12.630  0.2073  1.9130  0.8181
 9070TIP3    H248702   5.633   6.483  12.718 -1.0409 -0.0196 -1.1215
 9071TIP3   OH248703   3.757   4.710  12.435  0.5446 -0.4854  0.7908
 9071TIP3    H148704   3.846   4.679  12.418  0.5489  0.6749 -1.8465
 9071TIP3    H248705   3.752   4.794  12.389 -1.5137  0.1505  2.0383
 9072TIP3   OH248706   5.992   4.367   3.239 -0.5029  0.3766  0.0268
 9072TIP3    H148707   5.901   4.395   3.231 -0.4371  0.2875 -1.3796
 9072TIP3    H248708   5.996   4.321   3.322 -1.6169  0.8401  0.3562
 9073TIP3   OH248709   6.607   1.165  14.113 -0.4253  0.7037 -0.4577
 9073TIP3    H148710   6.647   1.229  14.056 -0.4904  1.7373  0.6126
 9073TIP3    H248711   6.637   1.189  14.201 -2.0238  0.4897  0.1870
 9074TIP3   OH248712   6.452   5.032  12.203 -0.1144  0.1354  0.3616
 9074TIP3    H148713   6.356   5.030  12.197 -0.0376 -0.8377 -0.9145
 9074TIP3    H248714   6.475   4.953  12.252 -0.0226  1.3249  2.3444
 9075TIP3   OH248715   6.319   2.570  12.395  0.3816  0.0149  0.0093
 9075TIP3    H148716   6.275   2.593  12.478 -2.5853 -4.6905  0.0989
 9075TIP3    H248717   6.270   2.619  12.329 -1.1861 -0.5661  0.6671
 9076TIP3   OH248718   6.020   0.743  10.850 -0.3395 -0.2605 -0.3366
 9076TIP3    H148719   6.020   0.758  10.756  3.8019 -0.8735 -0.6392
 9076TIP3    H248720   6.058   0.824  10.887 -0.0508 -0.7816  0.5443
 9077TIP3   OH248721   4.370   1.563  15.431 -0.6347  0.3528  0.0381
 9077TIP3    H148722   4.297   1.518  15.473  0.9839 -2.0339  0.4971
 9077TIP3    H248723   4.374   1.526  15.343 -0.5359  1.1732 -0.3126
 9078TIP3   OH248724   5.358   0.350  11.877 -0.3155  0.5841 -0.5417
 9078TIP3    H148725   5.403   0.422  11.834 -0.3280  1.7826  1.3732
 9078TIP3    H248726   5.427   0.299  11.919 -0.5182  1.0869  0.4284
 9079TIP3   OH248727   1.388   0.183   3.138  0.3973 -0.2898 -0.3662
 9079TIP3    H148728   1.308   0.229   3.165 -0.0730  0.0416 -2.1654
 9079TIP3    H248729   1.437   0.248   3.087  1.1503 -0.9122 -0.4551
 9080TIP3   OH248730   3.369   2.027   1.150 -0.2613 -0.1999  0.0426
 9080TIP3    H148731   3.304   2.076   1.201 -1.6689 -0.2080 -1.6523
 9080TIP3    H248732   3.386   2.081   1.074  0.1122 -1.1767 -0.5881
 9081TIP3   OH248733   4.235   4.929  14.852  0.0491 -0.1249  0.2661
 9081TIP3    H148734   4.288   4.966  14.922  0.6294  1.4919 -0.9552
 9081TIP3    H248735   4.145   4.948  14.878  0.2073 -0.3565  1.0025
 9082TIP3   OH248736   2.554   3.418   0.807 -0.7952  0.7940 -0.6871
 9082TIP3    H148737   2.648   3.426   0.821 -0.9542  0.3319  0.8381
 9082TIP3    H248738   2.527   3.344   0.862 -1.8524  0.0443 -2.1264
 9083TIP3   OH248739   6.183   5.166   3.324 -0.3749  0.4511 -0.0066
 9083TIP3    H148740   6.231   5.091   3.291 -0.3262  0.0254  1.0028
 9083TIP3    H248741   6.091   5.147   3.304 -0.2945  0.4545 -0.3802
 9084TIP3   OH248742   3.902   0.159   4.830 -0.6316 -0.0806 -0.7300
 9084TIP3    H148743   3.954   0.202   4.762 -0.7316 -0.3357 -0.9723
 9084TIP3    H248744   3.813   0.156   4.794 -1.4992  2.9315  0.8281
 9085TIP3   OH248745   4.882   1.635  11.989 -0.2836 -0.1172  0.0341
 9085TIP3    H148746   4.832   1.565  12.031  0.8965 -2.9065 -2.7975
 9085TIP3    H248747   4.815   1.692  11.950 -1.3283 -1.5788 -0.4082
 9086TIP3   OH248748   2.243   1.390  14.285  0.5536  0.1739  0.1502
 9086TIP3    H148749   2.335   1.385  14.314  0.0372 -2.1932  1.6716
 9086TIP3    H248750   2.222   1.483  14.288  2.5832  0.6687  0.8475
 9087TIP3   OH248751   6.304   6.054  14.211 -0.4798 -0.3407  0.0186
 9087TIP3    H148752   6.365   6.128  14.210  0.8479 -1.3884 -1.9340
 9087TIP3    H248753   6.246   6.069  14.136 -0.4636 -1.0545 -0.1463
 9088TIP3   OH248754   4.889   3.249   1.453  0.1758  0.0159 -0.5596
 9088TIP3    H148755   4.982   3.255   1.431  0.2662  0.6090 -0.0607
 9088TIP3    H248756   4.869   3.156   1.448  1.0034 -0.2193  0.1181
 9089TIP3   OH248757   0.801   6.407   4.239  0.3729  0.1827 -0.1280
 9089TIP3    H148758   0.728   6.434   4.184 -0.3162 -2.5600 -0.6856
 9089TIP3    H248759   0.879   6.429   4.188 -0.1296  1.0976 -0.5156
 9090TIP3   OH248760   0.092   0.053  14.701  0.8045 -0.3502  0.2090
 9090TIP3    H148761   0.007   0.032  14.740  1.4280 -1.6524  0.9645
 9090TIP3    H248762   0.112  -0.022  14.644  1.3595  0.0180 -0.0940
 9091TIP3   OH248763   1.486   1.296   0.828 -0.3670 -1.0202  0.3833
 9091TIP3    H148764   1.526   1.299   0.915 -1.7384 -0.1514  1.0128
 9091TIP3    H248765   1.515   1.377   0.786  0.1149 -1.3336  0.1045
 9092TIP3   OH248766   0.002   0.213  13.819 -0.4501 -0.1166 -0.0129
 9092TIP3    H148767  -0.077   0.223  13.765 -0.5338  1.0365  0.2978
 9092TIP3    H248768  -0.003   0.284  13.882  0.3353 -0.6473  0.6628
 9093TIP3   OH248769   3.187   0.725   1.955  0.3797  0.0477  0.0038
 9093TIP3    H148770   3.227   0.785   2.018  1.1414  0.5470 -0.9384
 9093TIP3    H248771   3.260   0.690   1.904  0.0476 -2.2675  0.9896
 9094TIP3   OH248772   5.298   0.128   4.729 -0.3327  0.5252  0.5550
 9094TIP3    H148773   5.274   0.140   4.637 -2.4664  0.4695  1.0475
 9094TIP3    H248774   5.392   0.143   4.732  0.0358 -0.8316 -1.8578
 9095TIP3   OH248775   3.462   3.921  13.913 -0.0193  0.2121  0.1632
 9095TIP3    H148776   3.521   3.886  13.846  1.0545  0.1720  1.0898
 9095TIP3    H248777   3.423   3.998  13.872 -0.1050 -0.3446 -0.8334
 9096TIP3   OH248778   4.929   0.027   5.721  0.2839 -0.2516 -0.7676
 9096TIP3    H148779   4.981  -0.037   5.673  1.0412  0.6644 -1.2059
 9096TIP3    H248780   4.985   0.054   5.794  0.9866  1.6559 -1.9376
 9097TIP3   OH248781   0.572   6.634  12.544 -0.2119  0.7921 -0.4129
 9097TIP3    H148782   0.551   6.624  12.451 -0.7795 -0.0752 -0.2003
 9097TIP3    H248783   0.588   6.545  12.575 -2.8843  0.7012  0.9745
 9098TIP3   OH248784   4.260   0.587   1.249 -0.3538  0.2333  0.3873
 9098TIP3    H148785   4.298   0.504   1.219 -0.8788  1.2239 -3.5435
 9098TIP3    H248786   4.240   0.572   1.341  0.0339 -3.8095 -0.0083
 9099TIP3   OH248787   2.244   1.628   6.449  0.1425 -0.2321 -0.0241
 9099TIP3    H148788   2.268   1.541   6.482  1.1749  0.2537  0.5653
 9099TIP3    H248789   2.160   1.647   6.491 -0.4423 -1.2181 -0.6963
 9100TIP3   OH248790   0.173   5.338  13.989  0.1782 -0.0811  0.0133
 9100TIP3    H148791   0.138   5.250  13.980 -1.2043  0.5175 -0.7467
 9100TIP3    H248792   0.096   5.395  13.986  1.2410  1.3538 -2.6042
 9101TIP3   OH248793   2.122   1.720  14.981 -0.3251 -0.7907  0.5173
 9101TIP3    H148794   2.139   1.784  14.912 -0.5910 -1.8941 -0.6293
 9101TIP3    H248795   2.202   1.667  14.984  1.2153  1.4543  3.6784
 9102TIP3   OH248796   3.828   5.646  17.166  0.3883  0.5143  0.7549
 9102TIP3    H148797   3.905   5.590  17.165 -0.3652 -0.5850 -1.3174
 9102TIP3    H248798   3.762   5.596  17.213  0.4877  0.8498  1.2688
 9103TIP3   OH248799   0.240   3.377  17.148  0.4026 -0.7696 -0.0524
 9103TIP3    H148800   0.187   3.454  17.172  2.3118  0.8069 -0.6176
 9103TIP3    H248801   0.247   3.327  17.229 -2.3137 -1.3276 -0.0621
 9104TIP3   OH248802   4.167   0.150  14.437 -0.2116 -0.3522 -0.5029
 9104TIP3    H148803   4.207   0.204  14.369  2.9134 -0.4607  1.0180
 9104TIP3    H248804   4.190   0.195  14.519 -2.4301 -1.0642  0.5894
 9105TIP3   OH248805   2.419   0.463  13.840 -0.4078  0.3644  0.5528
 9105TIP3    H148806   2.469   0.485  13.761 -0.8968  1.0134  0.4167
 9105TIP3    H248807   2.388   0.548  13.873  0.0101  0.1307  1.5957
 9106TIP3   OH248808   3.988   1.739   3.459  0.4421 -0.1891 -0.3109
 9106TIP3    H148809   3.989   1.646   3.434 -0.6726 -0.1699 -0.4629
 9106TIP3    H248810   4.028   1.784   3.385 -0.3710 -0.4077 -0.8911
 9107TIP3   OH248811   2.463   4.548  17.109  0.4551  0.2509  0.0252
 9107TIP3    H148812   2.513   4.602  17.170 -0.6871  2.1767 -0.6545
 9107TIP3    H248813   2.374   4.581  17.116  0.4052  1.1682 -3.2452
 9108TIP3   OH248814   3.774   6.152   3.790 -0.3046  0.1646  0.2528
 9108TIP3    H148815   3.721   6.226   3.760 -1.3186 -0.3140  0.8165
 9108TIP3    H248816   3.856   6.160   3.742 -1.3048  0.2791 -1.5075
 9109TIP3   OH248817   3.484   1.781   1.147 -0.0235  0.3395  0.2780
 9109TIP3    H148818   3.529   1.810   1.227 -1.3017  1.3661  0.6659
 9109TIP3    H248819   3.438   1.859   1.117 -1.7244 -0.7217  0.0395
 9110TIP3   OH248820   3.717   6.120   1.765  0.1997  0.1015  0.6154
 9110TIP3    H148821   3.629   6.128   1.729  0.3824 -0.1029  0.1126
 9110TIP3    H248822   3.707   6.139   1.858 -0.1822  1.1989  0.3632
 9111TIP3   OH248823   0.233   4.261   6.710 -0.5070  0.2829  0.6674
 9111TIP3    H148824   0.259   4.215   6.630 -2.3937  0.0218  0.1757
 9111TIP3    H248825   0.148   4.225   6.732 -0.7257  1.4957  1.9195
 9112TIP3   OH248826   2.189   6.478  16.800 -0.1710  0.3214  0.1649
 9112TIP3    H148827   2.101   6.482  16.837 -0.5635 -0.1830 -0.6829
 9112TIP3    H248828   2.179   6.505  16.709  0.6496  0.7970  0.2054
 9113TIP3   OH248829   6.009   2.653  15.148 -0.4319 -0.8710 -0.2271
 9113TIP3    H148830   6.082   2.662  15.087 -1.0728 -0.6708 -0.9849
 9113TIP3    H248831   6.047   2.668  15.235 -0.0145  1.7012 -0.7845
 9114TIP3   OH248832   0.965   2.900   1.863 -0.8923  0.3890 -0.5544
 9114TIP3    H148833   0.896   2.835   1.845 -0.7569  0.2269 -0.4906
 9114TIP3    H248834   1.026   2.854   1.921  0.0019  0.0700 -1.7311
 9115TIP3   OH248835   5.406   5.261   2.633  0.0340  0.3771 -0.1895
 9115TIP3    H148836   5.445   5.320   2.698 -2.7927  0.5977  1.4632
 9115TIP3    H248837   5.434   5.174   2.662 -0.1014  0.5634  0.5184
 9116TIP3   OH248838   6.282   5.535   3.948  0.4059 -0.0605 -0.1773
 9116TIP3    H148839   6.324   5.561   4.030 -0.1450 -0.3092  0.1846
 9116TIP3    H248840   6.355   5.507   3.892  0.6570 -1.3502  0.7567
 9117TIP3   OH248841   1.326   0.884   1.895  0.0342 -0.4846 -0.5567
 9117TIP3    H148842   1.416   0.914   1.880  0.3959 -0.8077  0.8506
 9117TIP3    H248843   1.303   0.918   1.981 -1.1063 -0.6516 -0.7748
 9118TIP3   OH248844   6.406   0.564   4.109  0.7732 -0.1429 -0.3044
 9118TIP3    H148845   6.454   0.482   4.117  0.2207 -0.3779  0.9155
 9118TIP3    H248846   6.471   0.627   4.078  1.5790 -0.7099  0.1980
 9119TIP3   OH248847   1.285   2.212   5.593 -0.0337  0.5063 -0.4309
 9119TIP3    H148848   1.212   2.254   5.548  0.2760  2.1164  0.4993
 9119TIP3    H248849   1.360   2.223   5.535 -0.1556  0.3834 -0.6131
 9120TIP3   OH248850   2.423   5.953   5.882 -0.1788  0.2351 -0.2496
 9120TIP3    H148851   2.388   6.015   5.945 -0.8544 -0.5050  0.1165
 9120TIP3    H248852   2.459   6.008   5.812 -0.1101  1.0440  0.4058
 9121TIP3   OH248853   6.176   1.034   3.681  0.6568 -0.5898  0.6240
 9121TIP3    H148854   6.120   1.023   3.604  0.5535  0.8462  0.4711
 9121TIP3    H248855   6.265   1.035   3.645  0.5770  0.7348  0.4209
 9122TIP3   OH248856   5.775   0.412  16.455 -0.9219  0.2111 -0.2745
 9122TIP3    H148857   5.836   0.483  16.437 -1.1816  0.9741  1.5435
 9122TIP3    H248858   5.694   0.456  16.483 -1.2900 -0.7825  0.3095
 9123TIP3   OH248859   0.650   0.107  16.905 -0.9565  0.0824  0.3745
 9123TIP3    H148860   0.580   0.049  16.933 -0.6773  0.5458  2.1156
 9123TIP3    H248861   0.673   0.157  16.983  1.3782 -0.1242 -0.1106
 9124TIP3   OH248862   6.831   4.582   4.646  0.2831 -0.2566  0.3225
 9124TIP3    H148863   6.856   4.491   4.658 -0.7911 -0.6897 -0.6243
 9124TIP3    H248864   6.855   4.602   4.555  0.8805  0.5387  0.6353
 9125TIP3   OH248865   4.974   3.453  14.065 -0.3643 -0.3070  0.2450
 9125TIP3    H148866   5.065   3.464  14.090 -0.8899  1.8805  1.4869
 9125TIP3    H248867   4.944   3.542  14.045 -2.5143 -0.7955  1.0177
 9126TIP3   OH248868   5.801   6.257  12.326  0.2127  0.0741  0.2979
 9126TIP3    H148869   5.815   6.238  12.233 -1.3656  1.1072 -0.1898
 9126TIP3    H248870   5.880   6.224  12.369  0.6303 -1.1538 -1.2943
 9127TIP3   OH248871   5.389   5.428  15.817 -0.4703  0.2194  0.0440
 9127TIP3    H148872   5.322   5.468  15.762 -2.5411 -2.8025  0.1883
 9127TIP3    H248873   5.402   5.492  15.888 -2.5593  1.2812 -0.4455
 9128TIP3   OH248874   0.154   2.895  11.802 -0.2190  0.4261 -0.3057
 9128TIP3    H148875   0.175   2.867  11.713 -0.4659 -0.5663 -0.0650
 9128TIP3    H248876   0.088   2.832  11.833  0.0823  0.5653  0.6783
 9129TIP3   OH248877   6.485   6.605  14.779 -0.7286  0.0906  0.0714
 9129TIP3    H148878   6.541   6.683  14.783 -0.8012  0.1086  0.7785
 9129TIP3    H248879   6.516   6.558  14.701  0.3805  0.0109  0.5448
 9130TIP3   OH248880   4.341   5.545   2.780  0.2478 -0.2033 -0.5074
 9130TIP3    H148881   4.309   5.631   2.755 -0.5759 -0.2185  0.4316
 9130TIP3    H248882   4.436   5.557   2.790  0.0646  0.7541  0.2148
 9131TIP3   OH248883   0.955   4.561  13.529  0.0384 -0.1831  0.6386
 9131TIP3    H148884   1.016   4.628  13.558  1.6479 -1.9478  1.6003
 9131TIP3    H248885   0.916   4.527  13.610  0.6316 -1.6082  0.3650
 9132TIP3   OH248886   2.095   3.262   5.692 -0.4191  0.1866  0.1569
 9132TIP3    H148887   2.176   3.306   5.669  0.1508 -1.1213 -0.4443
 9132TIP3    H248888   2.105   3.173   5.658 -2.5794  0.3169 -0.9842
 9133TIP3   OH248889   5.124   1.528  16.027 -0.0573  0.5271 -0.8133
 9133TIP3    H148890   5.138   1.594  15.959 -0.8794  1.3055 -0.2356
 9133TIP3    H248891   5.044   1.482  15.999 -1.9073  2.5008  0.8390
 9134TIP3   OH248892   0.207   4.709  14.859 -0.0584 -0.5399 -0.3052
 9134TIP3    H148893   0.244   4.634  14.813  0.4985 -0.4362 -0.0331
 9134TIP3    H248894   0.126   4.727  14.813  1.5485  0.9992 -2.7807
 9135TIP3   OH248895   1.628   5.424  12.966 -0.1471  0.7050 -0.4487
 9135TIP3    H148896   1.661   5.353  13.020  0.3588  0.6840 -0.7820
 9135TIP3    H248897   1.537   5.435  12.993  0.2877  1.1645  0.9000
 9136TIP3   OH248898   4.988   5.376  11.786 -0.0067 -0.4792  0.1498
 9136TIP3    H148899   4.976   5.398  11.878  3.4049 -0.1034  0.6155
 9136TIP3    H248900   5.016   5.457  11.744  0.9870 -1.2154 -0.6649
 9137TIP3   OH248901   3.431   4.049  16.260 -0.1833 -0.5119 -0.6071
 9137TIP3    H148902   3.491   4.014  16.326  3.2118  0.1074 -3.0635
 9137TIP3    H248903   3.395   3.971  16.217 -0.2429 -0.9094  0.1434
 9138TIP3   OH248904   6.560   2.994  16.085 -0.0367  0.1861  0.1333
 9138TIP3    H148905   6.570   2.949  16.001  0.4867  2.9167 -1.3858
 9138TIP3    H248906   6.581   2.927  16.151 -1.9218 -2.4747 -1.7655
 9139TIP3   OH248907   1.349   2.253  15.486  0.1950 -0.3899  0.9684
 9139TIP3    H148908   1.329   2.292  15.571 -0.1893 -0.6983  1.0225
 9139TIP3    H248909   1.370   2.328  15.430 -0.5967 -0.0938  1.0530
 9140TIP3   OH248910   6.595   1.160   4.170 -0.6127 -0.0245 -0.2118
 9140TIP3    H148911   6.562   1.231   4.226  1.8797  1.1688 -0.1325
 9140TIP3    H248912   6.603   1.085   4.229  0.5080  0.7881  0.7197
 9141TIP3   OH248913   4.194   1.358  15.014  0.3934 -0.1394 -0.3373
 9141TIP3    H148914   4.195   1.452  15.030 -0.3742  0.1703 -2.0006
 9141TIP3    H248915   4.102   1.333  15.020  0.2355 -0.2710 -2.5067
 9142TIP3   OH248916   3.803   1.534  12.874  0.0045 -0.2500 -0.0990
 9142TIP3    H148917   3.729   1.528  12.934  0.9217 -0.3276  1.0729
 9142TIP3    H248918   3.869   1.584  12.922  0.7485 -0.2447 -1.0826
 9143TIP3   OH248919   6.204   0.316   0.276 -0.3314 -0.7126 -0.4861
 9143TIP3    H148920   6.193   0.400   0.320  0.7419 -0.6802 -0.2497
 9143TIP3    H248921   6.250   0.261   0.339 -1.6687 -1.7281 -0.3666
 9144TIP3   OH248922   0.140   1.597   5.934  0.0574 -0.7448 -0.1928
 9144TIP3    H148923   0.073   1.652   5.974  1.2023  0.5995 -0.0494
 9144TIP3    H248924   0.147   1.629   5.844  1.8494  0.4806  0.3320
 9145TIP3   OH248925   2.870   6.243   1.303  0.8721  0.8007 -0.2905
 9145TIP3    H148926   2.885   6.285   1.218  1.1219  1.6813  0.1769
 9145TIP3    H248927   2.815   6.304   1.351 -0.4725 -0.3462 -0.3220
 9146TIP3   OH248928   2.490   0.081  13.583 -0.0364 -0.4671  0.1969
 9146TIP3    H148929   2.404   0.050  13.613  0.1502 -1.4473 -0.2411
 9146TIP3    H248930   2.518   0.143  13.651 -0.1022 -1.8286  1.5305
 9147TIP3   OH248931   2.087   4.244  16.895 -0.1323 -0.3456  0.1002
 9147TIP3    H148932   1.996   4.268  16.910  0.5767  2.0152  1.2490
 9147TIP3    H248933   2.134   4.328  16.896  2.3972 -1.6344  2.2112
 9148TIP3   OH248934   2.165   0.600   4.002  0.5006 -0.4045 -0.0519
 9148TIP3    H148935   2.114   0.542   4.059 -0.1907  0.4752  0.2445
 9148TIP3    H248936   2.221   0.649   4.063 -0.2009  0.5007 -0.1131
 9149TIP3   OH248937   3.835   6.235   5.234 -1.0423 -0.0447  0.3439
 9149TIP3    H148938   3.823   6.224   5.139 -1.5077  0.7879  0.2975
 9149TIP3    H248939   3.860   6.148   5.265 -0.3839 -0.2157 -0.6145
 9150TIP3   OH248940   6.107   6.540  12.784 -0.0681 -0.3856 -0.1764
 9150TIP3    H148941   6.157   6.508  12.709 -1.1994  2.4744 -2.3527
 9150TIP3    H248942   6.168   6.597  12.831 -0.8152  2.4274 -2.3525
 9151TIP3   OH248943   6.156   4.785   5.018 -0.2599  0.2881 -0.1159
 9151TIP3    H148944   6.191   4.835   4.945 -2.2263  0.8214 -0.7657
 9151TIP3    H248945   6.233   4.748   5.061  0.9693 -2.1036 -3.8763
 9152TIP3   OH248946   6.571   0.232  13.606  0.5679 -0.2122 -0.0245
 9152TIP3    H148947   6.520   0.276  13.674  2.4346  0.9697  0.6755
 9152TIP3    H248948   6.508   0.174  13.564 -0.6338 -1.1918  2.8545
 9153TIP3   OH248949   4.050   6.159   3.379 -0.4176  0.1547  0.0508
 9153TIP3    H148950   3.991   6.165   3.304 -0.4145 -1.4765 -0.1116
 9153TIP3    H248951   3.999   6.114   3.447  0.6295 -1.4014 -0.1409
 9154TIP3   OH248952   1.938   0.593   2.956  0.0422  0.4402  0.5003
 9154TIP3    H148953   1.915   0.566   2.867 -0.8759 -0.6181  1.0359
 9154TIP3    H248954   1.950   0.688   2.950  3.5861  0.0509 -1.4937
 9155TIP3   OH248955   0.552   0.128  14.372  0.3243  0.0404  0.0627
 9155TIP3    H148956   0.624   0.189  14.356  0.6464 -0.6358 -1.2189
 9155TIP3    H248957   0.523   0.148  14.461  0.9617  1.4874 -0.0237
 9156TIP3   OH248958   0.851   0.318   3.779 -0.0825 -0.5369 -0.1109
 9156TIP3    H148959   0.896   0.345   3.699 -0.7834  1.2102  0.0386
 9156TIP3    H248960   0.915   0.263   3.824  1.3649  0.6370 -0.6133
 9157TIP3   OH248961   2.156   4.593  15.656  0.1390  0.0641  0.0305
 9157TIP3    H148962   2.098   4.660  15.623  0.7023  0.7990  0.4932
 9157TIP3    H248963   2.110   4.510  15.640 -1.4189  0.6667  1.1737
 9158TIP3   OH248964   3.935   3.724   0.099 -0.1509  0.7748 -0.0060
 9158TIP3    H148965   3.978   3.807   0.076  0.4560  0.3425 -0.4586
 9158TIP3    H248966   3.868   3.749   0.162  1.0766  1.4179  1.1017
 9159TIP3   OH248967   1.024   1.153   3.955  0.0373 -0.1422  0.0229
 9159TIP3    H148968   1.004   1.235   3.911 -0.6153  0.4253  1.3237
 9159TIP3    H248969   1.040   1.090   3.884  2.7474  1.5714 -1.0431
 9160TIP3   OH248970   0.160   0.422   5.959  0.3001 -0.2151  0.2799
 9160TIP3    H148971   0.170   0.356   6.028  0.7427 -0.6142 -0.1537
 9160TIP3    H248972   0.071   0.455   5.970  0.2146 -0.5939  0.7604
 9161TIP3   OH248973   3.053   5.108   1.511  0.2598 -0.5103 -0.5458
 9161TIP3    H148974   3.002   5.185   1.536 -0.7417 -1.1897 -0.4436
 9161TIP3    H248975   3.126   5.107   1.573  0.2881  0.3486 -0.5477
 9162TIP3   OH248976   0.891   0.450   0.528  0.1954  0.1807  0.4754
 9162TIP3    H148977   0.923   0.477   0.614 -0.3789  0.2365  0.6760
 9162TIP3    H248978   0.840   0.524   0.496  2.3256  1.0996 -0.9624
 9163TIP3   OH248979   0.585   4.296  16.076  0.1207 -0.3141 -0.1328
 9163TIP3    H148980   0.588   4.270  15.984 -1.3458 -1.0554 -0.0025
 9163TIP3    H248981   0.610   4.217  16.124  0.5225 -0.0372  0.1154
 9164TIP3   OH248982   2.167   4.905  13.723  0.0897 -0.1879  0.1909
 9164TIP3    H148983   2.172   4.815  13.755  1.6507 -0.6894 -1.2880
 9164TIP3    H248984   2.077   4.915  13.691  0.4054 -1.8848 -1.3692
 9165TIP3   OH248985   4.414   3.439   3.659 -0.4991  0.0146 -0.0955
 9165TIP3    H148986   4.403   3.404   3.748 -2.1376  0.6936  0.0034
 9165TIP3    H248987   4.415   3.534   3.670 -2.1337  0.1532 -0.9142
 9166TIP3   OH248988   0.966   0.860   5.550  0.0455  0.3134  0.6306
 9166TIP3    H148989   1.035   0.895   5.494  0.1826 -2.7588 -1.3258
 9166TIP3    H248990   1.012   0.831   5.629  0.9765 -1.2481 -0.4414
 9167TIP3   OH248991   6.467   4.583   3.628 -0.1427 -0.2472  0.5721
 9167TIP3    H148992   6.397   4.615   3.571 -0.7120 -0.4411  1.1531
 9167TIP3    H248993   6.508   4.513   3.578 -0.2719 -0.0363  0.1661
 9168TIP3   OH248994   2.042   5.528  12.166 -0.0453  0.0955 -0.0181
 9168TIP3    H148995   1.948   5.529  12.180 -0.1518  1.1544 -0.6577
 9168TIP3    H248996   2.061   5.614  12.127  1.3493  0.3873  1.2215
 9169TIP3   OH248997   5.892   2.891  14.314  0.3509 -0.0584  0.2164
 9169TIP3    H148998   5.925   2.833  14.383 -0.4422 -0.9862 -0.1544
 9169TIP3    H248999   5.918   2.849  14.233  0.3617  0.4728 -0.0570
 9170TIP3   OH249000   5.744   5.575  16.489 -0.2674 -0.2449 -0.4247
 9170TIP3    H149001   5.669   5.619  16.448  0.5335  1.1717 -0.4462
 9170TIP3    H249002   5.810   5.572  16.420  0.8817  1.6408  0.5018
 9171TIP3   OH249003   3.498   6.281   2.032  0.9415  0.5709 -0.0326
 9171TIP3    H149004   3.563   6.212   2.025 -0.5586 -0.8323 -0.6181
 9171TIP3    H249005   3.415   6.239   2.009  0.0746  2.7247 -1.1304
 9172TIP3   OH249006   5.403   4.443   1.436 -0.1231  0.4984 -0.8089
 9172TIP3    H149007   5.352   4.445   1.517 -0.5071  1.3586 -1.0550
 9172TIP3    H249008   5.489   4.477   1.461  0.4158 -1.0899 -0.3623
 9173TIP3   OH249009   5.254   2.055   4.420 -0.1926  0.3639 -0.0936
 9173TIP3    H149010   5.203   1.976   4.400  0.0196  0.2222 -0.0714
 9173TIP3    H249011   5.332   2.023   4.464  0.4536  0.4778 -1.1151
 9174TIP3   OH249012   5.024   6.296   3.434 -0.4482  0.5683 -0.6181
 9174TIP3    H149013   5.002   6.369   3.491 -2.9930  1.0939 -2.1191
 9174TIP3    H249014   4.983   6.220   3.474 -1.2737  0.7392 -1.1034
 9175TIP3   OH249015   2.207   6.714   6.934 -0.0557 -0.2351 -0.1500
 9175TIP3    H149016   2.235   6.802   6.907  0.2496  0.9115  3.3904
 9175TIP3    H249017   2.112   6.718   6.935 -0.0953 -0.4221 -1.1779
 9176TIP3   OH249018   5.018   4.069   2.873  0.0063  0.0953 -0.0306
 9176TIP3    H149019   5.034   4.047   2.782  0.0604 -0.7122  0.1656
 9176TIP3    H249020   4.934   4.027   2.894  0.5261 -0.6702  0.5890
 9177TIP3   OH249021   4.112   2.537  12.796  0.2318  0.6269  0.4521
 9177TIP3    H149022   4.105   2.627  12.827  1.0474  0.9674 -0.3081
 9177TIP3    H249023   4.031   2.522  12.748  0.3524  1.1696  0.0653
 9178TIP3   OH249024   2.188   6.477   1.516  0.1369  0.0391 -0.4152
 9178TIP3    H149025   2.231   6.492   1.601 -0.7356 -0.0649  0.0520
 9178TIP3    H249026   2.256   6.437   1.462  0.4551 -0.6891  0.5044
 9179TIP3   OH249027   5.049   5.659  11.405 -0.3449  0.2740  0.0066
 9179TIP3    H149028   5.138   5.695  11.407  0.0567 -0.6864 -0.0171
 9179TIP3    H249029   5.003   5.714  11.342  0.8261 -0.5158 -1.6338
 9180TIP3   OH249030   2.430   2.867   5.363  0.1700  0.4568 -0.1483
 9180TIP3    H149031   2.393   2.941   5.411 -2.3811  0.0026 -1.2532
 9180TIP3    H249032   2.457   2.806   5.432  0.7425  1.6586  0.7423
 9181TIP3   OH249033   3.916   1.344   1.457  0.0590 -0.3350  0.2538
 9181TIP3    H149034   3.951   1.420   1.411 -1.3020 -0.9571 -1.9806
 9181TIP3    H249035   3.868   1.381   1.531  0.6446  0.8761  0.0564
 9182TIP3   OH249036   1.012   1.626   0.736 -0.3850  0.3719 -0.1286
 9182TIP3    H149037   0.945   1.575   0.691  0.0618 -0.7631  0.4452
 9182TIP3    H249038   1.005   1.600   0.828  0.8546  0.1933 -0.0596
 9183TIP3   OH249039   3.074   6.213  15.690  0.3746 -0.3648 -0.6951
 9183TIP3    H149040   3.066   6.299  15.732  0.0801  0.9164 -3.1657
 9183TIP3    H249041   2.996   6.166  15.719 -1.7974  1.8174 -2.5612
 9184TIP3   OH249042   5.672   0.886  12.584 -0.1067  0.1925  0.1286
 9184TIP3    H149043   5.764   0.902  12.605  0.0177  0.6200 -0.6733
 9184TIP3    H249044   5.673   0.808  12.529 -0.3312 -0.3810  0.9268
 9185TIP3   OH249045   1.378   5.455  14.401 -0.0586  0.4504  0.3970
 9185TIP3    H149046   1.449   5.469  14.464  1.2762 -0.1725 -0.9121
 9185TIP3    H249047   1.420   5.461  14.315 -1.6220  0.1747 -0.4265
 9186TIP3   OH249048   6.501   2.082   3.499 -0.3752  0.0833 -0.4314
 9186TIP3    H149049   6.549   2.014   3.546 -0.0156  1.0220  0.6247
 9186TIP3    H249050   6.531   2.077   3.409  1.1819  0.1790  0.0647
 9187TIP3   OH249051   5.248   1.863  14.709  0.0246  0.1669  0.1004
 9187TIP3    H149052   5.236   1.811  14.788 -0.5300 -0.5753 -0.4592
 9187TIP3    H249053   5.331   1.832  14.673  0.1834  0.3706  0.2891
 9188TIP3   OH249054   3.771   5.110  14.064 -0.1617  0.4562 -0.0152
 9188TIP3    H149055   3.782   5.205  14.054  0.3664  0.3107 -0.9104
 9188TIP3    H249056   3.856   5.079  14.093 -0.4007  0.2751  0.5093
 9189TIP3   OH249057   0.775   1.792  11.569  0.0894 -0.1108  0.4710
 9189TIP3    H149058   0.796   1.699  11.553  3.3280  0.9170 -2.8030
 9189TIP3    H249059   0.732   1.820  11.488  2.2874  1.8905 -0.1174
 9190TIP3   OH249060   2.260   2.633  16.483  0.0024  0.3998 -0.5788
 9190TIP3    H149061   2.297   2.545  16.473  0.1403  0.1880  1.5269
 9190TIP3    H249062   2.331   2.692  16.458  0.5367 -0.0572 -0.1423
 9191TIP3   OH249063   0.009   2.299   6.302  0.2762 -0.2730 -0.5206
 9191TIP3    H149064   0.046   2.380   6.336 -0.4198 -0.5411  0.9503
 9191TIP3    H249065   0.073   2.232   6.323  0.4867 -0.2233 -1.0086
 9192TIP3   OH249066   1.048   6.788  14.460  0.6135  0.4454  0.3450
 9192TIP3    H149067   1.062   6.726  14.531 -1.0098  0.5128  0.7643
 9192TIP3    H249068   1.086   6.870  14.493  0.4561  0.3160  0.8582
 9193TIP3   OH249069   6.355   2.590   5.969 -0.2036  0.6899 -0.1142
 9193TIP3    H149070   6.307   2.660   6.015 -2.4307 -1.0225  0.3214
 9193TIP3    H249071   6.429   2.571   6.027 -2.0766 -0.3390  2.0987
 9194TIP3   OH249072   3.832   2.265  10.521  0.7971  0.0636 -0.3618
 9194TIP3    H149073   3.765   2.226  10.578 -2.6031 -0.1458 -4.0037
 9194TIP3    H249074   3.886   2.191  10.494  0.2694 -0.4585 -0.0304
 9195TIP3   OH249075   5.962   6.372  14.978  0.0478 -0.6352  0.1566
 9195TIP3    H149076   5.969   6.370  15.074  2.4736  0.3434  0.0944
 9195TIP3    H249077   6.053   6.363  14.948 -0.8171 -2.6936 -2.1320
 9196TIP3   OH249078   4.160   6.751   2.766  0.4252 -0.1343 -0.2379
 9196TIP3    H149079   4.188   6.838   2.793 -3.8522  1.1623  0.8750
 9196TIP3    H249080   4.155   6.701   2.847  1.5439 -1.0165 -0.6934
 9197TIP3   OH249081   5.379   6.197  11.932 -0.0302  0.3875 -0.1819
 9197TIP3    H149082   5.391   6.105  11.956 -0.0244  0.4466  0.0452
 9197TIP3    H249083   5.466   6.235  11.940  0.2951  0.0571 -1.8398
 9198TIP3   OH249084   5.717   6.333  11.303  0.1890 -0.1368  0.1658
 9198TIP3    H149085   5.735   6.373  11.218 -1.3234  0.9285  0.3088
 9198TIP3    H249086   5.791   6.359  11.358 -0.7274  2.5544  0.2429
 9199TIP3   OH249087   5.051   0.468   1.562  0.0328 -0.3475 -0.1991
 9199TIP3    H149088   4.967   0.438   1.527 -1.0929  3.1484 -0.8646
 9199TIP3    H249089   5.111   0.461   1.488 -0.3349 -0.4420 -0.4953
 9200TIP3   OH249090   1.741   4.696   4.798 -0.7653  0.3842 -0.1977
 9200TIP3    H149091   1.669   4.670   4.739 -0.9093  1.6193 -0.6073
 9200TIP3    H249092   1.807   4.733   4.740 -1.3702  2.6692  0.4342
 9201TIP3   OH249093   6.006   4.993  14.295 -0.1215  0.3283  0.0155
 9201TIP3    H149094   5.961   5.044  14.227  1.9124  0.0054 -1.6760
 9201TIP3    H249095   5.972   5.027  14.377 -2.3401  1.0713 -1.1370
 9202TIP3   OH249096   3.891   0.087  13.688 -0.1513 -0.0314  0.0303
 9202TIP3    H149097   3.817   0.109  13.745  1.7400  0.0814  2.5794
 9202TIP3    H249098   3.911   0.168  13.641 -0.1935  0.5869  1.0702
 9203TIP3   OH249099   6.407   1.025  15.685  0.3096  0.1332  0.0757
 9203TIP3    H149100   6.417   0.930  15.683  3.2121  0.3377  0.5873
 9203TIP3    H249101   6.490   1.057  15.720 -0.0745  2.9359 -1.3207
 9204TIP3   OH249102   0.145   2.806   3.241 -0.4373  0.4524  0.7286
 9204TIP3    H149103   0.107   2.781   3.157  2.3118  0.0007 -0.4929
 9204TIP3    H249104   0.226   2.850   3.218  0.8667 -0.5007  3.1669
 9205TIP3   OH249105   6.392   1.778   2.054 -0.3376  0.0414 -0.0760
 9205TIP3    H149106   6.418   1.836   1.982 -1.3797 -0.3628 -0.7870
 9205TIP3    H249107   6.467   1.781   2.114 -0.3587  2.1459 -0.0652
 9206TIP3   OH249108   6.006   5.517  12.885  0.2803  0.4458 -0.3156
 9206TIP3    H149109   6.047   5.437  12.919 -0.6140 -0.4956 -1.3916
 9206TIP3    H249110   6.079   5.571  12.856  0.9682  0.5229  1.4274
 9207TIP3   OH249111   4.401   4.300   4.153  0.2493  0.5011  0.3106
 9207TIP3    H149112   4.437   4.353   4.082 -0.3793 -0.2222 -0.5699
 9207TIP3    H249113   4.357   4.227   4.109 -0.4261  0.2035  1.4301
 9208TIP3   OH249114   6.735   5.994   1.777 -0.6962  0.5461 -0.3329
 9208TIP3    H149115   6.737   5.945   1.695 -1.6806 -2.6184  1.3630
 9208TIP3    H249116   6.664   6.057   1.765 -2.5594 -1.5348 -1.1591
 9209TIP3   OH249117   6.182   2.456  16.778 -0.1555 -0.3134  0.7002
 9209TIP3    H149118   6.200   2.396  16.706  1.7525 -1.3555  1.9613
 9209TIP3    H249119   6.111   2.415  16.827 -1.9323  0.7255 -0.8492
 9210TIP3   OH249120   5.710   0.372  11.743  0.1642  0.0404 -0.2696
 9210TIP3    H149121   5.738   0.433  11.676 -0.3821 -0.7527 -1.2552
 9210TIP3    H249122   5.712   0.286  11.700  0.2777 -0.5518  0.8764
 9211TIP3   OH249123   4.601   5.112  16.892  0.3490 -0.3451  0.3000
 9211TIP3    H149124   4.620   5.019  16.886 -0.7795 -0.6169  0.6544
 9211TIP3    H249125   4.629   5.137  16.980  0.8661 -0.2932  0.1227
 9212TIP3   OH249126   2.309   2.714   5.161 -0.5055 -0.2680  0.8624
 9212TIP3    H149127   2.387   2.691   5.110 -0.7152  0.2858  0.2884
 9212TIP3    H249128   2.344   2.744   5.245 -0.0928  0.0063  0.5969
 9213TIP3   OH249129   5.651   5.894   3.223  0.4918  0.2839  0.7340
 9213TIP3    H149130   5.631   5.848   3.304  0.0923  0.5397  0.7815
 9213TIP3    H249131   5.687   5.827   3.165  0.9765  0.1423  1.1946
 9214TIP3   OH249132   1.018   1.404   5.650  0.2806  0.4639 -0.6529
 9214TIP3    H149133   0.980   1.316   5.662  2.2260 -0.3672 -0.0880
 9214TIP3    H249134   0.963   1.445   5.585 -1.5291 -0.6647  0.0816
 9215TIP3   OH249135   2.190   6.678  13.890  0.6664 -0.2197 -0.4277
 9215TIP3    H149136   2.112   6.623  13.894  0.3217  0.3398  1.0208
 9215TIP3    H249137   2.206   6.690  13.796 -1.4994  0.3706 -0.7602
 9216TIP3   OH249138   3.643   2.913  15.490  0.1087  0.0703 -0.6861
 9216TIP3    H149139   3.689   2.995  15.506 -0.1759  0.6942 -2.7748
 9216TIP3    H249140   3.641   2.905  15.395 -3.3883 -0.2854 -0.7120
 9217TIP3   OH249141   4.632   5.366  15.342  0.2445  0.2176 -0.3625
 9217TIP3    H149142   4.702   5.310  15.310 -0.8651 -1.4463  0.0023
 9217TIP3    H249143   4.627   5.347  15.436 -1.4087 -0.5544 -0.5746
 9218TIP3   OH249144   0.305   3.531  13.987  0.2077  0.1551  0.4307
 9218TIP3    H149145   0.231   3.511  14.044 -0.0985  1.2221  0.4280
 9218TIP3    H249146   0.288   3.483  13.907 -0.5032  0.4175  0.4218
 9219TIP3   OH249147   3.280   2.009   3.341  0.7278  0.0698  0.1118
 9219TIP3    H149148   3.204   2.018   3.399  2.1547 -0.5119  2.1822
 9219TIP3    H249149   3.335   2.084   3.361  1.4519 -0.3709 -0.1746
 9220TIP3   OH249150   3.463   2.616  16.129 -0.3221 -0.3953  0.3080
 9220TIP3    H149151   3.557   2.601  16.135 -0.3681 -0.9304 -0.1906
 9220TIP3    H249152   3.426   2.529  16.111 -0.9388 -0.2418  0.8004
 9221TIP3   OH249153   1.636   4.357   3.095  0.0055 -0.0785  0.0631
 9221TIP3    H149154   1.544   4.380   3.086 -0.3566  0.2368  3.5020
 9221TIP3    H249155   1.635   4.262   3.111  0.2434 -0.0372  0.3256
 9222TIP3   OH249156   5.622   2.078  16.980 -0.1981 -0.0205  0.8629
 9222TIP3    H149157   5.606   2.112  17.068  2.4715  1.1112  0.9943
 9222TIP3    H249158   5.680   2.003  16.994 -0.4441 -0.3649  0.0973
 9223TIP3   OH249159   2.180   2.303  11.954  0.0514  0.0755 -0.9282
 9223TIP3    H149160   2.152   2.315  11.863 -1.0215 -1.3276 -0.8146
 9223TIP3    H249161   2.109   2.341  12.006 -0.2271 -0.7719 -0.6709
 9224TIP3   OH249162   6.390   4.421   5.738 -0.7320  0.4705  0.3066
 9224TIP3    H149163   6.451   4.349   5.732 -0.9872  0.2767  0.0087
 9224TIP3    H249164   6.371   4.429   5.832 -0.8217  0.0544  0.3240
 9225TIP3   OH249165   2.766   0.917   2.961 -0.1908 -0.1647  0.6038
 9225TIP3    H149166   2.684   0.870   2.970  1.3954 -3.4914 -0.5216
 9225TIP3    H249167   2.814   0.898   3.042 -0.3827  1.5972  1.1748
 9226TIP3   OH249168   4.635   3.008  11.325 -0.8211 -0.2593  0.0725
 9226TIP3    H149169   4.719   3.008  11.371 -0.3245  1.9183 -0.6951
 9226TIP3    H249170   4.596   2.923  11.345  0.4141 -0.3213  2.5353
 9227TIP3   OH249171   5.824   0.032  10.554 -0.4856 -0.2666 -0.2311
 9227TIP3    H149172   5.817   0.115  10.507 -0.5665 -0.5519 -0.7289
 9227TIP3    H249173   5.845  -0.033  10.487 -0.1137 -0.6016  0.1999
 9228TIP3   OH249174   3.385   1.063   4.489  0.3771 -0.2198  0.0891
 9228TIP3    H149175   3.381   0.985   4.433  0.2714 -0.8044  0.8931
 9228TIP3    H249176   3.428   1.032   4.569  0.2981  0.5453  0.4283
 9229TIP3   OH249177   0.119   4.658  16.044  0.1398  0.3628  0.0880
 9229TIP3    H149178   0.114   4.713  16.122 -0.1577 -0.5561  0.7441
 9229TIP3    H249179   0.053   4.590  16.058 -0.6099  0.7242 -1.4313
 9230TIP3   OH249180   4.608   5.442   2.647 -0.0595  0.2732  0.3206
 9230TIP3    H149181   4.604   5.412   2.738  1.9063  0.0315  0.3797
 9230TIP3    H249182   4.701   5.438   2.625 -0.7145 -3.2491 -2.8670
 9231TIP3   OH249183   6.529   1.628   1.646 -0.3834 -0.2723  0.0577
 9231TIP3    H149184   6.452   1.571   1.651 -0.6637  0.1055  0.1383
 9231TIP3    H249185   6.586   1.586   1.582 -1.2919  0.1867 -1.0829
 9232TIP3   OH249186   2.381   6.099   0.823  0.3008  0.6380 -0.0277
 9232TIP3    H149187   2.311   6.135   0.878  2.1061  1.9821  1.4976
 9232TIP3    H249188   2.381   6.155   0.745 -0.6701  0.2599 -0.3146
 9233TIP3   OH249189   1.923   2.613  11.842 -0.1749  0.1100  0.0780
 9233TIP3    H149190   1.944   2.600  11.935  0.0979  0.2233  0.0334
 9233TIP3    H249191   1.838   2.571  11.831  0.8006 -1.8792 -0.1293
 9234TIP3   OH249192   5.841   0.322   4.603 -0.0754  0.4923 -0.4318
 9234TIP3    H149193   5.914   0.358   4.553  0.3501 -0.9033 -0.8837
 9234TIP3    H249194   5.780   0.289   4.537 -0.2542  0.0466 -0.0580
 9235TIP3   OH249195   6.581   5.887  14.381 -0.4887  0.0434  0.4201
 9235TIP3    H149196   6.493   5.894  14.418  0.3291  2.2253  2.2179
 9235TIP3    H249197   6.636   5.863  14.455  0.7237  0.9123 -0.1635
 9236TIP3   OH249198   3.657   0.328  16.709 -0.7777  0.2647 -0.1012
 9236TIP3    H149199   3.625   0.291  16.791 -0.8031  1.6640  0.5602
 9236TIP3    H249200   3.626   0.419  16.710 -0.4719  0.4112 -1.4935
 9237TIP3   OH249201   1.834   6.756  15.252 -0.1663 -0.1651 -0.2761
 9237TIP3    H149202   1.872   6.794  15.173 -0.7309  0.5292 -0.2292
 9237TIP3    H249203   1.849   6.662  15.244  3.1179  0.1686  0.5651
 9238TIP3   OH249204   5.867   1.749  14.013  0.0117 -0.1743 -0.3691
 9238TIP3    H149205   5.838   1.787  14.095 -1.9190 -1.8913 -0.1621
 9238TIP3    H249206   5.830   1.805  13.945  0.1080  0.2422 -0.0775
 9239TIP3   OH249207   1.182   1.852  14.155 -0.0415 -0.2523  0.2435
 9239TIP3    H149208   1.257   1.893  14.113 -0.8972  0.0220 -1.0771
 9239TIP3    H249209   1.203   1.758  14.156  0.0013 -0.2668 -0.8456
 9240TIP3   OH249210   6.503   0.339  12.468 -0.3397  0.0487  0.6479
 9240TIP3    H149211   6.497   0.402  12.396 -1.1998 -0.2225  0.4668
 9240TIP3    H249212   6.413   0.309  12.481  0.1859 -2.0198 -0.0605
 9241TIP3   OH249213   2.519   0.736   2.280  0.0640  0.2861  0.5159
 9241TIP3    H149214   2.615   0.741   2.287  0.1108  0.7353 -0.3198
 9241TIP3    H249215   2.488   0.817   2.318  0.0512  0.3946  0.2782
 9242TIP3   OH249216   3.450   4.997   4.752 -0.2360 -0.0993  0.0459
 9242TIP3    H149217   3.454   4.952   4.836 -0.2068  0.5200  0.3806
 9242TIP3    H249218   3.438   4.926   4.688  0.3962 -0.6318  0.4969
 9243TIP3   OH249219   1.557   1.268  16.813  0.2782  0.0388 -0.3118
 9243TIP3    H149220   1.636   1.227  16.849 -1.2960 -1.6389  1.4407
 9243TIP3    H249221   1.495   1.269  16.886 -0.6578  3.3778 -0.9843
 9244TIP3   OH249222   6.676   0.590  11.807 -0.5274  0.4415  0.1739
 9244TIP3    H149223   6.757   0.619  11.764 -0.7341  0.7041 -0.0484
 9244TIP3    H249224   6.606   0.619  11.747 -0.7769  0.1203  0.3107
 9245TIP3   OH249225   6.363   5.877  13.022  0.0274  0.1103 -0.5613
 9245TIP3    H149226   6.321   5.959  13.048 -0.8814 -0.4318 -0.2653
 9245TIP3    H249227   6.433   5.864  13.086  0.1612  0.6375 -0.5966
 9246TIP3   OH249228   1.372   1.009   1.133 -0.1116  0.2809  0.2181
 9246TIP3    H149229   1.372   1.019   1.038  1.1782 -1.6698 -0.0643
 9246TIP3    H249230   1.380   0.914   1.146 -3.0455  0.2227  2.3073
 9247TIP3   OH249231   6.158   6.098  13.223  0.2390  0.0895  0.7445
 9247TIP3    H149232   6.187   6.058  13.306  1.8909  0.4885  0.3947
 9247TIP3    H249233   6.234   6.147  13.193 -0.4848  0.2911 -0.8161
 9248TIP3   OH249234   2.816   4.225  15.294 -0.0090 -0.2078 -0.5329
 9248TIP3    H149235   2.724   4.228  15.269  0.5330 -1.0495 -2.9064
 9248TIP3    H249236   2.858   4.294  15.241  0.5821  1.0384  1.4469
 9249TIP3   OH249237   2.316   5.429   1.302 -0.6727  0.3999 -0.0752
 9249TIP3    H149238   2.233   5.437   1.349  1.6239  1.1880  4.3807
 9249TIP3    H249239   2.325   5.512   1.256 -1.2687  1.4376  1.5690
 9250TIP3   OH249240   3.314   1.549  13.371 -0.2668  0.0622  0.5987
 9250TIP3    H149241   3.315   1.509  13.458 -0.6864 -0.5684  0.3175
 9250TIP3    H249242   3.222   1.552  13.347 -0.0306 -1.6390 -0.6694
 9251TIP3   OH249243   2.968   5.087   5.637 -0.8422  0.3447 -0.3395
 9251TIP3    H149244   2.883   5.103   5.597 -0.9197 -2.2196 -1.3511
 9251TIP3    H249245   2.947   5.068   5.729 -1.5252 -1.2409 -0.7872
 9252TIP3   OH249246   5.504   5.895   2.790  0.2643  0.0658 -0.0842
 9252TIP3    H149247   5.586   5.915   2.744  0.8162 -1.6040  0.0907
 9252TIP3    H249248   5.448   5.856   2.722  0.0870  0.0674  0.0618
 9253TIP3   OH249249   4.300   0.244  16.885 -0.0154  0.0298  0.0019
 9253TIP3    H149250   4.345   0.274  16.964  1.3663 -0.3329 -0.6170
 9253TIP3    H249251   4.221   0.297  16.880  0.1553  0.4369  1.3237
 9254TIP3   OH249252   4.852   2.244   2.274  0.0868  0.5503  0.3985
 9254TIP3    H149253   4.789   2.178   2.245  0.8767  0.4714 -1.2321
 9254TIP3    H249254   4.876   2.216   2.363  2.7020 -3.2521 -1.2617
 9255TIP3   OH249255   0.185   6.587   0.374 -0.1165  0.8014 -0.3469
 9255TIP3    H149256   0.109   6.542   0.336  0.3467  0.7886 -1.2891
 9255TIP3    H249257   0.243   6.601   0.300  1.7817 -1.0945  0.6776
 9256TIP3   OH249258   0.993   6.729   5.831 -0.7176  0.0262  0.0260
 9256TIP3    H149259   1.061   6.793   5.847 -0.0487 -1.0386  1.7368
 9256TIP3    H249260   1.005   6.663   5.900 -1.5412 -1.7875 -1.4686
 9257TIP3   OH249261   0.477   1.171   2.925  0.0975  0.3151 -0.1874
 9257TIP3    H149262   0.495   1.088   2.881  0.0865  0.5439 -0.6306
 9257TIP3    H249263   0.525   1.236   2.874 -1.2247  0.8132 -0.8551
 9258TIP3   OH249264   5.107   3.101  15.096 -0.7970  0.3081  0.2935
 9258TIP3    H149265   5.131   3.190  15.125  0.7796 -0.3727  1.2232
 9258TIP3    H249266   5.158   3.044  15.153 -2.2700 -1.2224  0.1268
 9259TIP3   OH249267   4.997   1.013  13.240  0.2002 -0.4879  0.5956
 9259TIP3    H149268   5.027   1.038  13.327 -0.5974  0.4655  0.6192
 9259TIP3    H249269   4.943   1.086  13.211  2.2518  0.2663 -1.6484
 9260TIP3   OH249270   1.818   5.409  14.791  0.0576  0.4938  0.4113
 9260TIP3    H149271   1.913   5.394  14.790  0.7019  3.8577 -1.4222
 9260TIP3    H249272   1.808   5.493  14.835 -2.1027  0.2091  0.5356
 9261TIP3   OH249273   6.448   3.907   4.430  0.4836 -0.0166  0.4979
 9261TIP3    H149274   6.462   4.001   4.439  1.0710  0.0303 -0.6097
 9261TIP3    H249275   6.508   3.868   4.494  1.3740  0.3419 -0.0872
 9262TIP3   OH249276   3.177   4.461  16.644 -0.0645 -0.3350  0.5179
 9262TIP3    H149277   3.105   4.497  16.592 -1.2010 -1.4328  1.2712
 9262TIP3    H249278   3.152   4.479  16.735  0.8857 -0.2760  0.7796
 9263TIP3   OH249279   6.267   1.860   5.724 -0.6492  0.7595  0.1282
 9263TIP3    H149280   6.177   1.894   5.722 -0.7164  1.1094 -5.1453
 9263TIP3    H249281   6.317   1.921   5.670  2.1280 -0.9860  0.5285
 9264TIP3   OH249282   6.457   5.163  12.460 -0.0218  0.2523 -0.1819
 9264TIP3    H149283   6.377   5.214  12.475  0.3380  0.7191  0.2043
 9264TIP3    H249284   6.432   5.096  12.396 -0.7113  0.4108 -0.0850
 9265TIP3   OH249285   4.194   2.448   5.249 -0.2864 -0.1512 -0.4592
 9265TIP3    H149286   4.277   2.441   5.203 -1.5110 -2.2396 -2.6371
 9265TIP3    H249287   4.152   2.362   5.236 -2.5966  0.6529  0.9279
 9266TIP3   OH249288   1.893   2.413  16.549 -0.3945  0.3310  0.0887
 9266TIP3    H149289   1.944   2.491  16.569  1.3592 -0.3455 -1.4779
 9266TIP3    H249290   1.954   2.340  16.559 -1.7622 -0.7704  0.6822
 9267TIP3   OH249291   2.481   0.166  15.819  0.2764  0.1978  0.7381
 9267TIP3    H149292   2.410   0.112  15.785 -0.7817  1.1355  1.4005
 9267TIP3    H249293   2.520   0.114  15.889  1.4401 -1.0694 -0.7657
 9268TIP3   OH249294   1.172   5.002   2.985  0.3058 -0.1879  0.6087
 9268TIP3    H149295   1.253   4.952   2.992  0.9807  0.4851 -1.7116
 9268TIP3    H249296   1.112   4.944   2.937 -0.0615 -0.0493  0.8898
 9269TIP3   OH249297   6.773   5.230  13.600 -0.6197 -0.0102  0.1433
 9269TIP3    H149298   6.775   5.158  13.537  0.0135 -0.0901  0.2519
 9269TIP3    H249299   6.680   5.249  13.612 -0.9806 -2.4009  1.9246
 9270TIP3   OH249300   3.931   5.463   2.246  0.1143 -0.5874 -0.0939
 9270TIP3    H149301   3.979   5.522   2.304  0.1430 -2.4359  1.8898
 9270TIP3    H249302   3.954   5.375   2.277 -3.2924 -1.5871 -0.0213
 9271TIP3   OH249303   0.847   4.077  13.270  0.7469  0.0793  0.4260
 9271TIP3    H149304   0.881   4.112  13.188 -1.4190 -0.4341 -0.7861
 9271TIP3    H249305   0.768   4.128  13.287 -1.0701 -2.3896 -0.0385
 9272TIP3   OH249306   1.623   1.008  13.365 -0.7863 -0.0463  0.5332
 9272TIP3    H149307   1.554   0.972  13.310 -0.9729 -0.3470  0.9613
 9272TIP3    H249308   1.703   1.000  13.312 -1.1732  0.9217 -0.2355
 9273TIP3   OH249309   3.578   2.820   1.656  0.0607 -0.0276 -0.3225
 9273TIP3    H149310   3.514   2.748   1.654 -1.3432  1.1029  1.1985
 9273TIP3    H249311   3.625   2.807   1.738 -0.0585  0.6366 -0.1410
 9274TIP3   OH249312   1.377   2.103  12.737 -0.0664 -0.7279  0.1814
 9274TIP3    H149313   1.409   2.091  12.648  0.5307 -0.5055  0.3592
 9274TIP3    H249314   1.282   2.110  12.728 -0.1042 -1.7577 -0.3170
 9275TIP3   OH249315   3.175   0.375   5.547 -0.1708  0.2241  0.2182
 9275TIP3    H149316   3.236   0.322   5.494  0.9705  2.2213 -0.5941
 9275TIP3    H249317   3.091   0.330   5.538  1.0145 -2.3499  0.9385
 9276TIP3   OH249318   4.756   5.941   1.413  0.1758 -0.1408  0.6489
 9276TIP3    H149319   4.846   5.926   1.385  0.5492  0.1659  1.6292
 9276TIP3    H249320   4.722   5.853   1.434  0.2228 -0.2620  0.2168
 9277TIP3   OH249321   5.080   0.298   5.366  0.3377 -0.6363  0.1240
 9277TIP3    H149322   5.151   0.281   5.304  1.2701  0.1984  0.9355
 9277TIP3    H249323   5.071   0.393   5.367 -3.2108 -0.7192 -2.5747
 9278TIP3   OH249324   5.008   3.888   1.988  0.0396 -1.0525  0.2340
 9278TIP3    H149325   4.962   3.934   1.918 -1.1803 -1.7532  0.5467
 9278TIP3    H249326   4.960   3.806   1.998  0.7226 -1.3355  1.3092
 9279TIP3   OH249327   1.106   6.479  16.771 -0.4180 -0.0362 -0.1465
 9279TIP3    H149328   1.085   6.390  16.797  1.7519 -0.3136  0.9114
 9279TIP3    H249329   1.021   6.522  16.759 -1.5135 -2.4728 -1.6450
 9280TIP3   OH249330   5.626   6.194   4.257 -0.0428 -0.3273  0.1025
 9280TIP3    H149331   5.621   6.105   4.221  0.1524  0.1460 -1.1465
 9280TIP3    H249332   5.634   6.251   4.180  1.0671  0.6875  0.9221
 9281TIP3   OH249333   1.236   5.686  16.304 -0.7577  0.0740 -0.0031
 9281TIP3    H149334   1.274   5.668  16.218 -1.6662 -1.5009 -0.1143
 9281TIP3    H249335   1.146   5.655  16.298 -0.7383 -0.4261  1.6323
 9282TIP3   OH249336   3.667   5.564   5.077 -0.0759 -0.2721  0.1109
 9282TIP3    H149337   3.589   5.539   5.126 -1.3033 -0.5479 -1.8427
 9282TIP3    H249338   3.696   5.646   5.117 -2.8921  1.2085 -0.6399
 9283TIP3   OH249339   0.792   0.199  13.871 -0.1182  0.3869  0.2769
 9283TIP3    H149340   0.703   0.191  13.835 -0.9785  0.8665  2.1923
 9283TIP3    H249341   0.848   0.197  13.794 -1.6405 -1.7043 -0.9049
 9284TIP3   OH249342   0.346   2.101   3.938 -0.2184  0.1281 -0.2794
 9284TIP3    H149343   0.309   2.188   3.949  0.4918  0.1332  3.2951
 9284TIP3    H249344   0.440   2.114   3.946 -0.1847 -1.0663  2.3213
 9285TIP3   OH249345   4.217   3.500  10.906  0.8037  0.1172  0.4010
 9285TIP3    H149346   4.187   3.589  10.924  0.8108 -0.1097  1.6766
 9285TIP3    H249347   4.303   3.510  10.865  2.0601  0.7014  2.9742
 9286TIP3   OH249348   0.766   0.223   4.720  0.0269  0.3580  0.2075
 9286TIP3    H149349   0.790   0.280   4.793  1.0944  0.7262 -0.3993
 9286TIP3    H249350   0.850   0.195   4.683 -0.4168 -2.7270  1.2719
 9287TIP3   OH249351   1.326   5.254  16.272 -0.3070 -0.1730  0.3495
 9287TIP3    H149352   1.297   5.163  16.285 -0.1053 -0.0910  1.4446
 9287TIP3    H249353   1.318   5.268  16.177  0.5449 -1.6413  0.0245
 9288TIP3   OH249354   0.697   0.305  13.076  0.0160  0.1222 -0.6134
 9288TIP3    H149355   0.611   0.345  13.092  0.1491 -0.5385  2.2867
 9288TIP3    H249356   0.678   0.211  13.071  0.6847 -0.2204  1.9548
 9289TIP3   OH249357   1.319   6.231  13.897 -0.4182 -0.2908  0.9935
 9289TIP3    H149358   1.229   6.265  13.894 -0.1456  0.4874  1.2361
 9289TIP3    H249359   1.330   6.201  13.987 -1.1261 -2.3972  0.4208
 9290TIP3   OH249360   1.824   5.731  12.474 -0.1411  0.1016  0.2883
 9290TIP3    H149361   1.802   5.824  12.476  0.7854  0.3498  2.9442
 9290TIP3    H249362   1.917   5.728  12.456 -0.4541 -0.4429 -1.3973
 9291TIP3   OH249363   5.530   1.303   5.539 -0.4292  0.6426 -0.2360
 9291TIP3    H149364   5.443   1.331   5.512 -1.5655 -2.3133 -0.0329
 9291TIP3    H249365   5.559   1.245   5.469  1.3586  1.4865 -0.2403
 9292TIP3   OH249366   3.261   4.868  12.444 -0.2180 -0.1718 -0.2495
 9292TIP3    H149367   3.324   4.805  12.408 -0.9717 -0.8577 -0.4021
 9292TIP3    H249368   3.315   4.940  12.476  0.4953  0.3602 -2.4940
 9293TIP3   OH249369   4.354   1.419  11.995  0.8225 -0.4053 -0.2852
 9293TIP3    H149370   4.288   1.382  12.054  1.0944 -0.8544 -0.2526
 9293TIP3    H249371   4.346   1.367  11.915  0.8542 -0.1875 -0.4306
 9294TIP3   OH249372   1.391   1.033  12.126 -0.0130 -0.8055  0.0163
 9294TIP3    H149373   1.365   1.079  12.046  0.4600  0.8580  0.7611
 9294TIP3    H249374   1.308   1.014  12.171 -0.2057 -0.3211 -0.1270
 9295TIP3   OH249375   5.277   1.381  12.446  0.4948  0.4954  0.7779
 9295TIP3    H149376   5.298   1.446  12.514  1.2435  0.9667  0.1179
 9295TIP3    H249377   5.218   1.426  12.386 -1.1404 -0.2966  1.7138
 9296TIP3   OH249378   1.323   0.150  10.273  0.1937  0.6427 -0.1891
 9296TIP3    H149379   1.305   0.172  10.365  0.1265  0.5121 -0.1708
 9296TIP3    H249380   1.415   0.176  10.260  0.4191  0.0329  0.1154
 9297TIP3   OH249381   1.824   0.490   0.455 -0.4825 -0.3684 -0.2162
 9297TIP3    H149382   1.917   0.490   0.433 -0.3262  1.2025  0.3307
 9297TIP3    H249383   1.820   0.529   0.542 -1.5349 -1.8671  0.4536
 9298TIP3   OH249384   2.223   0.216  15.908 -0.1131  0.2901  0.1873
 9298TIP3    H149385   2.248   0.157  15.837 -0.4636 -1.3549  1.3749
 9298TIP3    H249386   2.303   0.266  15.926  0.4992 -0.5364 -0.1706
 9299TIP3   OH249387   3.534   1.862   0.049 -0.0551  0.1212 -0.1483
 9299TIP3    H149388   3.591   1.810   0.105 -0.5024 -0.3604 -0.1436
 9299TIP3    H249389   3.449   1.861   0.092 -0.0200  1.0520 -0.0260
 9300TIP3   OH249390   6.576   3.612  16.115  0.5225  0.5424 -0.5724
 9300TIP3    H149391   6.486   3.644  16.108 -0.0707 -0.9635 -0.1121
 9300TIP3    H249392   6.618   3.641  16.033 -0.4580  0.9789 -0.9331
 9301TIP3   OH249393   0.568   4.363   3.005  0.0792 -0.2220 -0.0925
 9301TIP3    H149394   0.494   4.391   2.952  0.0003 -1.9864 -1.0029
 9301TIP3    H249395   0.643   4.408   2.967 -0.2030 -0.2757 -0.7361
 9302TIP3   OH249396   5.226   4.688   1.122  0.0371 -0.1243  0.6017
 9302TIP3    H149397   5.247   4.722   1.209 -1.5944  1.1499  0.5454
 9302TIP3    H249398   5.249   4.758   1.062 -0.2014 -0.4357  0.1417
 9303TIP3   OH249399   5.161   1.568   2.529  0.3073  0.0510 -0.3633
 9303TIP3    H149400   5.110   1.509   2.474 -0.8517  0.7051 -0.0363
 9303TIP3    H249401   5.189   1.514   2.602 -1.3531  0.0380  0.3071
 9304TIP3   OH249402   0.589   6.038  13.875 -0.2091 -0.4829  0.2864
 9304TIP3    H149403   0.552   6.094  13.944 -0.7461 -0.2868 -0.1602
 9304TIP3    H249404   0.676   6.074  13.859  0.6570 -1.5838  2.0897
 9305TIP3   OH249405   5.216   5.151   4.357  0.1611  0.1006 -0.6246
 9305TIP3    H149406   5.302   5.184   4.330  1.0202 -1.2633  0.3189
 9305TIP3    H249407   5.202   5.074   4.303 -0.5306  0.3579 -0.8280
 9306TIP3   OH249408   4.214   2.253   3.899 -0.0647 -0.0480  0.2041
 9306TIP3    H149409   4.167   2.223   3.977 -1.9121 -0.0981 -0.8887
 9306TIP3    H249410   4.243   2.342   3.922 -3.6253  1.3542 -0.1961
 9307TIP3   OH249411   0.584   4.754  12.368 -0.1349 -0.3539 -0.3894
 9307TIP3    H149412   0.653   4.701  12.329  0.5446  0.9350 -0.9613
 9307TIP3    H249413   0.611   4.766  12.459 -0.6994 -1.6296 -0.0243
 9308TIP3   OH249414   6.681   3.101  10.592 -0.1227 -0.2081  0.0395
 9308TIP3    H149415   6.652   3.184  10.554 -1.3910 -0.0431  1.2668
 9308TIP3    H249416   6.776   3.110  10.598 -0.2087  1.0415 -0.1317
 9309TIP3   OH249417   5.672   3.665   2.179  0.1533 -0.2086 -0.4259
 9309TIP3    H149418   5.680   3.582   2.131  0.8639  0.2026 -1.0553
 9309TIP3    H249419   5.755   3.674   2.226 -0.3408 -0.3590  0.4894
 9310TIP3   OH249420   0.059   4.501   2.220 -0.2054 -0.2089  0.4079
 9310TIP3    H149421  -0.007   4.566   2.197  0.3882  0.5671  0.8590
 9310TIP3    H249422   0.097   4.533   2.301  1.3198 -0.1870 -0.2812
 9311TIP3   OH249423   5.902   5.379   1.592 -0.1976 -0.4166  0.4467
 9311TIP3    H149424   5.924   5.292   1.624  2.3355 -0.1334 -0.3256
 9311TIP3    H249425   5.892   5.431   1.672 -2.1048 -1.4247  0.9270
 9312TIP3   OH249426   2.310   3.895  16.867 -0.2265 -0.1965  0.0711
 9312TIP3    H149427   2.357   3.948  16.932 -2.5710  2.2282  0.0044
 9312TIP3    H249428   2.356   3.912  16.785 -0.7576  1.6616  0.1016
 9313TIP3   OH249429   2.747   0.357  11.058 -0.1682 -0.6021  0.2510
 9313TIP3    H149430   2.693   0.399  10.992  0.6036 -0.5930 -0.3848
 9313TIP3    H249431   2.693   0.286  11.092 -0.1665 -1.3301 -1.1953
 9314TIP3   OH249432   2.081   1.795  15.494 -0.4991  0.6352  0.6296
 9314TIP3    H149433   2.067   1.890  15.493 -1.0442  0.5493  0.0887
 9314TIP3    H249434   2.027   1.761  15.423 -0.4166 -0.1011  0.9073
 9315TIP3   OH249435   2.368   3.762  14.037 -0.2128 -0.5232 -0.4559
 9315TIP3    H149436   2.344   3.672  14.059 -2.0405 -0.3173 -1.3893
 9315TIP3    H249437   2.305   3.788  13.969  0.5750  1.3019 -0.5580
 9316TIP3   OH249438   0.462   2.091   2.192 -0.3854  0.3007  0.2792
 9316TIP3    H149439   0.484   1.999   2.210 -1.5575 -0.2480 -0.8683
 9316TIP3    H249440   0.483   2.103   2.099 -0.4752  1.1248  0.3578
 9317TIP3   OH249441   2.344   4.528   4.851 -0.3843  0.2103  0.2553
 9317TIP3    H149442   2.436   4.524   4.825 -0.7857  0.5890 -1.3550
 9317TIP3    H249443   2.333   4.455   4.911  1.0706  0.4512  0.8601
 9318TIP3   OH249444   4.154   5.004  11.309 -0.0121 -0.0246  0.1558
 9318TIP3    H149445   4.066   5.002  11.271 -0.0091 -1.6373  0.1765
 9318TIP3    H249446   4.166   4.917  11.348  1.0683  0.6343  1.3758
 9319TIP3   OH249447   2.328   5.831  15.475 -0.1115  0.4362 -0.6432
 9319TIP3    H149448   2.396   5.763  15.486 -1.2734 -0.4637  1.3945
 9319TIP3    H249449   2.279   5.802  15.398  1.5711  0.9700 -2.0112
 9320TIP3   OH249450   5.046   3.693  11.574  0.3247 -0.1821 -0.2794
 9320TIP3    H149451   5.033   3.675  11.481  1.3288 -0.3114 -0.4057
 9320TIP3    H249452   4.974   3.647  11.618 -0.9182  0.9418 -1.0639
 9321TIP3   OH249453   2.250   6.629  12.095 -0.3854 -0.2618  1.1392
 9321TIP3    H149454   2.272   6.704  12.040  1.8952 -1.6718  0.0433
 9321TIP3    H249455   2.160   6.608  12.071  0.0324  0.1171 -0.9373
 9322TIP3   OH249456   2.258   5.917   6.506 -0.3797 -0.1116 -0.2587
 9322TIP3    H149457   2.228   5.983   6.442 -0.3754 -0.1252 -0.2749
 9322TIP3    H249458   2.178   5.872   6.532 -0.7151  1.3949  1.4600
 9323TIP3   OH249459   4.506   6.661   0.840 -0.4329 -0.3911  0.8238
 9323TIP3    H149460   4.451   6.696   0.770  1.6029 -1.7544 -1.6162
 9323TIP3    H249461   4.482   6.568   0.845  1.4759 -0.9869 -0.2251
 9324TIP3   OH249462   5.936   4.626   4.986 -0.6790 -0.6757  0.2236
 9324TIP3    H149463   5.943   4.603   4.894  0.6312  0.2769  0.0631
 9324TIP3    H249464   6.026   4.646   5.013 -1.2371  0.4863  1.3157
 9325TIP3   OH249465   5.046   4.728   3.735  0.2507  0.6622  0.1998
 9325TIP3    H149466   5.123   4.727   3.678  0.9497  0.4076  1.1329
 9325TIP3    H249467   4.983   4.782   3.688 -0.0620 -1.3635 -1.9249
 9326TIP3   OH249468   1.446   2.945   1.690 -0.1112 -0.0726  0.1517
 9326TIP3    H149469   1.489   2.929   1.606  0.3558  0.6000  0.2511
 9326TIP3    H249470   1.359   2.976   1.668 -0.3336 -0.8237 -0.0626
 9327TIP3   OH249471   0.185   1.736   0.230  0.3038 -1.0696 -0.0874
 9327TIP3    H149472   0.128   1.810   0.210  1.1165 -0.4110 -0.0293
 9327TIP3    H249473   0.174   1.677   0.156 -0.1657 -0.7771 -0.2573
 9328TIP3   OH249474   3.372   0.866   0.235 -0.3832 -0.5359 -0.1619
 9328TIP3    H149475   3.375   0.796   0.170  0.9196 -1.2089  0.5683
 9328TIP3    H249476   3.304   0.838   0.297 -1.3581 -0.0805 -1.0143
 9329TIP3   OH249477   3.050   3.380   5.241  0.3827 -0.1484 -0.4338
 9329TIP3    H149478   2.977   3.330   5.278  0.9659 -1.8907 -1.4662
 9329TIP3    H249479   3.111   3.391   5.314  0.4332 -1.3986 -0.2491
 9330TIP3   OH249480   1.267   0.054  11.892  0.0287 -0.4987  0.5727
 9330TIP3    H149481   1.192   0.051  11.951 -0.2275 -1.2659  0.2236
 9330TIP3    H249482   1.343   0.063  11.950 -0.3396  0.5908  0.9108
 9331TIP3   OH249483   4.421   6.240   1.786  0.4903  0.4716 -0.0954
 9331TIP3    H149484   4.442   6.151   1.760 -0.1742  0.4869 -0.6978
 9331TIP3    H249485   4.357   6.231   1.857  0.1695  0.4708 -0.3831
 9332TIP3   OH249486   4.672   5.040   3.773  0.0948 -0.4649 -0.6054
 9332TIP3    H149487   4.703   5.003   3.855 -1.5746 -1.2106 -0.2663
 9332TIP3    H249488   4.719   4.990   3.705  0.6003 -0.6576 -0.1233
 9333TIP3   OH249489   5.727   3.609   4.793 -0.1389 -0.3500  0.2508
 9333TIP3    H149490   5.701   3.529   4.747  0.0927 -1.0569  1.3147
 9333TIP3    H249491   5.645   3.647   4.825 -0.2565 -0.1136 -0.3304
 9334TIP3   OH249492   6.562   4.924  16.668  0.3302  0.1143 -0.3735
 9334TIP3    H149493   6.506   4.861  16.623 -0.0005 -0.1578  0.4086
 9334TIP3    H249494   6.562   4.896  16.759  1.8883  0.0118 -0.3829
 9335TIP3   OH249495   3.688   3.800  16.774  0.2458 -0.2635  0.1382
 9335TIP3    H149496   3.732   3.880  16.747 -0.1342 -0.4101 -0.9643
 9335TIP3    H249497   3.757   3.745  16.811  1.0043 -0.4363 -1.4272
 9336TIP3   OH249498   4.500   4.428   0.010  0.0741 -0.8575  0.5467
 9336TIP3    H149499   4.591   4.418   0.036  0.1059  0.8891  1.2145
 9336TIP3    H249500   4.451   4.430   0.092 -0.3907 -0.2105  0.2596
 9337TIP3   OH249501   2.738   1.406  16.672 -0.2791  0.0052 -0.2659
 9337TIP3    H149502   2.693   1.448  16.599 -1.0870  0.1231  0.2898
 9337TIP3    H249503   2.689   1.433  16.750  1.7779  1.5759  0.5598
 9338TIP3   OH249504   5.263   3.546   5.276  0.0468  0.5861 -0.8454
 9338TIP3    H149505   5.197   3.585   5.218 -0.0028  0.1571 -1.0804
 9338TIP3    H249506   5.213   3.487   5.333  0.1417  0.7491 -0.5932
 9339TIP3   OH249507   4.263   0.840   2.762 -0.3898 -0.1059  0.0184
 9339TIP3    H149508   4.202   0.858   2.833 -0.2974 -0.2061  0.1240
 9339TIP3    H249509   4.208   0.818   2.687 -0.4974  0.4470 -0.0647
 9340TIP3   OH249510   3.316   2.246  14.651  0.3520 -0.2778  0.4070
 9340TIP3    H149511   3.396   2.195  14.660  0.5804 -0.0348 -0.1836
 9340TIP3    H249512   3.330   2.299  14.573 -1.4023 -2.1263 -1.3105
 9341TIP3   OH249513   4.067   4.766   1.191  0.1560  0.0629 -0.1571
 9341TIP3    H149514   4.151   4.746   1.232  0.7302  1.9201 -0.3362
 9341TIP3    H249515   4.002   4.743   1.258  0.9869  1.5714  1.2382
 9342TIP3   OH249516   1.782   3.283   3.041  0.4324  0.4481 -0.6841
 9342TIP3    H149517   1.780   3.369   3.000  1.4383  0.8403  0.0533
 9342TIP3    H249518   1.849   3.235   2.993  2.0931  1.1268  0.8383
 9343TIP3   OH249519   5.266   5.654  15.344 -0.6733 -0.2984  0.6816
 9343TIP3    H149520   5.256   5.600  15.266  0.2089  0.2926  0.1444
 9343TIP3    H249521   5.264   5.744  15.311  1.2016 -0.0558  1.1316
 9344TIP3   OH249522   6.085   6.311   1.466  0.3945  0.1293 -0.6124
 9344TIP3    H149523   6.014   6.374   1.472 -0.1696 -0.5342 -0.1097
 9344TIP3    H249524   6.091   6.291   1.372  0.9982  1.3758 -0.8547
 9345TIP3   OH249525   0.686   3.732   5.733 -0.1664  0.3218  0.7777
 9345TIP3    H149526   0.616   3.726   5.668  0.6041 -0.6358 -0.0021
 9345TIP3    H249527   0.706   3.825   5.739 -0.6807  0.4782  0.1078
 9346TIP3   OH249528   6.070   6.473  15.852 -0.3376  0.0165 -0.1351
 9346TIP3    H149529   6.038   6.508  15.936 -0.1321 -1.2124  0.4695
 9346TIP3    H249530   6.127   6.542  15.818 -2.7573  1.8422 -0.7466
 9347TIP3   OH249531   3.753   3.321  10.405  0.2526  0.0680  0.0977
 9347TIP3    H149532   3.704   3.382  10.460  0.4982 -0.1686  0.5855
 9347TIP3    H249533   3.816   3.376  10.359 -0.2175  0.3227 -0.2595
 9348TIP3   OH249534   4.362   6.728   5.091 -0.0469 -0.4218 -0.0299
 9348TIP3    H149535   4.364   6.638   5.058  0.7602 -0.9024  1.2583
 9348TIP3    H249536   4.292   6.729   5.156 -1.0667  0.3027 -1.0928
 9349TIP3   OH249537   2.887   4.547   0.156 -0.6246 -0.2767  0.0583
 9349TIP3    H149538   2.872   4.592   0.240  3.2778 -0.2616  0.9594
 9349TIP3    H249539   2.849   4.605   0.090 -0.6713  1.5304  1.5878
 9350TIP3   OH249540   5.133   1.399  13.268 -0.3200  0.2548 -0.4167
 9350TIP3    H149541   5.195   1.331  13.243  0.3786  0.3134  1.0370
 9350TIP3    H249542   5.176   1.481  13.243 -1.1977  0.1841 -2.2445
 9351TIP3   OH249543   2.571   1.501  12.454  0.4722  0.1276  0.2502
 9351TIP3    H149544   2.618   1.579  12.485 -0.3746  0.4259  0.8093
 9351TIP3    H249545   2.529   1.530  12.373  1.6719 -0.2992 -0.5576
 9352TIP3   OH249546   3.821   4.076   4.779 -0.0639  0.4420  0.1291
 9352TIP3    H149547   3.910   4.050   4.800 -0.2249  0.6879  1.2196
 9352TIP3    H249548   3.766   4.028   4.842 -0.7127  0.1761 -0.6220
 9353TIP3   OH249549   5.592   5.494   1.602  0.2813  0.1963  0.2268
 9353TIP3    H149550   5.622   5.541   1.680  2.8089  1.2086 -1.2376
 9353TIP3    H249551   5.574   5.563   1.538 -0.3576 -0.6772 -0.5693
 9354TIP3   OH249552   0.907   1.625   3.013 -0.4704 -0.0130 -0.4112
 9354TIP3    H149553   0.985   1.682   3.011  0.6373 -1.4747 -0.3262
 9354TIP3    H249554   0.840   1.676   2.966  0.6155  1.1624 -0.7599
 9355TIP3   OH249555   2.844   0.765   3.458 -0.4000  0.2191 -0.1103
 9355TIP3    H149556   2.933   0.770   3.495 -0.6668  1.4877  0.4179
 9355TIP3    H249557   2.805   0.850   3.480 -0.8075  0.7835 -2.7362
 9356TIP3   OH249558   5.558   1.454  17.109  0.4292 -0.3793 -0.2225
 9356TIP3    H149559   5.495   1.516  17.073 -1.4745 -1.4445  1.0607
 9356TIP3    H249560   5.568   1.387  17.042 -0.1517 -0.4156 -0.2743
 9357TIP3   OH249561   4.960   0.152   0.460 -0.3143  0.5955  0.2335
 9357TIP3    H149562   4.931   0.128   0.548  1.5190  0.3286  0.8164
 9357TIP3    H249563   4.879   0.163   0.410 -1.3784 -1.6469  1.3009
 9358TIP3   OH249564   4.934   4.988   1.718  0.2075  0.0321 -0.0665
 9358TIP3    H149565   4.992   4.923   1.678  0.7536  1.5292 -1.9015
 9358TIP3    H249566   4.871   4.937   1.769  1.1849 -1.8431 -0.6456
 9359TIP3   OH249567   0.132   4.916   1.056  0.4939  0.2688  0.5590
 9359TIP3    H149568   0.207   4.865   1.086 -0.3007 -0.7613  0.8563
 9359TIP3    H249569   0.100   4.959   1.135  0.7913  0.7426  0.4240
 9360TIP3   OH249570   0.800   4.690  14.243  0.2575  0.3125 -0.0790
 9360TIP3    H149571   0.889   4.666  14.216  0.3679 -0.2450  0.7542
 9360TIP3    H249572   0.772   4.754  14.177  0.7340 -0.5528 -1.1619
 9361TIP3   OH249573   0.457   0.378   5.743  0.1183 -0.0829  0.2278
 9361TIP3    H149574   0.379   0.324   5.727  1.5951 -2.3877  0.3244
 9361TIP3    H249575   0.515   0.322   5.795  3.0834  0.3148 -2.3242
 9362TIP3   OH249576   6.035   1.609  16.304 -0.6000  0.2046 -0.3802
 9362TIP3    H149577   5.945   1.632  16.329 -1.1656 -0.8631 -1.3224
 9362TIP3    H249578   6.029   1.585  16.212  0.5316 -0.4990 -0.2948
 9363TIP3   OH249579   1.283   6.367   4.829  0.3976 -0.4376  0.0006
 9363TIP3    H149580   1.208   6.418   4.860  1.0959  0.5680  0.0793
 9363TIP3    H249581   1.348   6.432   4.804  2.1968 -1.2457  2.2306
 9364TIP3   OH249582   3.259   2.474   4.217 -0.1585  0.4414 -0.4844
 9364TIP3    H149583   3.217   2.536   4.276  0.6708  0.4458  0.1192
 9364TIP3    H249584   3.243   2.388   4.256  2.6236  0.6019  1.2702
 9365TIP3   OH249585   3.318   3.695   4.231  0.1374  0.5857 -0.4175
 9365TIP3    H149586   3.406   3.731   4.240  0.4220  0.0129 -0.8772
 9365TIP3    H249587   3.310   3.634   4.305  1.0984 -1.3030 -1.7861
 9366TIP3   OH249588   5.861   3.752   1.254  0.2929  0.5731  0.1805
 9366TIP3    H149589   5.800   3.712   1.192 -0.2980  0.7219  0.6541
 9366TIP3    H249590   5.913   3.679   1.287  1.4922  0.6413 -1.4020
 9367TIP3   OH249591   4.029   3.029   5.026 -0.2605  0.0917  0.2704
 9367TIP3    H149592   3.974   2.968   4.978  1.2465 -1.5402  0.5239
 9367TIP3    H249593   4.006   3.115   4.991 -0.7517 -0.8342 -1.8219
 9368TIP3   OH249594   2.200   1.008  12.926  0.2005 -0.2268  0.6785
 9368TIP3    H149595   2.138   0.950  12.881 -0.1426 -0.5631  1.5484
 9368TIP3    H249596   2.233   0.955  12.999  2.0295 -0.2735 -0.1467
 9369TIP3   OH249597   3.785   6.023  13.335  0.0439  0.4971 -0.7837
 9369TIP3    H149598   3.852   6.084  13.303 -0.0008  0.3259 -1.2066
 9369TIP3    H249599   3.703   6.056  13.299  0.0344  0.1218 -1.1071
 9370TIP3   OH249600   2.896   0.050   5.008  0.2616  0.0954 -0.6851
 9370TIP3    H149601   2.833   0.072   5.077  0.3930  0.8111 -0.7787
 9370TIP3    H249602   2.969   0.009   5.055 -1.0654 -2.6073 -0.7856
 9371TIP3   OH249603   2.460   2.893  15.282  0.6122  0.1308 -0.6602
 9371TIP3    H149604   2.497   2.811  15.249  0.5695  0.8217 -2.5755
 9371TIP3    H249605   2.500   2.961  15.228 -0.1721  1.2786  0.1476
 9372TIP3   OH249606   2.364   6.331   0.117 -0.8698  0.0288 -0.2864
 9372TIP3    H149607   2.359   6.415   0.163  1.2856  0.9304 -1.5160
 9372TIP3    H249608   2.320   6.347   0.033 -0.0890  0.0915 -0.6953
 9373TIP3   OH249609   3.582   3.853  14.423 -0.1652  0.2860 -0.5687
 9373TIP3    H149610   3.595   3.943  14.393 -0.3875 -0.1323 -2.0419
 9373TIP3    H249611   3.577   3.859  14.518  0.1979  1.7756 -0.6184
 9374TIP3   OH249612   5.921   0.409  12.090  0.2501  0.5543  0.1274
 9374TIP3    H149613   5.854   0.342  12.108 -1.1916  2.1923  1.3137
 9374TIP3    H249614   5.892   0.451  12.009  0.2143  0.7890  0.2580
 9375TIP3   OH249615   1.598   2.764  12.285 -0.4099  0.5807 -0.0946
 9375TIP3    H149616   1.553   2.730  12.207 -1.1364 -1.7037  1.2313
 9375TIP3    H249617   1.531   2.815  12.331 -0.4330  0.6445 -0.1988
 9376TIP3   OH249618   0.323   0.631   5.881 -0.2006 -0.5745 -0.2618
 9376TIP3    H149619   0.255   0.576   5.920 -0.6663 -0.0045 -0.2506
 9376TIP3    H249620   0.403   0.605   5.926  0.1332 -3.1935 -2.1353
 9377TIP3   OH249621   1.895   1.518   4.982 -0.1238  0.1404 -0.1700
 9377TIP3    H149622   1.823   1.463   5.013  0.9835 -2.0748 -1.2592
 9377TIP3    H249623   1.943   1.462   4.920  0.7293  2.5806 -1.8766
 9378TIP3   OH249624   1.719   0.135  16.416 -0.8476  0.7288 -0.4014
 9378TIP3    H149625   1.685   0.112  16.330  2.0866 -0.7247 -1.3221
 9378TIP3    H249626   1.721   0.052  16.464 -1.6729  1.3791  0.8125
 9379TIP3   OH249627   0.801   6.229  15.038  0.3333  0.0705 -0.1337
 9379TIP3    H149628   0.832   6.194  14.955 -1.0543  0.8799 -1.0385
 9379TIP3    H249629   0.852   6.183  15.104  2.3837  0.3264 -1.4567
 9380TIP3   OH249630   6.533   5.556   5.118  0.1216  0.1841 -0.2556
 9380TIP3    H149631   6.612   5.557   5.063 -0.2333 -0.8086 -0.8088
 9380TIP3    H249632   6.538   5.472   5.164 -1.5700 -0.7959 -1.7497
 9381TIP3   OH249633   0.552   5.021  10.667 -0.6466 -0.0762 -0.6776
 9381TIP3    H149634   0.638   5.063  10.659 -0.7014  0.7862  2.1503
 9381TIP3    H249635   0.489   5.093  10.665 -1.1224 -0.4784 -0.5591
 9382TIP3   OH249636   2.909   3.841   0.700 -0.2724 -0.1580  0.3562
 9382TIP3    H149637   2.907   3.748   0.676  0.4899  0.1997 -1.2500
 9382TIP3    H249638   2.827   3.876   0.667 -1.4512 -0.5647  2.6148
 9383TIP3   OH249639   2.163   0.306  15.456 -0.1909 -0.2066 -0.6579
 9383TIP3    H149640   2.149   0.212  15.449  1.7083 -0.5586 -0.2847
 9383TIP3    H249641   2.128   0.329  15.543  1.4567 -1.0355  0.2624
 9384TIP3   OH249642   3.101   2.208  15.736  0.1435 -0.5773 -0.8171
 9384TIP3    H149643   3.152   2.274  15.782 -1.9086  0.7609 -0.3383
 9384TIP3    H249644   3.011   2.241  15.738 -0.6159 -2.3409 -2.4729
 9385TIP3   OH249645   3.743   6.834   6.420  0.0399  0.1618  0.8348
 9385TIP3    H149646   3.671   6.796   6.371  0.3832 -1.2403  1.3844
 9385TIP3    H249647   3.799   6.874   6.353 -0.8635  0.6469  0.3456
 9386TIP3   OH249648   2.855   4.685  11.181 -0.2917  0.0360  0.2761
 9386TIP3    H149649   2.770   4.723  11.205  0.2714  1.3903  0.2503
 9386TIP3    H249650   2.919   4.750  11.211  0.7230 -0.8693  0.1170
 9387TIP3   OH249651   2.468   2.332   0.336  0.5805 -0.2558  0.0761
 9387TIP3    H149652   2.450   2.244   0.302 -1.3444  0.5844 -1.2522
 9387TIP3    H249653   2.395   2.351   0.395  0.9681  0.4697  0.3428
 9388TIP3   OH249654   3.597   5.926  15.976  0.1967 -0.1060  0.0112
 9388TIP3    H149655   3.569   6.003  16.026  0.7730  0.5917 -0.7085
 9388TIP3    H249656   3.691   5.919  15.995  0.0466 -0.9528  0.4773
 9389TIP3   OH249657   6.713   2.041  16.797 -0.0142 -0.0390  0.6980
 9389TIP3    H149658   6.636   2.088  16.830  0.5312  0.4736  1.2830
 9389TIP3    H249659   6.688   2.012  16.709 -1.2839 -0.9045  1.3157
 9390TIP3   OH249660   4.327   3.453  11.489 -0.2676 -0.3130 -0.1142
 9390TIP3    H149661   4.345   3.373  11.440 -1.7169 -0.9549  0.3493
 9390TIP3    H249662   4.279   3.508  11.428  0.4030  0.0672 -0.3101
 9391TIP3   OH249663   1.507   0.157  15.177  0.4867  0.7094 -0.3383
 9391TIP3    H149664   1.419   0.185  15.151 -0.5831 -1.5515  0.6128
 9391TIP3    H249665   1.562   0.233  15.158 -1.1531  1.3070 -3.4969
 9392TIP3   OH249666   0.840   2.417  14.560  0.3627  0.0544  0.5209
 9392TIP3    H149667   0.839   2.352  14.631  1.6438 -0.3092  0.2348
 9392TIP3    H249668   0.928   2.454  14.562  0.0766  0.8147 -0.1988
 9393TIP3   OH249669   1.803   4.668   0.105  0.0166 -0.1331  0.7045
 9393TIP3    H149670   1.865   4.687   0.175  0.7304  0.3838 -0.0602
 9393TIP3    H249671   1.770   4.753   0.078 -1.0874 -0.4006  1.1329
 9394TIP3   OH249672   2.635   5.894   0.063  0.2020 -0.1347  0.7886
 9394TIP3    H149673   2.599   5.982   0.054 -1.1834 -0.6969  0.6013
 9394TIP3    H249674   2.575   5.849   0.122  1.3610 -0.7218  1.5606
 9395TIP3   OH249675   2.239   5.663  13.062 -0.5481 -0.0779  1.0344
 9395TIP3    H149676   2.228   5.750  13.100  0.0726  0.8085 -0.6934
 9395TIP3    H249677   2.150   5.634  13.041 -0.6731  0.7655  0.3417
 9396TIP3   OH249678   6.407   5.802   1.526 -0.3993 -0.5048  0.2854
 9396TIP3    H149679   6.415   5.754   1.443 -1.3920  1.4049 -0.9898
 9396TIP3    H249680   6.489   5.851   1.533 -0.6274 -0.0752  0.0137
 9397TIP3   OH249681   6.367   3.267  11.815 -0.2334 -0.2502 -0.1186
 9397TIP3    H149682   6.363   3.177  11.782  0.0747 -0.6883  0.9863
 9397TIP3    H249683   6.312   3.266  11.894  0.5853  0.2652  0.4780
 9398TIP3   OH249684   5.635   3.746   3.492  0.2422 -0.0971  0.1577
 9398TIP3    H149685   5.585   3.794   3.559  0.0148 -0.6028  0.3587
 9398TIP3    H249686   5.701   3.697   3.542 -0.6518 -1.3763  0.1480
 9399TIP3   OH249687   5.301   2.471   4.352  0.2083  0.0263  0.1077
 9399TIP3    H149688   5.289   2.532   4.279 -2.6159  0.6495  0.9573
 9399TIP3    H249689   5.370   2.412   4.323 -0.0742  0.9017 -2.6245
 9400TIP3   OH249690   2.963   0.823  13.616  0.3056  0.0310 -0.9197
 9400TIP3    H149691   2.940   0.800  13.526 -0.5130  1.5997 -1.1453
 9400TIP3    H249692   2.891   0.788  13.668  0.2484  0.0345 -0.9956
 9401TIP3   OH249693   4.664   0.732   4.073 -0.3067  0.1191 -0.0996
 9401TIP3    H149694   4.632   0.790   4.003 -1.1031  0.3677  0.4508
 9401TIP3    H249695   4.689   0.792   4.144  1.0247 -0.0948 -0.3541
 9402TIP3   OH249696   2.310   3.880   0.364 -0.6676  0.1488  0.5741
 9402TIP3    H149697   2.329   3.913   0.276  0.4704 -1.3253  0.2035
 9402TIP3    H249698   2.232   3.825   0.353 -1.2841  0.9794  0.7550
 9403TIP3   OH249699   0.720   6.574   3.779 -0.5458 -0.4101 -0.0921
 9403TIP3    H149700   0.722   6.648   3.718  0.1609 -0.3852 -0.0498
 9403TIP3    H249701   0.737   6.498   3.724 -1.0978 -0.5264 -0.1074
 9404TIP3   OH249702   5.045   4.463   0.426  0.4352  0.4290 -0.5006
 9404TIP3    H149703   5.031   4.412   0.346  1.0849 -1.3422  0.4550
 9404TIP3    H249704   5.105   4.409   0.478 -0.2447  1.3703  1.3219
 9405TIP3   OH249705   0.054   1.547  11.817  0.0658 -0.5044  0.4154
 9405TIP3    H149706   0.042   1.550  11.722  0.4410 -0.8040  0.3567
 9405TIP3    H249707   0.028   1.459  11.842  0.4490 -0.5895  0.5219
 9406TIP3   OH249708   0.673   6.370  13.548  0.2843  0.2064  0.0611
 9406TIP3    H149709   0.645   6.290  13.503  0.8801 -0.9695  1.6585
 9406TIP3    H249710   0.600   6.390  13.608  1.0002 -0.4148  1.1841
 9407TIP3   OH249711   6.272   5.228   5.887  0.4383 -0.1404  0.3008
 9407TIP3    H149712   6.314   5.156   5.840 -1.1249 -0.3329 -0.8501
 9407TIP3    H249713   6.293   5.212   5.979 -0.2621 -2.3307  0.1237
 9408TIP3   OH249714   6.758   3.207  11.812 -0.6056 -0.4227 -0.1089
 9408TIP3    H149715   6.847   3.214  11.846 -0.1564 -0.2150 -1.2647
 9408TIP3    H249716   6.702   3.204  11.889  0.4349 -0.9431  0.6398
 9409TIP3   OH249717   0.533   1.888   2.447  0.5516 -0.0982  0.0688
 9409TIP3    H149718   0.508   1.960   2.505  1.2398  1.8812 -1.9658
 9409TIP3    H249719   0.451   1.858   2.408  0.3860  0.4501 -0.0129
 9410TIP3   OH249720   6.632   5.633   4.211 -0.0245 -0.4065  0.4361
 9410TIP3    H149721   6.610   5.556   4.264 -0.0583 -0.5455  0.2225
 9410TIP3    H249722   6.547   5.665   4.180  0.0019 -0.3849  0.3860
 9411TIP3   OH249723   2.870   4.735  14.584 -0.5456 -0.0531  0.4420
 9411TIP3    H149724   2.887   4.811  14.527  2.1083 -1.5275 -0.9270
 9411TIP3    H249725   2.906   4.661  14.536 -0.8079 -1.8407  2.8315
 9412TIP3   OH249726   3.849   5.081  14.565 -0.3722 -0.2846 -0.4466
 9412TIP3    H149727   3.923   5.021  14.568  0.2742  0.2613 -3.0122
 9412TIP3    H249728   3.829   5.099  14.657  3.5263  0.5628  0.4238
 9413TIP3   OH249729   3.222   3.961   5.099 -0.1249 -0.2296  0.2736
 9413TIP3    H149730   3.258   3.933   5.014  0.7156 -0.3292  0.6516
 9413TIP3    H249731   3.220   4.056   5.094 -1.7868 -0.2681 -0.5295
 9414TIP3   OH249732   5.455   0.685  15.236  0.7244 -0.3323  0.3109
 9414TIP3    H149733   5.541   0.662  15.201  0.3913 -0.9705 -0.1147
 9414TIP3    H249734   5.470   0.763  15.289  1.1176  1.1081 -1.8431
 9415TIP3   OH249735   2.041   4.680  12.722 -0.1210  0.3250 -0.4769
 9415TIP3    H149736   2.021   4.635  12.805  0.5026  0.5338 -0.2085
 9415TIP3    H249737   2.115   4.631  12.685 -1.2070 -0.5550 -1.5520
 9416TIP3   OH249738   0.440   6.460  14.792 -0.3801  0.5466 -0.4957
 9416TIP3    H149739   0.526   6.436  14.827 -1.0570 -0.6913  0.3525
 9416TIP3    H249740   0.454   6.546  14.752  1.5604 -0.2059 -1.5461
 9417TIP3   OH249741   0.491   1.352   0.826 -0.2247 -0.4710 -0.0996
 9417TIP3    H149742   0.586   1.346   0.814 -0.2052 -1.6043  0.5003
 9417TIP3    H249743   0.463   1.418   0.762  0.7180 -1.4788 -1.6116
 9418TIP3   OH249744   6.030   2.036  15.487  0.6150 -0.2424  0.2202
 9418TIP3    H149745   6.108   1.987  15.511  0.4108 -1.0975 -0.7802
 9418TIP3    H249746   6.026   2.107  15.550  1.6250 -0.7842  0.9229
 9419TIP3   OH249747   6.633   5.808  16.263  0.4127  0.2474  0.0144
 9419TIP3    H149748   6.693   5.882  16.263  1.4089 -0.5201 -0.5092
 9419TIP3    H249749   6.630   5.780  16.171 -0.3927 -0.0106  0.1098
 9420TIP3   OH249750   4.414   5.987  16.195  0.6729  0.1622 -0.1912
 9420TIP3    H149751   4.418   6.051  16.124  0.4949  0.9539  0.5063
 9420TIP3    H249752   4.473   6.020  16.262  0.0510 -0.0300  0.4695
 9421TIP3   OH249753   4.601   2.484   3.929  0.3812 -1.1984 -0.1501
 9421TIP3    H149754   4.587   2.578   3.925  0.8994 -1.1223 -0.1999
 9421TIP3    H249755   4.577   2.459   4.018 -2.3566 -1.4536 -0.8604
 9422TIP3   OH249756   4.845   3.411   0.022  0.0631 -0.1837 -0.4097
 9422TIP3    H149757   4.895   3.489  -0.003 -0.7067  0.8662  1.1691
 9422TIP3    H249758   4.757   3.443   0.042 -0.0809 -1.3223  0.9793
 9423TIP3   OH249759   5.740   6.349  11.003  0.0821 -0.2568  0.3571
 9423TIP3    H149760   5.742   6.379  10.912  0.1897 -1.1899  0.0414
 9423TIP3    H249761   5.797   6.410  11.050 -0.0894  0.3195 -0.1738
 9424TIP3   OH249762   3.604   2.546   0.225  0.1973  0.0484 -0.4459
 9424TIP3    H149763   3.616   2.486   0.298 -0.1679  0.3410 -0.1392
 9424TIP3    H249764   3.673   2.523   0.163 -0.0235 -0.7748 -0.3957
 9425TIP3   OH249765   6.218   2.784   4.069 -0.2373  0.0202  0.1431
 9425TIP3    H149766   6.259   2.789   3.982  1.5984  1.6408  1.0446
 9425TIP3    H249767   6.263   2.710   4.111 -1.0430 -0.6874 -0.1958
 9426TIP3   OH249768   4.684   0.874  15.729  0.6537 -0.5426  0.3888
 9426TIP3    H149769   4.720   0.795  15.688 -0.3840 -0.8176 -0.0156
 9426TIP3    H249770   4.654   0.845  15.815 -0.6804 -0.8543 -0.1526
 9427TIP3   OH249771   0.863   4.230  13.509  0.0901  0.3879 -0.0732
 9427TIP3    H149772   0.811   4.236  13.429  0.9044 -1.9510 -0.8604
 9427TIP3    H249773   0.947   4.268  13.486  0.1666  0.1509 -0.1894
 9428TIP3   OH249774   5.823   1.173   5.070 -0.0848  0.1093 -0.1871
 9428TIP3    H149775   5.744   1.224   5.050  0.6443  0.6401 -1.8602
 9428TIP3    H249776   5.865   1.160   4.985 -0.7750 -4.2715 -0.0505
 9429TIP3   OH249777   0.053   1.828   1.722 -0.9280  0.5130  0.5788
 9429TIP3    H149778  -0.040   1.807   1.737 -1.1750 -0.3818 -1.7052
 9429TIP3    H249779   0.100   1.749   1.748 -0.8105  0.9179  1.6109
 9430TIP3   OH249780   2.253   2.115   0.319  0.3209  0.3989 -0.0190
 9430TIP3    H149781   2.246   2.115   0.223  0.8026 -0.6014 -0.0677
 9430TIP3    H249782   2.216   2.031   0.346  3.6226 -1.1440  0.3377
 9431TIP3   OH249783   3.579   1.859  11.552  0.1093  0.7566  0.6565
 9431TIP3    H149784   3.499   1.807  11.549  0.4793  0.1468  1.1850
 9431TIP3    H249785   3.551   1.942  11.591 -0.5027  1.0061 -0.2785
 9432TIP3   OH249786   5.994   2.498  13.883  0.4555  0.2608 -0.3005
 9432TIP3    H149787   6.084   2.468  13.868 -0.1041 -1.0778 -1.3259
 9432TIP3    H249788   5.941   2.440  13.827 -1.0873  0.6604  0.6888
 9433TIP3   OH249789   1.541   5.921   0.575  0.2382  0.2881 -0.2783
 9433TIP3    H149790   1.501   5.997   0.615  1.0388  0.0746  0.9822
 9433TIP3    H249791   1.559   5.948   0.485 -0.0790  1.3554 -0.0352
 9434TIP3   OH249792   5.637   5.642   2.515 -0.7431  0.3166 -0.0265
 9434TIP3    H149793   5.563   5.665   2.459 -0.0660  1.3937 -0.5075
 9434TIP3    H249794   5.672   5.726   2.544  1.0245 -0.1110 -0.7947
 9435TIP3   OH249795   3.069   0.697  11.175  0.3209  0.3736 -0.0271
 9435TIP3    H149796   3.019   0.662  11.101 -0.4177  1.5501 -0.1192
 9435TIP3    H249797   3.069   0.627  11.240  1.5902 -0.9660 -1.3766
 9436TIP3   OH249798   4.268   0.022  15.613 -0.2904  0.4143  0.0044
 9436TIP3    H149799   4.253   0.115  15.596 -1.3377  0.2848  0.1523
 9436TIP3    H249800   4.214  -0.023  15.547  2.8400 -0.1532 -2.4246
 9437TIP3   OH249801   4.119   1.929  12.852 -0.5281  0.3322  0.7835
 9437TIP3    H149802   4.109   2.015  12.893 -0.0471  1.5172 -1.4852
 9437TIP3    H249803   4.029   1.895  12.845 -1.1732  2.2638 -1.5152
 9438TIP3   OH249804   2.553   2.670   4.422  0.0297 -0.2225  0.0596
 9438TIP3    H149805   2.529   2.736   4.357  2.3192 -0.2728 -0.9281
 9438TIP3    H249806   2.470   2.626   4.443 -0.8407 -0.2401 -2.8716
 9439TIP3   OH249807   3.718   0.676  11.250 -0.1946 -0.0354 -0.4681
 9439TIP3    H149808   3.659   0.622  11.302  0.7424 -0.4084  0.2401
 9439TIP3    H249809   3.694   0.658  11.159 -0.4020 -1.0605 -0.2193
 9440TIP3   OH249810   4.341   0.634   0.647  0.4206  0.4263 -0.3334
 9440TIP3    H149811   4.312   0.726   0.646 -2.4991 -0.3614 -2.5316
 9440TIP3    H249812   4.349   0.611   0.554  0.3579 -1.7289  0.1457
 9441TIP3   OH249813   2.000   4.917   0.216  0.3402 -0.4266 -0.2504
 9441TIP3    H149814   1.905   4.925   0.221  0.4509  0.4834  1.0508
 9441TIP3    H249815   2.022   4.843   0.272  0.4706  0.2022  0.5594
 9442TIP3   OH249816   5.440   0.211   6.761  0.6083 -0.4277  0.6859
 9442TIP3    H149817   5.420   0.146   6.695  0.6840  0.3600 -0.1353
 9442TIP3    H249818   5.489   0.164   6.828  1.0945 -1.1014 -0.1315
 9443TIP3   OH249819   1.829   1.269  11.411  0.4786  0.5223 -0.6975
 9443TIP3    H149820   1.777   1.197  11.377  0.0532 -0.0321  1.0287
 9443TIP3    H249821   1.920   1.244  11.395  0.3243 -0.2844 -0.3227
 9444TIP3   OH249822   5.332   3.898  13.123 -0.5518  0.6326 -0.1017
 9444TIP3    H149823   5.251   3.938  13.091 -0.5845 -0.0920 -0.9735
 9444TIP3    H249824   5.391   3.973  13.138 -1.4440  1.1778  0.7628
 9445TIP3   OH249825   3.836   1.842  13.476 -0.2627  0.0689  0.1614
 9445TIP3    H149826   3.902   1.786  13.434  0.5203  0.6556  0.5718
 9445TIP3    H249827   3.878   1.873  13.556 -0.6327  1.2976 -0.0861
 9446TIP3   OH249828   5.845   1.012   3.634 -0.2072  0.6021  0.0179
 9446TIP3    H149829   5.905   1.032   3.563 -2.4562  0.8402 -1.9222
 9446TIP3    H249830   5.839   1.093   3.684  1.8778  0.2489  0.9609
 9447TIP3   OH249831   4.712   2.913   1.138 -0.4087 -0.2366 -0.4100
 9447TIP3    H149832   4.694   2.860   1.060 -0.9033 -1.1933  0.3354
 9447TIP3    H249833   4.807   2.926   1.137 -0.2090 -1.6062 -0.3151
 9448TIP3   OH249834   1.212   1.308  14.805  0.3315 -0.3328  0.0888
 9448TIP3    H149835   1.185   1.376  14.745  0.1825  1.1170  1.7209
 9448TIP3    H249836   1.279   1.258  14.757  0.2658  0.7970 -1.2222
 9449TIP3   OH249837   5.897   1.168  11.701  0.0466  0.3437 -0.0520
 9449TIP3    H149838   5.917   1.249  11.653  0.2856 -0.6629 -1.7490
 9449TIP3    H249839   5.963   1.164  11.769  2.8903 -0.5491 -2.6435
 9450TIP3   OH249840   0.422   2.504   1.674 -0.7030  0.4071  0.2301
 9450TIP3    H149841   0.337   2.548   1.677 -0.5742  0.7159 -0.5105
 9450TIP3    H249842   0.470   2.548   1.604  0.1658  0.4000  0.8127
 9451TIP3   OH249843   3.010   1.532   4.654  0.4242 -0.3242 -0.4457
 9451TIP3    H149844   3.060   1.475   4.712 -1.3239  0.4657  1.9892
 9451TIP3    H249845   2.932   1.481   4.631 -0.0230  0.2280 -0.1683
 9452TIP3   OH249846   2.128   5.257   2.697  0.5808 -0.2783  0.1652
 9452TIP3    H149847   2.141   5.325   2.630  1.6862  0.4564  1.0814
 9452TIP3    H249848   2.070   5.297   2.761  0.3459 -0.6154  0.1666
 9453TIP3   OH249849   4.319   5.375  16.176  0.0075  0.2717  0.3717
 9453TIP3    H149850   4.391   5.317  16.201 -1.9763 -2.6730 -0.2341
 9453TIP3    H249851   4.270   5.388  16.257  0.1619  0.6958  0.3987
 9454TIP3   OH249852   3.727   4.396  13.738 -0.1449 -0.6400 -0.2848
 9454TIP3    H149853   3.637   4.370  13.717 -0.4758  0.3735 -0.1385
 9454TIP3    H249854   3.717   4.459  13.810  0.6534 -0.1371 -0.6165
 9455TIP3   OH249855   4.575   3.039   0.313 -0.5777  0.7967 -0.3225
 9455TIP3    H149856   4.516   3.014   0.242  0.7151 -0.5375 -0.9956
 9455TIP3    H249857   4.642   3.093   0.271  0.6801 -0.7000 -0.3799
 9456TIP3   OH249858   6.203   4.915   0.359  0.5097  0.5570 -0.3246
 9456TIP3    H149859   6.200   4.907   0.454  1.4426  0.4816 -0.2852
 9456TIP3    H249860   6.178   4.829   0.326 -1.6829  1.0964 -0.2183
 9457TIP3   OH249861   6.499   3.260  15.776 -0.2161  1.0491 -0.5112
 9457TIP3    H149862   6.591   3.236  15.788 -0.4038  1.2213  1.7259
 9457TIP3    H249863   6.501   3.335  15.717  1.0742  0.9975 -0.5565
 9458TIP3   OH249864   3.638   0.239   3.905 -0.0989 -0.1071 -0.9012
 9458TIP3    H149865   3.678   0.152   3.904 -0.9778 -0.5259 -0.2966
 9458TIP3    H249866   3.605   0.251   3.816 -0.6747 -0.7280 -0.7754
 9459TIP3   OH249867   2.535   6.110   5.688  0.4395  0.1808  0.7831
 9459TIP3    H149868   2.494   6.197   5.690 -0.8504 -0.3673 -0.0840
 9459TIP3    H249869   2.628   6.127   5.702 -0.0924  1.4384  3.6257
 9460TIP3   OH249870   6.103   2.572   1.864  0.1883  0.1755  0.2342
 9460TIP3    H149871   6.137   2.575   1.774  0.5664 -3.8298  0.0611
 9460TIP3    H249872   6.175   2.607   1.917 -0.1033  2.7651 -0.9153
 9461TIP3   OH249873   4.600   4.740  16.371 -0.6454 -0.1244 -0.0593
 9461TIP3    H149874   4.672   4.798  16.346 -1.1457  1.3523  1.6894
 9461TIP3    H249875   4.539   4.744  16.297  0.7012 -0.8311 -1.2510
 9462TIP3   OH249876   3.242   2.411   1.007 -0.0845  0.2837  0.1929
 9462TIP3    H149877   3.285   2.494   1.025  0.5847  0.3655 -1.5814
 9462TIP3    H249878   3.214   2.417   0.916  0.1898 -1.5083 -0.0584
 9463TIP3   OH249879   6.248   6.283  15.692 -0.0826 -0.2961  0.3769
 9463TIP3    H149880   6.200   6.333  15.759  0.6129 -0.8289  1.2888
 9463TIP3    H249881   6.268   6.200  15.734 -1.4759 -1.5189 -1.2102
 9464TIP3   OH249882   4.091   3.226   5.814  0.1660  0.3275 -0.6217
 9464TIP3    H149883   4.007   3.179   5.814 -0.0137  0.6286 -1.3328
 9464TIP3    H249884   4.131   3.203   5.730 -0.2700  2.0206 -1.3438
 9465TIP3   OH249885   3.424   0.394  13.204 -0.3319 -0.4081  0.1424
 9465TIP3    H149886   3.459   0.409  13.116 -0.5582  0.1718  0.1451
 9465TIP3    H249887   3.382   0.308  13.199  1.1626 -1.1741  0.1583
 9466TIP3   OH249888   4.392   4.667   6.339 -0.1384 -0.5885 -0.5848
 9466TIP3    H149889   4.457   4.621   6.287 -0.0080 -0.6722 -0.3480
 9466TIP3    H249890   4.354   4.731   6.279 -1.2395 -1.8605 -1.3079
 9467TIP3   OH249891   0.395   1.744   1.469 -0.4257  0.8052  0.1880
 9467TIP3    H149892   0.313   1.696   1.459  0.6702 -1.3789  0.8980
 9467TIP3    H249893   0.447   1.718   1.392  0.6504 -0.2018  1.2172
 9468TIP3   OH249894   2.495   1.999  16.851  0.3564  0.2157  0.2022
 9468TIP3    H149895   2.423   2.021  16.911  0.2263 -2.2160  1.0461
 9468TIP3    H249896   2.500   1.903  16.854  2.0451  0.1850 -1.7414
 9469TIP3   OH249897   5.792   4.054  12.300 -0.0109  0.1106 -0.1501
 9469TIP3    H149898   5.801   4.148  12.317  0.6752 -0.2049  1.4257
 9469TIP3    H249899   5.874   4.017  12.332 -0.9174 -1.2065  0.7106
 9470TIP3   OH249900   4.563   0.776   0.969  0.3463  0.1978 -0.4424
 9470TIP3    H149901   4.476   0.816   0.970 -1.0999 -2.6130 -1.6704
 9470TIP3    H249902   4.617   0.836   0.917 -1.1598  1.4545 -0.6151
 9471TIP3   OH249903   2.922   6.668   1.233  0.2974 -0.4281  0.2433
 9471TIP3    H149904   2.882   6.725   1.298 -1.0997 -0.7852 -0.2585
 9471TIP3    H249905   2.864   6.674   1.157  1.7500 -0.2196 -0.8882
 9472TIP3   OH249906   4.968   0.783   1.356 -0.1024 -0.0977  0.0111
 9472TIP3    H149907   4.880   0.821   1.355  0.7188  1.9035 -0.0460
 9472TIP3    H249908   4.983   0.762   1.449 -0.4959 -0.0851  0.0794
 9473TIP3   OH249909   0.027   3.083   0.789 -0.1021 -0.0440 -0.7391
 9473TIP3    H149910  -0.012   3.170   0.795  1.8084  0.8643 -0.8094
 9473TIP3    H249911   0.028   3.064   0.695 -3.2882 -1.5580 -0.6204
 9474TIP3   OH249912   0.535   5.223  11.368 -0.0772 -0.5873 -0.0200
 9474TIP3    H149913   0.609   5.164  11.387 -0.6560 -0.8977  1.4128
 9474TIP3    H249914   0.500   5.192  11.285  1.6714 -0.1448 -0.9665
 9475TIP3   OH249915   6.558   2.187   2.768  0.3462  0.2459 -0.7092
 9475TIP3    H149916   6.517   2.272   2.750  2.4629  1.0751 -2.0357
 9475TIP3    H249917   6.586   2.156   2.682 -1.3525 -2.3954 -0.4171
 9476TIP3   OH249918   6.610   4.393   0.205  0.1295 -0.4750 -0.4386
 9476TIP3    H149919   6.614   4.327   0.136  0.9484 -1.6290  0.6812
 9476TIP3    H249920   6.699   4.430   0.207  0.6507 -1.7015  1.1461
 9477TIP3   OH249921   1.273   0.280   0.785  0.1258 -0.2156 -0.1887
 9477TIP3    H149922   1.359   0.237   0.790  1.5793  2.2712 -1.3898
 9477TIP3    H249923   1.245   0.288   0.876 -0.0439 -3.1359  0.1310
 9478TIP3   OH249924   6.643   2.442  11.670  0.1174  0.4747 -0.2172
 9478TIP3    H149925   6.621   2.524  11.627  0.3549  0.6695  0.0276
 9478TIP3    H249926   6.562   2.390  11.667 -0.6837  1.5422  1.5155
 9479TIP3   OH249927   4.278   6.216  11.097 -0.0077 -0.3910  0.0635
 9479TIP3    H149928   4.280   6.311  11.114  2.4965 -0.2790 -0.5380
 9479TIP3    H249929   4.221   6.207  11.021  1.6836  0.9904 -1.4554
 9480TIP3   OH249930   4.778   3.707   2.732 -0.0328  0.3992  0.1472
 9480TIP3    H149931   4.737   3.768   2.794  1.0931  0.8362  0.4725
 9480TIP3    H249932   4.848   3.665   2.783 -0.3986 -0.7354 -0.2487
 9481TIP3   OH249933   1.095   1.229   0.748 -0.6388  0.3583  0.7647
 9481TIP3    H149934   1.037   1.167   0.793 -0.0956  0.0173  1.0050
 9481TIP3    H249935   1.112   1.297   0.812  0.5839 -0.4107  1.2978
 9482TIP3   OH249936   5.340   3.079   1.170  0.8864  0.3740 -0.0281
 9482TIP3    H149937   5.418   3.120   1.132  0.7131  0.6535 -0.0837
 9482TIP3    H249938   5.374   3.030   1.245  1.2883 -0.5281 -0.7869
 9483TIP3   OH249939   1.530   0.496   4.808  0.7747 -0.2295 -0.2766
 9483TIP3    H149940   1.500   0.408   4.830  1.9298 -0.7273 -0.6261
 9483TIP3    H249941   1.449   0.547   4.798  0.0999 -0.3096  3.3935
 9484TIP3   OH249942   3.706   5.198  14.361 -0.2866  0.1578  0.6623
 9484TIP3    H149943   3.766   5.171  14.431  2.8198  2.4203 -0.9066
 9484TIP3    H249944   3.728   5.141  14.288  0.8954  1.7744 -0.2945
 9485TIP3   OH249945   1.154   1.941   4.294 -0.4372 -0.1113 -0.2822
 9485TIP3    H149946   1.108   1.884   4.232  0.7979  0.1961 -1.5378
 9485TIP3    H249947   1.169   2.022   4.245 -1.6227  1.1122  1.2703
 9486TIP3   OH249948   3.708   5.471  14.403 -0.2512  0.0521 -0.3329
 9486TIP3    H149949   3.725   5.377  14.410  0.8362  0.3137  0.7124
 9486TIP3    H249950   3.614   5.480  14.423 -0.3381 -0.7832 -0.3217
 9487TIP3   OH249951   6.198   3.556   5.590  0.0222  0.0868 -0.1626
 9487TIP3    H149952   6.113   3.592   5.564 -0.0557 -0.8852 -1.3938
 9487TIP3    H249953   6.178   3.499   5.664 -0.9733 -2.4058 -2.1809
 9488TIP3   OH249954   3.598   5.680   3.946 -0.6111 -0.3073  0.5806
 9488TIP3    H149955   3.631   5.748   4.004 -0.9875  0.9337 -0.6080
 9488TIP3    H249956   3.531   5.723   3.893 -1.1223 -1.6940  0.0364
 9489TIP3   OH249957   1.085   4.869   1.280  0.2388 -0.1353  0.0263
 9489TIP3    H149958   1.021   4.803   1.255  1.4331 -1.7931  1.1177
 9489TIP3    H249959   1.059   4.947   1.232 -1.2409 -1.3796 -1.3057
 9490TIP3   OH249960   1.493   0.744   0.548 -0.4431  0.3803  0.4282
 9490TIP3    H149961   1.586   0.722   0.551 -0.6211 -0.3730  0.5182
 9490TIP3    H249962   1.466   0.745   0.640 -0.2789  1.7183  0.4879
 9491TIP3   OH249963   5.939   6.169   2.433  0.1732 -0.0107 -0.3491
 9491TIP3    H149964   5.920   6.151   2.341  0.5586 -0.1598 -0.4018
 9491TIP3    H249965   5.886   6.106   2.482  1.5451 -1.3705 -0.5304
 9492TIP3   OH249966   6.768   0.535  12.481  0.4797  0.0962  0.1146
 9492TIP3    H149967   6.798   0.449  12.451  1.6449  0.5972 -0.1817
 9492TIP3    H249968   6.793   0.538  12.573  4.0788  1.6120 -0.7557
 9493TIP3   OH249969   0.731   4.519   4.811  0.0614 -0.3316 -0.3528
 9493TIP3    H149970   0.689   4.547   4.730 -1.4599  2.2191  1.1637
 9493TIP3    H249971   0.664   4.466   4.855 -0.2060  0.5903  0.3952
 9494TIP3   OH249972   0.538   3.853  12.103 -0.6799  0.6720  0.4431
 9494TIP3    H149973   0.625   3.813  12.096 -0.0413  2.0884  0.0004
 9494TIP3    H249974   0.490   3.795  12.162  1.0480  0.7058  1.9619
 9495TIP3   OH249975   3.093   5.738   0.945  0.0691 -0.3721  0.0389
 9495TIP3    H149976   3.054   5.742   0.857  1.6743  0.8950 -0.6681
 9495TIP3    H249977   3.066   5.820   0.987 -0.7968 -1.0306  0.8084
 9496TIP3   OH249978   3.569   5.949  13.666 -0.0836 -0.3377 -0.1372
 9496TIP3    H149979   3.565   6.038  13.701 -2.1138 -0.5380  0.2746
 9496TIP3    H249980   3.662   5.928  13.665  0.2665  0.7002  2.5683
 9497TIP3   OH249981   4.099   4.965  14.531 -0.3527 -0.0971 -0.0898
 9497TIP3    H149982   4.160   4.895  14.555  0.5064  0.2739 -1.0874
 9497TIP3    H249983   4.133   5.043  14.574 -1.2361 -0.2354  0.9125
 9498TIP3   OH249984   2.200   5.338   0.719  0.6031 -0.3110 -0.2950
 9498TIP3    H149985   2.114   5.366   0.752  0.6457 -1.4886  0.9341
 9498TIP3    H249986   2.255   5.416   0.726 -0.0851  0.1560  0.0091
 9499TIP3   OH249987   2.813   4.686  16.246 -0.2037  0.4687 -0.2897
 9499TIP3    H149988   2.890   4.633  16.225 -0.3050  0.4388 -0.5847
 9499TIP3    H249989   2.754   4.626  16.292 -1.2404 -0.2796 -2.4843
 9500TIP3   OH249990   5.073   3.067  16.219  0.1684  0.2875  0.8785
 9500TIP3    H149991   5.007   2.998  16.211  0.2286  0.3465 -0.2919
 9500TIP3    H249992   5.023   3.148  16.208  0.4303  0.3276 -0.1635
 9501TIP3   OH249993   1.700   5.925  16.954 -0.2968  0.2477  0.2902
 9501TIP3    H149994   1.756   5.848  16.957 -0.7924 -0.0703  1.6717
 9501TIP3    H249995   1.693   5.945  16.860  0.4027 -0.9528 -0.0405
 9502TIP3   OH249996   1.406   5.892   3.894  0.0705  0.1513  0.3038
 9502TIP3    H149997   1.377   5.941   3.817  0.0623 -0.5534 -0.1433
 9502TIP3    H249998   1.415   5.959   3.963 -1.9177  0.5063  0.2676
 9503TIP3   OH249999   2.582   5.904  12.837 -0.2673  0.0306 -0.4209
 9503TIP3    H150000   2.528   5.948  12.771  0.7012  2.7268  0.4503
 9503TIP3    H250001   2.532   5.911  12.918  0.8250  1.5500  0.1653
 9504TIP3   OH250002   1.432   6.645   3.368  0.5763  0.3473  0.7441
 9504TIP3    H150003   1.468   6.707   3.305 -0.8495  0.9612  0.4955
 9504TIP3    H250004   1.338   6.642   3.348  0.5948 -1.9103  0.7270
 9505TIP3   OH250005   1.882   4.746   3.319 -0.5338  0.0603  0.3858
 9505TIP3    H150006   1.977   4.740   3.305 -0.5368 -0.4196  0.5460
 9505TIP3    H250007   1.844   4.705   3.240 -0.6479  1.6331 -0.4171
 9506TIP3   OH250008   0.748   4.029   4.363  0.3403 -0.5852 -0.1846
 9506TIP3    H150009   0.718   3.939   4.351 -0.7771  0.0792 -3.3782
 9506TIP3    H250010   0.830   4.034   4.312  2.0194 -0.4365  2.3347
 9507TIP3   OH250011   2.277   0.797   1.908 -0.2525 -0.3046  0.2528
 9507TIP3    H150012   2.364   0.824   1.936  0.3531 -1.7564 -0.1055
 9507TIP3    H250013   2.273   0.823   1.816  1.0493 -2.8415 -0.6431
 9508TIP3   OH250014   2.889   1.504  16.241 -0.4360 -0.1471 -0.2238
 9508TIP3    H150015   2.864   1.561  16.314  0.6054  0.1842 -0.1055
 9508TIP3    H250016   2.879   1.559  16.163  0.8190  0.3203 -0.0855
 9509TIP3   OH250017   6.333   3.598  13.194  0.3825  0.5825 -0.1209
 9509TIP3    H150018   6.363   3.610  13.284  0.1114 -0.3356  0.0968
 9509TIP3    H250019   6.334   3.687  13.156 -0.9534  1.2051  1.2248
 9510TIP3   OH250020   4.026   1.203   2.150  0.1359 -0.5584  0.7060
 9510TIP3    H150021   4.090   1.144   2.188  0.2916 -0.2523  0.9194
 9510TIP3    H250022   4.025   1.181   2.057  0.4595 -0.6478  0.7234
 9511TIP3   OH250023   4.880   2.671  10.762 -0.1595  0.1325 -0.3382
 9511TIP3    H150024   4.945   2.619  10.810  1.8544 -0.5833 -3.5685
 9511TIP3    H250025   4.813   2.607  10.736 -0.1602  0.1223 -0.3117
 9512TIP3   OH250026   2.578   4.016   1.110  0.2869  0.0010 -0.2385
 9512TIP3    H150027   2.523   3.955   1.061  0.1793 -0.8178  0.8672
 9512TIP3    H250028   2.600   4.084   1.047 -1.8888  0.3001 -0.7465
 9513TIP3   OH250029   3.437   3.818   0.410 -0.1020 -0.1597 -0.0384
 9513TIP3    H150030   3.443   3.841   0.317 -2.1466  1.3742  0.1420
 9513TIP3    H250031   3.414   3.725   0.410 -0.8538  0.0109 -1.1018
 9514TIP3   OH250032   3.505   1.360  14.311 -0.0893  0.1111 -0.3637
 9514TIP3    H150033   3.440   1.328  14.374  0.6791 -2.4142 -0.7353
 9514TIP3    H250034   3.589   1.353  14.357  0.1195  1.9632 -0.3892
 9515TIP3   OH250035   5.522   6.619  13.653  0.4700  0.5127  0.9900
 9515TIP3    H150036   5.477   6.546  13.611 -2.2512  2.7360 -0.2842
 9515TIP3    H250037   5.497   6.612  13.746  1.7481 -1.1223  1.2588
 9516TIP3   OH250038   4.882   3.103   0.185 -0.0084 -0.0265 -0.2085
 9516TIP3    H150039   4.864   3.069   0.097  0.3487 -0.1950 -0.2160
 9516TIP3    H250040   4.969   3.141   0.179 -0.1553  0.3438 -0.0356
 9517TIP3   OH250041   2.341   5.738  11.530 -0.1774 -0.2808 -0.2136
 9517TIP3    H150042   2.382   5.662  11.488 -1.6313 -0.7462 -0.8621
 9517TIP3    H250043   2.284   5.700  11.596 -1.5825  0.1582 -1.1226
 9518TIP3   OH250044   0.734   5.051   0.868  0.6690 -0.3200 -0.0154
 9518TIP3    H150045   0.792   5.118   0.833 -2.1039  1.8666 -0.7997
 9518TIP3    H250046   0.738   5.063   0.963  3.1668 -1.8142  0.1499
 9519TIP3   OH250047   6.112   5.952   3.332  0.3117 -0.1518 -0.0315
 9519TIP3    H150048   6.197   5.994   3.348 -0.9656  2.5974  0.0473
 9519TIP3    H250049   6.129   5.891   3.260  2.1081  1.2439 -0.8638
 9520TIP3   OH250050   0.750   6.740   1.407  0.5774  0.3593 -0.2502
 9520TIP3    H150051   0.745   6.812   1.343  1.0637 -1.1215 -2.0441
 9520TIP3    H250052   0.746   6.661   1.353  0.0230 -0.9706  1.6723
 9521TIP3   OH250053   1.364   2.998   1.294  0.9211  0.1307 -0.0440
 9521TIP3    H150054   1.291   2.991   1.355  0.9687  0.0328  0.0019
 9521TIP3    H250055   1.392   3.089   1.300  0.9431  0.1154  0.1019
 9522TIP3   OH250056   0.348   3.413  12.363  0.3484 -0.0404  0.1816
 9522TIP3    H150057   0.345   3.493  12.311 -2.6722 -0.1836 -0.0157
 9522TIP3    H250058   0.426   3.367  12.331  1.1977  2.0094 -0.8817
 9523TIP3   OH250059   3.377   3.044   0.086 -0.2157  0.1024  0.0760
 9523TIP3    H150060   3.442   2.994   0.136 -1.2958 -1.3705  0.0769
 9523TIP3    H250061   3.427   3.088   0.018  0.8482 -0.6166  0.3712
 9524TIP3   OH250062   4.852   1.735   4.267  0.5022 -0.3220  0.2449
 9524TIP3    H150063   4.847   1.819   4.222  1.0584  0.0142  0.8028
 9524TIP3    H250064   4.853   1.757   4.360 -0.7996 -1.0139  0.4512
 9525TIP3   OH250065   0.941   4.332   2.826  0.2734  0.7657  0.3622
 9525TIP3    H150066   0.852   4.365   2.813  0.5836  1.2222 -0.6776
 9525TIP3    H250067   0.972   4.311   2.738  0.3605 -1.6480  0.8812
 9526TIP3   OH250068   6.537   0.920   2.784  0.4098  0.2695  0.2160
 9526TIP3    H150069   6.589   0.993   2.751  2.2246 -2.3317 -3.3128
 9526TIP3    H250070   6.468   0.907   2.718 -0.1449 -0.9539  0.9807
 9527TIP3   OH250071   1.394   4.518  13.066  0.2808  0.1584 -0.8993
 9527TIP3    H150072   1.486   4.503  13.047  0.5257  1.3207 -0.6651
 9527TIP3    H250073   1.369   4.444  13.122  1.9747  1.5713  1.9442
 9528TIP3   OH250074   3.976   4.671   5.208  0.3261  0.2867 -0.2985
 9528TIP3    H150075   3.932   4.693   5.290 -0.7992 -3.0343  0.1249
 9528TIP3    H250076   4.057   4.723   5.210 -0.8435  2.2428  1.6172
 9529TIP3   OH250077   6.461   2.001  16.405 -0.4767  0.0510 -0.0470
 9529TIP3    H150078   6.511   1.931  16.361  0.3205  0.1443  0.6807
 9529TIP3    H250079   6.399   2.031  16.338  1.5650  1.0801 -1.5846
 9530TIP3   OH250080   4.082   1.156   1.612  0.4531 -0.0762 -0.3091
 9530TIP3    H150081   4.165   1.189   1.646  0.2117  2.0041 -1.5564
 9530TIP3    H250082   4.048   1.228   1.559 -2.5627 -0.5340  0.8195
 9531TIP3   OH250083   4.943   0.209  13.532  0.8307  0.2047  0.0693
 9531TIP3    H150084   4.910   0.299  13.529  0.8300  0.2877  1.6296
 9531TIP3    H250085   5.032   0.217  13.566  0.2530 -0.4848  1.8424
 9532TIP3   OH250086   1.161   1.385   0.962  0.1044 -0.5177  0.5046
 9532TIP3    H150087   1.103   1.461   0.964 -0.4595 -0.9560  2.3281
 9532TIP3    H250088   1.239   1.413   1.009  0.7972 -0.4004 -0.6850
 9533TIP3   OH250089   5.118   3.945  11.440  0.5330 -0.0822 -0.1066
 9533TIP3    H150090   5.025   3.922  11.440  0.5279 -0.0671 -0.3838
 9533TIP3    H250091   5.119   4.038  11.464  0.5797 -0.4443  1.4022
 9534TIP3   OH250092   4.270   4.266  16.762  0.4357  0.7070 -0.5175
 9534TIP3    H150093   4.249   4.193  16.704  0.5063 -1.2014  1.7072
 9534TIP3    H250094   4.366   4.266  16.766  0.4181 -0.7167  1.3076
 9535TIP3   OH250095   2.298   5.896   1.155 -0.2220 -0.0158 -0.4359
 9535TIP3    H150096   2.366   5.851   1.205 -0.4764  1.3069  1.1959
 9535TIP3    H250097   2.346   5.937   1.083  0.5049 -0.2426 -0.0992
 9536TIP3   OH250098   3.151   4.537  17.204  0.4121 -0.1463 -0.4286
 9536TIP3    H150099   3.075   4.549  17.261  1.5535  0.7877  0.9721
 9536TIP3    H250100   3.210   4.609  17.228  1.4772 -0.4875 -1.9141
 9537TIP3   OH250101   4.822   2.452   3.721  0.4187  0.5987 -0.0648
 9537TIP3    H150102   4.758   2.466   3.791  0.6528 -0.6476  0.4247
 9537TIP3    H250103   4.774   2.406   3.653  0.4390  0.9562 -0.3250
 9538TIP3   OH250104   1.790   1.034  12.870  0.2320 -0.0356 -0.0415
 9538TIP3    H150105   1.850   1.093  12.824  0.6102 -0.5935 -0.2750
 9538TIP3    H250106   1.742   0.990  12.800 -2.5017  2.4144  0.1187
 9539TIP3   OH250107   5.928   1.311   0.297  0.6184  0.1156 -0.0373
 9539TIP3    H150108   5.912   1.273   0.210  1.4359 -1.9402  0.6588
 9539TIP3    H250109   6.022   1.303   0.309  0.5877  0.9307  0.8292
 9540TIP3   OH250110   3.371   3.984  17.115  0.4233 -0.2225  0.5127
 9540TIP3    H150111   3.387   3.974  17.021  0.3069  1.0641  0.3295
 9540TIP3    H250112   3.429   4.055  17.141  1.1769 -1.2257  1.6405
 9541TIP3   OH250113   4.796   3.109   5.711 -0.4505 -0.7528  0.2201
 9541TIP3    H150114   4.790   3.155   5.628  0.2013 -0.0332  0.5648
 9541TIP3    H250115   4.746   3.163   5.773  1.5322  0.3193  0.9605
 9542TIP3   OH250116   4.896   1.316  11.902  0.3824 -0.0264  0.5971
 9542TIP3    H150117   4.815   1.359  11.930 -0.2589 -0.0565 -1.1272
 9542TIP3    H250118   4.867   1.233  11.864  1.0952  0.4395 -1.0358
 9543TIP3   OH250119   0.746   1.006   0.187 -0.1773  0.0315 -0.1748
 9543TIP3    H150120   0.805   1.005   0.262 -0.8591  0.6442  0.3913
 9543TIP3    H250121   0.800   1.034   0.114  0.3701 -0.0287  0.2019
 9544TIP3   OH250122   5.583   6.626   4.039  0.7410 -0.4717 -0.0516
 9544TIP3    H150123   5.504   6.624   3.984  0.7877  0.0843 -0.1490
 9544TIP3    H250124   5.638   6.693   3.999  1.5048 -1.2341 -0.3002
 9545TIP3   OH250125   2.797   0.120  13.902  0.0488  0.0883 -0.2328
 9545TIP3    H150126   2.811   0.210  13.930  0.4485 -0.1350  0.3084
 9545TIP3    H250127   2.884   0.080  13.904 -0.1415 -0.3426 -0.3407
 9546TIP3   OH250128   2.487   6.063   3.997  0.4049 -0.3694  0.0783
 9546TIP3    H150129   2.419   6.128   4.013 -0.9090 -1.5704 -0.3709
 9546TIP3    H250130   2.473   6.036   3.906  2.8099  0.8011 -0.7281
 9547TIP3   OH250131   2.013   6.599  10.834 -0.5786  0.4665 -0.1331
 9547TIP3    H150132   1.985   6.657  10.906  0.1565 -0.2988  0.8008
 9547TIP3    H250133   1.945   6.531  10.831 -0.9270  0.8307 -0.5729
 9548TIP3   OH250134   4.550   2.683   2.700  0.1444  0.5741 -0.1431
 9548TIP3    H150135   4.460   2.677   2.666 -0.2357  0.3468  0.8857
 9548TIP3    H250136   4.604   2.656   2.626 -0.6868 -0.1968 -0.4967
 9549TIP3   OH250137   6.371   5.235  12.898 -0.4304 -0.2703  0.1740
 9549TIP3    H150138   6.416   5.302  12.846 -1.0095  0.2086  0.2814
 9549TIP3    H250139   6.404   5.247  12.987  0.9107 -1.3905 -0.1342
 9550TIP3   OH250140   6.689   0.989   1.274 -0.3253 -0.2354  0.4370
 9550TIP3    H150141   6.756   0.944   1.325  0.4892 -0.9094 -1.1903
 9550TIP3    H250142   6.620   0.923   1.262  0.9283 -1.2210 -2.0661
 9551TIP3   OH250143   6.264   0.605  12.496  0.0371 -0.1197 -0.4765
 9551TIP3    H150144   6.206   0.654  12.556 -0.8937 -1.0246 -0.6038
 9551TIP3    H250145   6.290   0.669  12.431 -2.6198 -0.1217 -1.6871
 9552TIP3   OH250146   2.300   5.018  13.086 -0.1381 -0.4542  0.9272
 9552TIP3    H150147   2.302   4.970  13.168  0.9208 -0.6351  0.8125
 9552TIP3    H250148   2.225   4.982  13.038  0.4642 -1.7939  0.9599
 9553TIP3   OH250149   4.272   2.295  16.308 -0.1791  0.0421  0.9438
 9553TIP3    H150150   4.233   2.208  16.304  0.5790 -0.2971  0.8542
 9553TIP3    H250151   4.240   2.332  16.390 -0.6155 -0.2622  0.9168
 9554TIP3   OH250152   4.164   4.480   1.817 -0.2351 -0.1982  0.6361
 9554TIP3    H150153   4.237   4.486   1.755 -0.1914  0.5927  0.7583
 9554TIP3    H250154   4.195   4.422   1.886 -1.3377 -3.6606 -1.5184
 9555TIP3   OH250155   4.423   0.749   4.230 -0.3608  0.2038  0.6470
 9555TIP3    H150156   4.490   0.713   4.172 -1.5528 -2.0079  0.5617
 9555TIP3    H250157   4.422   0.843   4.209  2.9546  0.4328  0.9605
 9556TIP3   OH250158   6.359   3.383   0.157  0.2984  0.8509  0.0482
 9556TIP3    H150159   6.311   3.312   0.115 -2.1549  2.3848  0.0664
 9556TIP3    H250160   6.388   3.439   0.085  3.2770 -0.6410 -0.0664
 9557TIP3   OH250161   3.197   0.846  16.595 -0.0626 -0.1486  0.8849
 9557TIP3    H150162   3.162   0.930  16.625  0.6668  0.9479 -1.1564
 9557TIP3    H250163   3.166   0.838  16.505  2.1102 -0.7562  0.1260
 9558TIP3   OH250164   6.785   5.041  16.440 -0.0549  0.3906 -0.0646
 9558TIP3    H150165   6.843   4.994  16.501  0.5544  1.8719  0.5402
 9558TIP3    H250166   6.809   5.008  16.354  0.3408 -0.4117  0.3396
 9559TIP3   OH250167   2.994   3.931   4.932 -0.2565  0.2016  0.0189
 9559TIP3    H150168   3.042   4.007   4.898 -0.8168  0.8984  0.7512
 9559TIP3    H250169   2.902   3.956   4.926 -0.5807 -1.2214 -1.5869
 9560TIP3   OH250170   5.688   4.110   3.524  0.2211 -0.5079 -0.0797
 9560TIP3    H150171   5.595   4.130   3.535  0.5677  0.7796  0.7274
 9560TIP3    H250172   5.721   4.099   3.613  1.4498  2.1772 -0.1104
 9561TIP3   OH250173   5.884   1.365  13.242  0.0178 -0.2826 -0.0650
 9561TIP3    H150174   5.881   1.271  13.263  2.0321 -0.4409 -0.2562
 9561TIP3    H250175   5.851   1.408  13.321 -0.4304 -1.1383  0.2279
 9562TIP3   OH250176   5.861   2.992   0.998  0.0223  0.0877  0.9228
 9562TIP3    H150177   5.824   2.906   0.979 -3.3799  1.6038 -0.1564
 9562TIP3    H250178   5.879   3.031   0.913  0.1084  0.9851  1.3303
 9563TIP3   OH250179   0.757   1.906   4.605  0.8039 -0.7201 -0.2336
 9563TIP3    H150180   0.782   1.973   4.669  1.9974 -1.0802 -0.3031
 9563TIP3    H250181   0.672   1.874   4.636  0.5960  0.2596  0.2488
 9564TIP3   OH250182   1.496   6.576  14.374  0.4417 -0.2507  0.2525
 9564TIP3    H150183   1.442   6.584  14.295  0.1223  0.6792  0.5541
 9564TIP3    H250184   1.557   6.649  14.369  0.2660 -0.0450  0.9728
 9565TIP3   OH250185   5.127   6.138  15.669  0.8784 -0.0811 -0.2713
 9565TIP3    H150186   5.103   6.184  15.589 -0.3866 -1.5395 -0.7793
 9565TIP3    H250187   5.048   6.141  15.724  1.2449 -0.3818  0.2914
 9566TIP3   OH250188   3.768   0.724   1.520 -0.0019  0.2097  0.0323
 9566TIP3    H150189   3.722   0.769   1.591  0.6674  0.8476  0.0657
 9566TIP3    H250190   3.817   0.793   1.475 -0.7847 -0.0962 -1.3597
 9567TIP3   OH250191   3.464   2.850  12.755 -0.2899  0.4604  0.0632
 9567TIP3    H150192   3.445   2.891  12.839  1.7795  1.4705  0.1031
 9567TIP3    H250193   3.555   2.822  12.763  0.3051  1.5904 -2.2264
 9568TIP3   OH250194   1.192   3.666   4.248  0.0697  0.1195  0.1111
 9568TIP3    H150195   1.282   3.660   4.217  0.3909 -4.1068  1.2436
 9568TIP3    H250196   1.190   3.611   4.326 -3.4614  0.1063  0.1718
 9569TIP3   OH250197   6.028   2.892  13.413  0.3022 -0.1015  0.0968
 9569TIP3    H150198   6.116   2.883  13.377  0.3634 -0.4043  0.3126
 9569TIP3    H250199   6.027   2.980  13.452  0.8605 -0.4726  1.0045
 9570TIP3   OH250200   0.952   3.418   4.509  0.0616 -0.0624 -0.1460
 9570TIP3    H150201   1.022   3.481   4.490 -0.0278  0.1994  0.3798
 9570TIP3    H250202   0.967   3.346   4.447  1.3468 -0.4383  0.5613
 9571TIP3   OH250203   3.282   6.339  11.602 -0.6478 -0.2591 -0.3181
 9571TIP3    H150204   3.317   6.297  11.524 -0.9526  0.3897 -0.8214
 9571TIP3    H250205   3.259   6.428  11.572  0.6134  0.5087  0.8615
 9572TIP3   OH250206   2.236   1.468   4.792  0.2958  0.2581  0.1878
 9572TIP3    H150207   2.304   1.464   4.724  0.9722 -1.7130  0.9058
 9572TIP3    H250208   2.242   1.556   4.827  1.2909  0.6786 -0.9750
 9573TIP3   OH250209   5.324   5.430   1.103 -0.4134 -0.1060 -0.5660
 9573TIP3    H150210   5.333   5.348   1.053  1.0269  0.0937 -0.6880
 9573TIP3    H250211   5.304   5.401   1.192 -0.3263 -0.5829 -0.6972
 9574TIP3   OH250212   2.459   0.007   6.653 -0.5165 -0.2454  0.0139
 9574TIP3    H150213   2.421   0.079   6.603 -2.1810 -0.8577  0.3254
 9574TIP3    H250214   2.535  -0.021   6.602 -1.2433  0.1760 -1.3533
 9575TIP3   OH250215   1.084   0.602  14.525  0.8597 -0.7553  0.1223
 9575TIP3    H150216   1.028   0.642  14.458 -2.6312 -3.3614  1.1915
 9575TIP3    H250217   1.065   0.651  14.604 -0.3331 -1.9197  0.5829
 9576TIP3   OH250218   5.944   3.762  15.292 -0.0070 -0.5574 -0.1163
 9576TIP3    H150219   5.921   3.800  15.207 -1.2604 -0.6598  0.1568
 9576TIP3    H250220   6.025   3.715  15.276  1.7579  2.3396 -0.4464
 9577TIP3   OH250221   3.220   4.531  14.379  0.4849 -0.5250  0.0533
 9577TIP3    H150222   3.129   4.512  14.401  0.8228  0.0361  2.1580
 9577TIP3    H250223   3.218   4.619  14.343  0.1020 -0.8247 -0.6677
 9578TIP3   OH250224   1.343   3.144   5.289 -0.0306 -0.1525 -0.4848
 9578TIP3    H150225   1.434   3.117   5.284  0.1452 -0.1179  1.6265
 9578TIP3    H250226   1.346   3.231   5.331 -0.9890  0.1666 -1.0375
 9579TIP3   OH250227   4.830   1.295   4.415 -0.6276 -0.2331  0.3557
 9579TIP3    H150228   4.878   1.224   4.372  0.1004 -1.2510  2.6642
 9579TIP3    H250229   4.872   1.304   4.501 -0.5736  3.1720  0.1164
 9580TIP3   OH250230   5.349   6.027   0.520  0.5574 -0.1169 -0.1215
 9580TIP3    H150231   5.332   5.955   0.459 -0.2788  0.9406 -1.1774
 9580TIP3    H250232   5.417   5.993   0.579 -1.8209 -2.8794  1.3111
 9581TIP3   OH250233   6.037   3.073  14.524  0.1375  0.0820 -0.4851
 9581TIP3    H150234   5.954   3.081  14.571  0.3237 -1.5214  0.2043
 9581TIP3    H250235   6.070   2.987  14.549  2.8152  1.3004  0.5928
 9582TIP3   OH250236   0.409   5.732   4.614 -0.1857 -0.0292  0.4795
 9582TIP3    H150237   0.379   5.731   4.705 -0.0774 -1.5016  0.5144
 9582TIP3    H250238   0.330   5.749   4.562 -0.1024  1.7637  0.8658
 9583TIP3   OH250239   3.191   0.322   4.807 -0.3742  0.3116  0.0013
 9583TIP3    H150240   3.238   0.396   4.846  0.5662 -0.5618  0.5850
 9583TIP3    H250241   3.204   0.332   4.713  1.8232 -0.3748  0.1663
 9584TIP3   OH250242   3.799   0.938   3.291 -0.0280 -0.2351 -0.2769
 9584TIP3    H150243   3.875   0.896   3.332  0.5869  0.0256 -1.1202
 9584TIP3    H250244   3.740   0.958   3.363  0.0253 -1.8250  0.2357
 9585TIP3   OH250245   0.943   2.484   0.937  0.5772 -0.2280  0.3518
 9585TIP3    H150246   0.963   2.463   0.846 -2.8510 -0.2738 -0.4976
 9585TIP3    H250247   0.963   2.577   0.945 -1.7245  0.4940 -1.3568
 9586TIP3   OH250248   6.071   3.149   6.054  0.3541  0.5626  0.4485
 9586TIP3    H150249   6.080   3.142   6.149 -0.3983 -0.5176  0.4536
 9586TIP3    H250250   5.977   3.160   6.039  0.0227 -2.3148 -0.2780
 9587TIP3   OH250251   0.567   1.302  13.403 -0.0948  0.1290 -0.2679
 9587TIP3    H150252   0.542   1.302  13.311 -0.6360 -1.5282 -0.1474
 9587TIP3    H250253   0.489   1.272  13.449  1.4601 -3.6833  0.2658
 9588TIP3   OH250254   3.787   3.791   0.314  0.4607 -0.1091 -0.8416
 9588TIP3    H150255   3.811   3.873   0.358 -0.0792  0.6575 -1.9306
 9588TIP3    H250256   3.693   3.783   0.329  0.1110  0.5754 -2.4639
 9589TIP3   OH250257   4.893   4.019   0.946  0.4882  0.8561 -0.0933
 9589TIP3    H150258   4.797   4.019   0.949  0.5132 -0.0865  1.1807
 9589TIP3    H250259   4.920   3.999   1.035  1.8755  0.6099 -0.5494
 9590TIP3   OH250260   6.719   2.646   1.062  0.6246  0.5787 -0.0534
 9590TIP3    H150261   6.660   2.654   1.137  0.9868 -0.2990  0.3320
 9590TIP3    H250262   6.700   2.724   1.009  0.1546  1.0592  0.7912
 9591TIP3   OH250263   4.019   4.953   4.272  0.0877 -0.0383 -0.0622
 9591TIP3    H150264   3.941   5.008   4.267  0.4453  0.3830 -2.3531
 9591TIP3    H250265   4.028   4.931   4.365 -2.0561  0.8716  0.4140
 9592TIP3   OH250266   0.352   0.120  13.708  0.1403  0.1110  0.1240
 9592TIP3    H150267   0.381   0.140  13.619 -0.7179 -0.9957 -0.4340
 9592TIP3    H250268   0.289   0.049  13.697 -0.5741  0.4820  1.5533
 9593TIP3   OH250269   3.862   5.623  16.738  0.3880  0.0452 -0.4041
 9593TIP3    H150270   3.936   5.681  16.754 -0.6750  1.5862 -0.8428
 9593TIP3    H250271   3.785   5.680  16.743 -0.7325 -1.3787 -0.5983
 9594TIP3   OH250272   1.325   2.791  16.219 -0.4074 -0.2087 -0.4160
 9594TIP3    H150273   1.377   2.787  16.298 -0.1499 -0.9574 -0.6165
 9594TIP3    H250274   1.296   2.701  16.204 -1.2680  0.0922 -0.6302
 9595TIP3   OH250275   2.167   1.226  13.539  0.1486  0.2776 -0.3589
 9595TIP3    H150276   2.200   1.160  13.600  3.9016  1.1507 -1.1938
 9595TIP3    H250277   2.166   1.183  13.454 -1.0448  0.2514 -0.3446
 9596TIP3   OH250278   6.172   2.557  12.939 -0.0983  0.0601 -0.7655
 9596TIP3    H150279   6.190   2.649  12.961  0.0856  0.1198 -1.1679
 9596TIP3    H250280   6.169   2.513  13.024 -2.6852  0.8743 -0.3410
 9597TIP3   OH250281   2.347   2.228  15.729  0.5605 -0.3554  0.3202
 9597TIP3    H150282   2.418   2.276  15.772 -0.8724  2.7483 -0.4447
 9597TIP3    H250283   2.390   2.154  15.686  3.3106  1.2585  0.0598
 9598TIP3   OH250284   5.107   3.552   1.871 -0.8016  0.3443  0.2046
 9598TIP3    H150285   5.072   3.561   1.960 -1.1099  0.6279  0.0601
 9598TIP3    H250286   5.030   3.565   1.815 -0.8321 -1.0054 -0.0839
 9599TIP3   OH250287   5.623   2.486   4.065 -0.2306 -0.3856 -0.1789
 9599TIP3    H150288   5.601   2.410   4.119  0.3848 -0.0896  0.5026
 9599TIP3    H250289   5.539   2.528   4.048 -0.3311  0.2776  1.7118
 9600TIP3   OH250290   3.917   4.794  16.653 -0.1184  0.1220 -0.3193
 9600TIP3    H150291   3.961   4.811  16.570  0.4823  2.4841  0.4019
 9600TIP3    H250292   3.957   4.714  16.687  0.5908 -0.1092 -1.6597
 9601TIP3   OH250293   0.035   2.734   2.975  0.0400 -0.6518 -0.5692
 9601TIP3    H150294   0.068   2.806   2.921  1.2462 -0.4997  0.3134
 9601TIP3    H250295   0.054   2.655   2.924 -0.3722 -0.4206 -1.0963
 9602TIP3   OH250296   3.973   0.179   4.422  0.3279  0.1771 -0.0614
 9602TIP3    H150297   4.037   0.216   4.361  0.5076  1.1152  0.6679
 9602TIP3    H250298   3.888   0.203   4.386  0.4079 -0.1392 -0.4627
 9603TIP3   OH250299   1.279   5.475  13.444 -0.3183  0.6975 -0.1723
 9603TIP3    H150300   1.212   5.469  13.376 -0.6242  0.5188  0.1463
 9603TIP3    H250301   1.362   5.480  13.395 -0.0008 -4.4542 -0.6532
 9604TIP3   OH250302   2.799   4.658  12.988  0.6137 -0.3980 -0.4789
 9604TIP3    H150303   2.822   4.597  13.058 -0.5752  0.3481  0.6086
 9604TIP3    H250304   2.706   4.677  13.002  0.5376  0.3599 -1.8091
 9605TIP3   OH250305   0.987   0.186   1.261  0.0404 -0.4587 -0.3121
 9605TIP3    H150306   1.055   0.146   1.207  0.6720 -0.0637  0.1778
 9605TIP3    H250307   0.906   0.144   1.232  0.5026 -1.0199 -0.8238
 9606TIP3   OH250308   4.938   1.956  16.787 -0.0528  0.3453  0.1202
 9606TIP3    H150309   5.002   1.942  16.857  1.5535 -1.2368 -1.5324
 9606TIP3    H250310   4.918   1.868  16.755 -0.7863  1.0048 -1.3284
 9607TIP3   OH250311   3.147   1.660  13.822 -0.5219 -0.0541  0.0222
 9607TIP3    H150312   3.133   1.684  13.731 -1.3658 -0.3303  0.0736
 9607TIP3    H250313   3.235   1.621  13.823 -1.1725 -1.6775 -1.0189
 9608TIP3   OH250314   2.981   6.730  13.409 -0.2519  0.1232 -0.2310
 9608TIP3    H150315   2.919   6.657  13.402 -1.2253  0.9939 -0.9812
 9608TIP3    H250316   2.969   6.763  13.498  1.5067 -1.7213  0.7773
 9609TIP3   OH250317   2.163   6.505   2.397 -0.6259  0.0849 -0.4405
 9609TIP3    H150318   2.239   6.449   2.411 -0.3350  0.7714  0.9255
 9609TIP3    H250319   2.141   6.538   2.484 -1.3138  1.4066 -1.0795
 9610TIP3   OH250320   3.069   4.215  16.753  0.2523 -0.0232 -0.4027
 9610TIP3    H150321   3.117   4.259  16.682 -1.1852 -0.3001 -1.5832
 9610TIP3    H250322   2.980   4.208  16.721 -0.1231 -1.4703  0.8574
 9611TIP3   OH250323   4.667   5.701  16.371  0.2302 -0.7429  0.2456
 9611TIP3    H150324   4.715   5.759  16.430 -1.5078  2.4095 -1.1770
 9611TIP3    H250325   4.721   5.698  16.291  0.4309 -1.3434  0.3976
 9612TIP3   OH250326   3.359   0.337  15.958  0.4161 -0.0588  0.1074
 9612TIP3    H150327   3.436   0.380  15.920  0.2486  0.6255  0.5330
 9612TIP3    H250328   3.294   0.337  15.887  0.2861  0.7338  0.2256
 9613TIP3   OH250329   6.322   2.966  16.299 -0.0926 -0.0930 -0.3357
 9613TIP3    H150330   6.378   2.930  16.367 -0.3931 -0.9809 -0.5471
 9613TIP3    H250331   6.380   2.986  16.226 -0.1803 -2.3634 -1.1163
 9614TIP3   OH250332   3.335   6.481  11.899  0.0131 -0.1055 -0.4327
 9614TIP3    H150333   3.347   6.403  11.844 -0.9025  0.0655 -0.8924
 9614TIP3    H250334   3.346   6.450  11.988 -0.4254 -0.7844 -0.6085
 9615TIP3   OH250335   5.157   1.124  16.383 -0.1432  0.1669 -0.4159
 9615TIP3    H150336   5.213   1.144  16.308 -0.6082  1.8791 -0.3419
 9615TIP3    H250337   5.193   1.176  16.455 -0.4804 -0.4607  0.2170
 9616TIP3   OH250338   3.825   2.634   4.708 -0.1306  0.6131  0.3883
 9616TIP3    H150339   3.894   2.697   4.688 -0.4294  0.7132 -0.3576
 9616TIP3    H250340   3.835   2.565   4.642 -0.5398  0.4703  0.4713
 9617TIP3   OH250341   6.661   5.411  14.765  0.4980 -0.1541 -0.0283
 9617TIP3    H150342   6.630   5.381  14.850 -1.7468  1.1578 -0.3099
 9617TIP3    H250343   6.618   5.352  14.702 -0.3446  0.7739 -0.3561
 9618TIP3   OH250344   2.849   5.846   0.442 -0.5329  0.4059 -0.2311
 9618TIP3    H150345   2.885   5.934   0.456  0.1899 -0.2307  2.4853
 9618TIP3    H250346   2.756   5.854   0.463 -0.6120  0.6377 -0.6498
 9619TIP3   OH250347   4.793   1.808   2.950  0.2582  0.2320 -0.2834
 9619TIP3    H150348   4.767   1.900   2.955  0.5992  0.2569  1.7714
 9619TIP3    H250349   4.857   1.797   3.021  0.4937 -1.5168 -0.7117
 9620TIP3   OH250350   0.014   3.505  14.118  0.2103 -0.2682  0.0569
 9620TIP3    H150351  -0.002   3.561  14.194  1.3603  1.4073 -0.8674
 9620TIP3    H250352   0.006   3.564  14.043 -0.2586 -1.7448 -1.1032
 9621TIP3   OH250353   3.852   4.481  16.284  0.1222  0.1483  0.2541
 9621TIP3    H150354   3.764   4.516  16.272 -0.5633 -1.1761  1.1508
 9621TIP3    H250355   3.877   4.507  16.373 -0.4892 -1.7056  1.0228
 9622TIP3   OH250356   1.177   4.978   5.032  0.2487 -0.3787  0.7012
 9622TIP3    H150357   1.123   5.048   5.069 -1.1055 -1.1372  0.2331
 9622TIP3    H250358   1.201   4.923   5.107  1.2425  0.5060  1.0559
 9623TIP3   OH250359   1.240   2.469  15.135  0.5652 -1.0148 -0.1380
 9623TIP3    H150360   1.315   2.515  15.098  1.0660 -0.3823  1.6120
 9623TIP3    H250361   1.267   2.377  15.138  1.3729 -0.7673  0.6713
 9624TIP3   OH250362   5.666   2.473   2.914 -0.2347  0.0823 -0.0237
 9624TIP3    H150363   5.712   2.460   2.830 -1.3020  0.7663 -0.7431
 9624TIP3    H250364   5.573   2.476   2.890 -0.6167 -0.4686  1.2955
 9625TIP3   OH250365   4.497   3.962   4.399 -0.1671  0.1801  0.0463
 9625TIP3    H150366   4.407   3.990   4.418  0.9126  1.8942  3.5213
 9625TIP3    H250367   4.498   3.869   4.423 -1.1977 -0.1191 -0.9766
 9626TIP3   OH250368   6.387   5.648  11.332 -0.2036 -0.2672 -0.1677
 9626TIP3    H150369   6.301   5.661  11.291 -0.0242 -0.9160 -0.7689
 9626TIP3    H250370   6.379   5.564  11.377 -0.0334 -0.1008  0.1716
 9627TIP3   OH250371   5.014   1.300  11.304 -0.0547  0.1712 -0.0211
 9627TIP3    H150372   5.091   1.350  11.274 -0.2190  0.0933 -0.5781
 9627TIP3    H250373   4.943   1.365  11.306 -0.2248  0.0009 -0.5619
 9628TIP3   OH250374   5.637   0.948   5.749  0.2419  0.0402  0.5496
 9628TIP3    H150375   5.654   1.041   5.766 -1.0013  0.5211 -0.6348
 9628TIP3    H250376   5.707   0.921   5.689  0.5492  0.2301  0.8176
 9629TIP3   OH250377   4.410   6.573   1.564 -0.0124 -0.2297  0.3730
 9629TIP3    H150378   4.424   6.667   1.550 -2.5629  0.0922 -0.5132
 9629TIP3    H250379   4.368   6.568   1.650 -1.1597 -0.3818 -0.1770
 9630TIP3   OH250380   6.028   3.956   5.932  0.7359  0.0545  0.0064
 9630TIP3    H150381   6.000   4.036   5.888 -0.0842 -0.8241 -1.1336
 9630TIP3    H250382   5.954   3.932   5.989  1.1569  0.3366  0.6812
 9631TIP3   OH250383   3.949   3.844  13.357 -0.0702 -0.2096 -0.2324
 9631TIP3    H150384   3.935   3.763  13.406  0.1271 -0.2019 -0.1619
 9631TIP3    H250385   4.012   3.893  13.410 -0.9400  0.4288  0.2267
 9632TIP3   OH250386   3.522   4.712  13.374  0.3752 -0.6496  0.4359
 9632TIP3    H150387   3.538   4.629  13.330 -0.2124  0.1635 -1.4509
 9632TIP3    H250388   3.557   4.778  13.314  0.5973  0.4853  1.7577
 9633TIP3   OH250389   0.103   5.481  10.273  0.4660 -0.0750  0.0801
 9633TIP3    H150390   0.182   5.487  10.218  0.1091 -0.0585 -0.4404
 9633TIP3    H250391   0.133   5.506  10.360  1.3388 -1.3698  0.1891
 9634TIP3   OH250392   4.355   3.384   1.224  0.3459 -0.3156  0.0519
 9634TIP3    H150393   4.424   3.318   1.237  1.1681  0.1136 -1.8536
 9634TIP3    H250394   4.355   3.434   1.306  0.8045 -1.6621  0.9112
 9635TIP3   OH250395   3.186   5.807  16.796  0.0739  0.3775 -0.6769
 9635TIP3    H150396   3.260   5.864  16.778 -0.8432  2.3631  1.4158
 9635TIP3    H250397   3.109   5.860  16.774 -0.7878 -0.5526  0.0069
 9636TIP3   OH250398   2.707   6.534   1.022  0.8381  0.2920  0.2004
 9636TIP3    H150399   2.783   6.577   0.984  0.3791 -0.4783 -1.6876
 9636TIP3    H250400   2.634   6.559   0.965  0.0978 -0.8641  0.6090
 9637TIP3   OH250401   6.771   6.424  12.759  0.2884 -0.1275 -0.2104
 9637TIP3    H150402   6.784   6.489  12.828  1.6721  0.2717 -0.8150
 9637TIP3    H250403   6.795   6.468  12.679 -1.1085 -0.6565 -0.9600
 9638TIP3   OH250404   5.617   1.440  15.330  0.2468  0.4116 -0.0396
 9638TIP3    H150405   5.523   1.452  15.349  0.1705  1.2677 -0.8806
 9638TIP3    H250406   5.630   1.483  15.246  2.0241  3.0438  1.4433
 9639TIP3   OH250407   1.926   0.220  11.402 -0.2968  0.0192 -0.4622
 9639TIP3    H150408   1.908   0.172  11.483 -0.2655 -1.7416 -1.4648
 9639TIP3    H250409   1.931   0.153  11.334  2.5745  1.1257 -1.5012
 9640TIP3   OH250410   1.333   1.600  12.724 -0.1248  0.6457 -0.4032
 9640TIP3    H150411   1.272   1.588  12.796 -0.1258  0.4219 -0.4383
 9640TIP3    H250412   1.307   1.683  12.684 -1.4935 -0.2337 -1.4444
 9641TIP3   OH250413   1.800   2.986   4.297 -0.2341  0.1863 -0.0218
 9641TIP3    H150414   1.712   2.978   4.334 -0.8458  3.5598 -0.4400
 9641TIP3    H250415   1.786   3.022   4.209  1.5173 -1.5462 -1.1006
 9642TIP3   OH250416   1.561   3.630   1.402  0.2375 -0.2080  0.7379
 9642TIP3    H150417   1.478   3.611   1.360 -0.8105  1.2037  2.0768
 9642TIP3    H250418   1.567   3.567   1.474  1.0700 -1.2702 -0.2065
 9643TIP3   OH250419   0.890   3.263  12.339  0.1493 -0.6645  0.4013
 9643TIP3    H150420   0.863   3.186  12.389 -2.0385 -0.7493 -0.7551
 9643TIP3    H250421   0.968   3.236  12.292  1.1576 -1.1708  2.2678
 9644TIP3   OH250422   4.728   0.875  11.129  0.0648  0.0456 -0.1448
 9644TIP3    H150423   4.761   0.900  11.215  0.4174  2.1940 -0.8360
 9644TIP3    H250424   4.806   0.873  11.073 -0.2992 -0.2246 -0.6457
 9645TIP3   OH250425   3.817   3.082  16.887  0.1800 -0.3893  0.5166
 9645TIP3    H150426   3.787   3.132  16.811  0.8692 -0.2727  0.3156
 9645TIP3    H250427   3.749   3.017  16.901 -1.3745  1.3709  1.5625
 9646TIP3   OH250428   4.722   1.816  10.313  0.1229  0.0967  0.3193
 9646TIP3    H150429   4.640   1.825  10.363 -0.9024 -0.8409 -1.1081
 9646TIP3    H250430   4.730   1.899  10.266 -1.4309 -0.7229 -1.5088
 9647TIP3   OH250431   3.632   2.612  12.580 -0.1124 -0.0266  0.0018
 9647TIP3    H150432   3.678   2.686  12.619 -1.7253  0.9088  0.2200
 9647TIP3    H250433   3.558   2.651  12.534 -1.3184 -1.5304  0.5609
 9648TIP3   OH250434   2.614   6.416  10.956 -0.0129  0.3394 -0.5299
 9648TIP3    H150435   2.700   6.432  10.995  0.3858 -2.1215 -0.2267
 9648TIP3    H250436   2.619   6.326  10.923 -2.0455  0.5911 -1.6945
 9649TIP3   OH250437   2.339   1.931  11.646  0.0547 -0.2719  0.0047
 9649TIP3    H150438   2.274   1.944  11.715 -0.2902 -0.4110 -0.2907
 9649TIP3    H250439   2.313   1.850  11.603 -0.4671  0.4472 -1.0901
 9650TIP3   OH250440   6.386   2.041   5.544 -0.0842  0.0366  1.1140
 9650TIP3    H150441   6.343   2.127   5.539  1.9218  1.0527  0.3185
 9650TIP3    H250442   6.479   2.061   5.539  0.4766 -2.4169 -3.5932
 9651TIP3   OH250443   1.861   5.224  12.929 -0.0379  0.1220  0.3068
 9651TIP3    H150444   1.813   5.152  12.889  0.6165 -0.5076  0.6356
 9651TIP3    H250445   1.857   5.295  12.865 -1.3928  0.0818  0.3262
 9652TIP3   OH250446   4.387   3.960  16.726  0.1198 -0.7110 -0.6476
 9652TIP3    H150447   4.460   3.950  16.665  0.0840  1.6656 -1.1704
 9652TIP3    H250448   4.421   4.016  16.795 -1.3118  0.8732 -1.1562
 9653TIP3   OH250449   1.793   3.569  16.662  0.3126 -0.1647 -0.1825
 9653TIP3    H150450   1.699   3.551  16.664 -0.1410  1.9562 -0.1379
 9653TIP3    H250451   1.834   3.485  16.682 -1.5622 -1.1663 -0.3550
 9654TIP3   OH250452   0.419   4.050   2.645  0.1236 -0.1868  0.5169
 9654TIP3    H150453   0.393   3.963   2.677 -1.4980  0.3998  0.8992
 9654TIP3    H250454   0.341   4.104   2.657  0.4635  0.8530 -1.5512
 9655TIP3   OH250455   4.452   4.586  15.755 -0.1050 -0.5494 -0.2077
 9655TIP3    H150456   4.369   4.539  15.766 -1.4234  1.1259 -2.3700
 9655TIP3    H250457   4.499   4.568  15.837 -2.7200 -1.2489  1.2881
 9656TIP3   OH250458   3.641   2.854  10.361  0.2484 -0.2987 -0.1026
 9656TIP3    H150459   3.579   2.865  10.289  1.9172 -1.1498 -1.7528
 9656TIP3    H250460   3.706   2.923  10.348 -0.1198  0.4041  1.4393
 9657TIP3   OH250461   4.668   3.466  16.282  0.0392  0.5692  0.4963
 9657TIP3    H150462   4.689   3.375  16.299  2.2220  1.1374  1.1184
 9657TIP3    H250463   4.585   3.480  16.329  0.1286 -0.8389  1.1277
 9658TIP3   OH250464   2.953   2.356   1.203  0.0796  0.1198 -0.2369
 9658TIP3    H150465   2.945   2.370   1.298  0.1482 -0.4144 -0.1482
 9658TIP3    H250466   3.047   2.355   1.187  0.1159 -1.2103 -0.0775
 9659TIP3   OH250467   6.698   0.856  14.860  0.0643  0.0916  0.4136
 9659TIP3    H150468   6.683   0.875  14.767 -2.9179 -0.8649  0.5806
 9659TIP3    H250469   6.675   0.938  14.905  3.4543  1.2363  0.3203
 9660TIP3   OH250470   1.878   6.415  16.286  0.1413 -0.2388  0.7147
 9660TIP3    H150471   1.861   6.367  16.205  1.2956 -0.5661  0.6425
 9660TIP3    H250472   1.792   6.434  16.322 -0.3711 -0.6708 -0.2555
 9661TIP3   OH250473   3.811   3.949  15.430 -0.0413 -0.2023  0.5637
 9661TIP3    H150474   3.750   3.898  15.484  0.2145  0.2618  1.3168
 9661TIP3    H250475   3.888   3.961  15.486  1.2118 -1.6934 -0.7539
 9662TIP3   OH250476   0.664   0.903   4.489  0.2096 -1.0359  0.3671
 9662TIP3    H150477   0.744   0.861   4.458  0.5675 -0.8622  1.0425
 9662TIP3    H250478   0.671   0.901   4.584  0.3129  0.6810  0.4283
 9663TIP3   OH250479   5.232   0.314   2.471 -0.1242 -0.5554 -0.5570
 9663TIP3    H150480   5.327   0.321   2.457 -0.1731 -1.0177 -1.1466
 9663TIP3    H250481   5.219   0.349   2.559  0.3184  1.4998 -1.2681
 9664TIP3   OH250482   4.065   2.992   5.321  0.2260 -0.1244  0.0635
 9664TIP3    H150483   4.053   2.936   5.244 -1.9236  0.0193  0.2253
 9664TIP3    H250484   4.076   3.080   5.285 -1.1946  0.0053 -0.1174
 9665TIP3   OH250485   1.813   5.875  16.023  0.5230  0.3821 -0.2027
 9665TIP3    H150486   1.844   5.785  16.035  0.2537  0.2195 -0.7062
 9665TIP3    H250487   1.893   5.925  16.009  0.9517  0.7256  2.8834
 9666TIP3   OH250488   6.070   6.260  16.116 -0.0003  0.0522 -0.4596
 9666TIP3    H150489   6.132   6.310  16.168  0.1907  0.2714 -0.8908
 9666TIP3    H250490   5.993   6.317  16.108 -0.3082 -0.2640  0.1699
 9667TIP3   OH250491   1.860   5.415   4.282 -0.0666 -0.6067  0.8761
 9667TIP3    H150492   1.851   5.451   4.371  0.3762  1.5775  0.0951
 9667TIP3    H250493   1.954   5.420   4.264 -0.2767 -0.0026 -0.1009
 9668TIP3   OH250494   6.677   5.628  17.141  0.6288  0.1032  0.1334
 9668TIP3    H150495   6.599   5.599  17.187  0.2690 -0.6696 -0.9298
 9668TIP3    H250496   6.670   5.724  17.141 -0.6805  0.0264 -0.5630
 9669TIP3   OH250497   6.723   3.992  16.101 -0.1651  0.2257  0.1571
 9669TIP3    H150498   6.728   4.066  16.040 -1.4070  2.5749  2.7198
 9669TIP3    H250499   6.637   3.954  16.085 -0.4665  0.8034  0.3467
 9670TIP3   OH250500   0.942   0.507  10.539 -0.3682  0.2657  0.1029
 9670TIP3    H150501   1.036   0.524  10.538 -0.4078  1.1730 -3.7393
 9670TIP3    H250502   0.934   0.413  10.520 -0.2595  0.2373  0.1972
 9671TIP3   OH250503   2.565   1.504  12.017  0.6117 -0.3733 -0.7188
 9671TIP3    H150504   2.602   1.565  12.081 -1.1095 -0.0632  0.0420
 9671TIP3    H250505   2.487   1.548  11.984 -0.2403 -1.8110 -0.7243
 9672TIP3   OH250506   6.213   5.286  13.463 -0.1077  0.0749  0.2081
 9672TIP3    H150507   6.243   5.375  13.478  0.6220 -0.4257  2.0174
 9672TIP3    H250508   6.293   5.237  13.442 -0.6356  0.0060 -1.8651
 9673TIP3   OH250509   6.409   6.468   5.527  0.4921  0.1565 -0.2553
 9673TIP3    H150510   6.480   6.528   5.552  1.1936 -0.3222 -1.0503
 9673TIP3    H250511   6.388   6.493   5.437 -1.0418  0.9419  0.2806
 9674TIP3   OH250512   1.510   3.863  15.042  0.1870 -0.0292  0.3179
 9674TIP3    H150513   1.542   3.856  14.952  0.0734 -0.4010  0.3051
 9674TIP3    H250514   1.441   3.929  15.037 -0.5110 -0.7669 -0.0633
 9675TIP3   OH250515   4.881   1.274  13.206 -0.6379  0.6199  0.2645
 9675TIP3    H150516   4.833   1.343  13.161  0.1127  0.8733 -0.1634
 9675TIP3    H250517   4.960   1.316  13.239 -0.0590 -0.0660 -0.1936
 9676TIP3   OH250518   4.731   5.126   0.288  0.3345 -0.0065  1.1423
 9676TIP3    H150519   4.776   5.085   0.214 -2.0730 -1.4164  0.3478
 9676TIP3    H250520   4.782   5.100   0.364  2.5026  0.9384  0.0959
 9677TIP3   OH250521   5.554   1.181   4.920  0.1901 -0.3452  0.0830
 9677TIP3    H150522   5.532   1.089   4.904  1.2786 -0.4374 -1.0797
 9677TIP3    H250523   5.529   1.226   4.839  2.7209 -0.2327 -0.7407
 9678TIP3   OH250524   5.784   2.648   1.346 -0.0962 -0.0907 -0.0130
 9678TIP3    H150525   5.868   2.647   1.300  0.5093 -1.3284  1.0314
 9678TIP3    H250526   5.808   2.645   1.439 -1.2925 -0.3183  0.3046
 9679TIP3   OH250527   5.105   4.246   4.997 -0.0278  0.1293  0.4662
 9679TIP3    H150528   5.080   4.175   4.938  0.3747 -0.8375  1.3994
 9679TIP3    H250529   5.026   4.263   5.049 -0.4737  1.1932 -0.5405
 9680TIP3   OH250530   2.819   1.080  14.486  0.0781 -0.2403 -0.1086
 9680TIP3    H150531   2.765   1.003  14.470 -0.2571  0.0180 -0.2431
 9680TIP3    H250532   2.905   1.045  14.510 -0.4706 -0.6857  1.3294
 9681TIP3   OH250533   5.574   0.174   0.126 -0.1282  0.5146 -0.2493
 9681TIP3    H150534   5.480   0.163   0.142 -0.2001  0.9584 -0.3617
 9681TIP3    H250535   5.579   0.217   0.041  0.1287  1.8755  0.4305
 9682TIP3   OH250536   6.543   4.573  14.710 -0.1890 -0.3025  0.1618
 9682TIP3    H150537   6.483   4.563  14.785  0.4340 -1.8148  0.4872
 9682TIP3    H250538   6.486   4.596  14.637 -1.1548 -1.4522  0.5257
 9683TIP3   OH250539   0.253   4.463   1.825  0.2412  0.8885 -0.1876
 9683TIP3    H150540   0.157   4.456   1.820  0.3568 -1.3084 -0.4439
 9683TIP3    H250541   0.274   4.539   1.770 -1.3501  1.5259  0.0082
 9684TIP3   OH250542   6.257   4.275  12.045 -0.1782 -0.0314 -0.2973
 9684TIP3    H150543   6.293   4.349  11.995 -1.3421 -0.9569 -2.6836
 9684TIP3    H250544   6.334   4.228  12.076  0.6056  1.0025 -0.6188
 9685TIP3   OH250545   4.947   2.965  14.741  0.2542 -0.4401 -0.0998
 9685TIP3    H150546   4.952   2.920  14.825 -1.8938  2.2823  1.6924
 9685TIP3    H250547   4.986   3.051  14.757 -0.0438  0.0904 -1.9351
 9686TIP3   OH250548   4.717   3.732   5.802 -0.3336  0.3981  0.4594
 9686TIP3    H150549   4.807   3.724   5.833 -0.0192 -0.1298 -0.5484
 9686TIP3    H250550   4.725   3.746   5.707 -1.2509  2.3015  0.6104
 9687TIP3   OH250551   4.781   1.038  13.750 -0.7834  0.7227 -0.2680
 9687TIP3    H150552   4.713   1.102  13.729 -0.6255  0.9501 -0.0837
 9687TIP3    H250553   4.773   0.971  13.681 -1.2308  0.7168 -0.2132
 9688TIP3   OH250554   2.636   1.970   4.283  0.0780  0.1567 -0.0798
 9688TIP3    H150555   2.697   1.899   4.302  0.6678  1.0848  1.6855
 9688TIP3    H250556   2.629   1.970   4.187  0.9583 -1.5148 -0.1782
 9689TIP3   OH250557   5.006   4.180  15.118 -0.3576 -0.3102  0.2347
 9689TIP3    H150558   4.961   4.154  15.198 -1.1154  2.0608  0.6666
 9689TIP3    H250559   5.091   4.214  15.148 -0.5550  0.3779  0.0436
 9690TIP3   OH250560   5.279   1.494  14.679  0.2482  0.0781 -0.1406
 9690TIP3    H150561   5.287   1.522  14.771  0.6731 -1.3466  0.2838
 9690TIP3    H250562   5.222   1.417  14.682  1.8183 -1.1823 -0.7790
 9691TIP3   OH250563   2.637   3.252  12.840 -0.2323 -0.3124  0.1667
 9691TIP3    H150564   2.665   3.336  12.877 -0.3897  0.0928 -0.6238
 9691TIP3    H250565   2.621   3.270  12.748  0.0134 -1.2828 -0.0806
 9692TIP3   OH250566   4.379   4.448  15.006  0.0135  0.3411 -0.3680
 9692TIP3    H150567   4.315   4.514  14.978  0.4958  1.7949  1.6525
 9692TIP3    H250568   4.420   4.487  15.084  1.4113 -1.7323  0.0139
 9693TIP3   OH250569   4.759   0.540  12.998 -0.4158  0.1802  0.5970
 9693TIP3    H150570   4.835   0.531  12.940 -1.3527 -0.3780 -0.5907
 9693TIP3    H250571   4.777   0.619  13.049 -0.2753  1.6663 -1.6135
 9694TIP3   OH250572   6.422   5.046   0.681  0.0093  0.5799 -0.7415
 9694TIP3    H150573   6.420   4.961   0.637 -2.3006 -0.4305  1.0823
 9694TIP3    H250574   6.513   5.057   0.707  0.2770 -1.5947 -0.6019
 9695TIP3   OH250575   5.783   1.522  12.737 -0.2632  0.1424 -0.0391
 9695TIP3    H150576   5.853   1.569  12.691 -0.9356  0.6793 -0.5334
 9695TIP3    H250577   5.813   1.518  12.828  0.6483 -0.1017 -0.3340
 9696TIP3   OH250578   4.149   5.061   2.585  0.2419 -0.4517  0.6074
 9696TIP3    H150579   4.117   4.970   2.587  0.8541 -0.8044 -1.8529
 9696TIP3    H250580   4.108   5.099   2.507 -1.6029  2.1076  2.6732
 9697TIP3   OH250581   0.123   4.147  12.696 -0.0505  0.0178 -0.1374
 9697TIP3    H150582   0.171   4.226  12.669 -0.0556  0.7397  1.7795
 9697TIP3    H250583   0.191   4.081  12.709  0.0764  0.0574 -0.5754
 9698TIP3   OH250584   0.767   5.005  14.460  0.2464  0.4862  0.8132
 9698TIP3    H150585   0.700   4.970  14.401 -0.4307 -1.1592  2.4918
 9698TIP3    H250586   0.830   5.047  14.402 -0.7494 -0.4549 -1.0241
 9699TIP3   OH250587   4.735   6.319   3.779 -0.1218  0.1535  0.2504
 9699TIP3    H150588   4.772   6.263   3.847 -0.0883  0.1242  0.2080
 9699TIP3    H250589   4.672   6.263   3.733  0.2955 -0.0137 -0.1356
 9700TIP3   OH250590   2.245   1.230   2.248  0.2258 -0.2207 -0.4315
 9700TIP3    H150591   2.252   1.184   2.332 -0.0129  0.5365  0.0171
 9700TIP3    H250592   2.225   1.320   2.272  1.4198  0.2946 -1.2677
 9701TIP3   OH250593   1.728   1.032   5.067  0.2742  0.1629 -0.4443
 9701TIP3    H150594   1.727   0.967   5.138 -1.8146 -2.4073 -2.5894
 9701TIP3    H250595   1.816   1.028   5.032  0.1765 -1.6869 -0.5846
 9702TIP3   OH250596   6.530   0.056   1.061 -0.6944  0.3633 -0.9069
 9702TIP3    H150597   6.440   0.042   1.031 -1.0419  0.8633 -0.1401
 9702TIP3    H250598   6.545   0.149   1.048 -0.5428  0.4169 -0.3827
 9703TIP3   OH250599   3.771   5.443  12.790 -0.2298 -0.4443  0.5735
 9703TIP3    H150600   3.780   5.351  12.815 -0.9301 -0.3848  1.0549
 9703TIP3    H250601   3.789   5.492  12.870  1.4429 -0.0922  0.0187
 9704TIP3   OH250602   2.030   3.905  12.772 -0.3832 -0.1059 -0.6240
 9704TIP3    H150603   2.042   3.830  12.829  0.7284  0.5101 -0.0055
 9704TIP3    H250604   2.057   3.980  12.825  0.2196  0.5370 -1.7933
 9705TIP3   OH250605   6.563   0.179   2.920  0.1211 -0.4553 -0.2610
 9705TIP3    H150606   6.516   0.116   2.976  0.0179 -0.3006 -0.1711
 9705TIP3    H250607   6.652   0.181   2.955 -0.5282  1.4420  1.4658
 9706TIP3   OH250608   5.268   1.806   4.219  0.5866  0.1027 -0.2437
 9706TIP3    H150609   5.203   1.787   4.287  0.3525  1.8847  0.0951
 9706TIP3    H250610   5.217   1.809   4.138  0.0972  1.9919  0.0868
 9707TIP3   OH250611   0.153   6.478   5.923 -0.3398  0.6369 -0.5049
 9707TIP3    H150612   0.215   6.449   5.990 -2.4843 -1.1965  0.8314
 9707TIP3    H250613   0.101   6.546   5.966  1.4507  3.1760 -2.0511
 9708TIP3   OH250614   6.699   5.186  15.003 -1.1552  0.0960  0.0190
 9708TIP3    H150615   6.652   5.143  15.074 -1.3570 -0.8797 -0.6811
 9708TIP3    H250616   6.712   5.117  14.938 -0.1603  0.7401 -0.4894
 9709TIP3   OH250617   3.666   2.245   6.073 -0.0437  0.3059  0.3354
 9709TIP3    H150618   3.690   2.318   6.017 -0.5146  0.1931 -0.0265
 9709TIP3    H250619   3.730   2.246   6.144 -0.4633  1.5077  0.7234
 9710TIP3   OH250620   0.907   1.881   1.851  0.0177  0.2448  0.7251
 9710TIP3    H150621   0.957   1.915   1.925  0.5037  2.7131 -0.6160
 9710TIP3    H250622   0.903   1.954   1.789  0.7011 -2.0286 -2.2462
 9711TIP3   OH250623   5.738   1.904   4.608 -0.4959 -0.2028  0.5214
 9711TIP3    H150624   5.704   1.814   4.609  0.5862 -0.7120 -1.6171
 9711TIP3    H250625   5.785   1.910   4.525  2.3589  1.3008  2.1281
 9712TIP3   OH250626   5.771   0.480   3.052  0.1145  0.4851  0.1115
 9712TIP3    H150627   5.761   0.559   3.106  0.6308  0.4086  0.3184
 9712TIP3    H250628   5.837   0.428   3.097  0.2721  0.2432 -0.3944
 9713TIP3   OH250629   2.845   1.110   6.133 -0.7551  0.4650  0.2800
 9713TIP3    H150630   2.902   1.058   6.189  0.2106 -1.6000 -2.4006
 9713TIP3    H250631   2.904   1.174   6.092 -0.8786  0.1615 -0.3919
 9714TIP3   OH250632   6.826   4.236   4.568  0.2702 -0.0598  0.6626
 9714TIP3    H150633   6.915   4.273   4.563  1.2697 -2.4394 -1.0112
 9714TIP3    H250634   6.835   4.162   4.628 -0.1640 -1.2407 -0.6743
 9715TIP3   OH250635   4.521   6.549  15.289  0.4868  0.4841  0.0964
 9715TIP3    H150636   4.514   6.478  15.353 -0.2268  0.3222 -0.1490
 9715TIP3    H250637   4.549   6.506  15.208  0.0986  0.4814 -0.0403
 9716TIP3   OH250638   2.234   2.114   3.794 -0.3528  0.0190  0.7464
 9716TIP3    H150639   2.316   2.162   3.805  0.3903 -0.2912 -2.3892
 9716TIP3    H250640   2.219   2.113   3.699 -2.1908 -2.8768  0.9228
 9717TIP3   OH250641   0.665   4.473  17.164 -0.0771 -0.7085  0.0921
 9717TIP3    H150642   0.587   4.421  17.181  0.4353 -1.2886  0.7482
 9717TIP3    H250643   0.708   4.429  17.091 -0.0850 -0.7115  0.0887
 9718TIP3   OH250644   2.002   3.157   4.456  0.5383 -0.6228  0.1300
 9718TIP3    H150645   2.038   3.073   4.484 -0.1902 -0.4811  1.5775
 9718TIP3    H250646   1.917   3.135   4.419  1.3866 -0.7780 -1.8243
 9719TIP3   OH250647   3.917   4.304   5.026 -0.8519  0.3345 -0.7328
 9719TIP3    H150648   3.838   4.338   4.983 -1.1102  1.1507  0.3578
 9719TIP3    H250649   3.887   4.279   5.114 -0.0150  0.1014 -0.5058
 9720TIP3   OH250650   3.077   6.821  17.046 -0.1622  0.0834 -0.0907
 9720TIP3    H150651   3.061   6.737  17.003 -0.9123  1.1756 -2.0387
 9720TIP3    H250652   3.153   6.857  16.999  1.3829 -0.2664  1.9685
 9721TIP3   OH250653   4.301   4.040  11.654 -0.3357  0.4066 -0.3249
 9721TIP3    H150654   4.221   4.091  11.669  0.1592  1.0751  0.1280
 9721TIP3    H250655   4.301   3.974  11.722 -1.0191 -0.2602 -0.9561
 9722TIP3   OH250656   3.645   4.306  12.099 -0.2622 -0.6557 -0.1652
 9722TIP3    H150657   3.650   4.256  12.180  0.7284 -2.8987 -1.5090
 9722TIP3    H250658   3.551   4.320  12.086 -0.5184 -1.4488  0.7133
 9723TIP3   OH250659   5.682   4.838  11.159 -0.4736 -0.1478  0.4530
 9723TIP3    H150660   5.766   4.802  11.130 -0.1860  0.1142  0.9580
 9723TIP3    H250661   5.674   4.810  11.250  0.5240  2.3767  1.4077
 9724TIP3   OH250662   2.901   5.527   0.973 -0.0168 -0.0570  0.2582
 9724TIP3    H150663   2.964   5.456   0.966  0.4874  0.4990 -0.9749
 9724TIP3    H250664   2.954   5.607   0.973 -0.6753  0.3930 -0.1452
 9725TIP3   OH250665   6.345   4.122  16.581 -0.3316 -0.0215  0.4111
 9725TIP3    H150666   6.365   4.123  16.675  0.2802  1.2890  0.3031
 9725TIP3    H250667   6.274   4.059  16.572 -1.0230  0.4811  1.8907
 9726TIP3   OH250668   5.041   1.650  11.203  0.3163  0.1777 -0.0458
 9726TIP3    H150669   5.106   1.581  11.216  1.1336  1.0571  0.6457
 9726TIP3    H250670   4.957   1.607  11.223  0.8035 -0.6312  0.3385
 9727TIP3   OH250671   3.078   1.677  14.259 -0.6792 -0.0431 -0.0336
 9727TIP3    H150672   3.017   1.641  14.194  0.2612 -1.3036 -0.2580
 9727TIP3    H250673   3.026   1.741  14.307 -1.9970 -0.6072 -0.6485
 9728TIP3   OH250674   0.373   3.665  16.143  0.0631 -0.6056  0.1579
 9728TIP3    H150675   0.354   3.758  16.132  0.2879 -0.5191  0.4858
 9728TIP3    H250676   0.290   3.625  16.167 -0.0804 -0.5263 -0.1991
 9729TIP3   OH250677   6.078   0.140  12.267 -0.1397 -0.4233  1.2193
 9729TIP3    H150678   5.986   0.168  12.266 -0.0982 -0.2851  1.2846
 9729TIP3    H250679   6.074   0.047  12.245 -0.0815  0.1522 -1.5724
 9730TIP3   OH250680   3.447   4.851  15.184  0.1848 -0.5512 -0.4323
 9730TIP3    H150681   3.408   4.910  15.121  1.0359  1.4548  0.8026
 9730TIP3    H250682   3.533   4.829  15.147  2.1692  3.2663  1.2217
 9731TIP3   OH250683   0.492   2.904   1.868 -0.2145  0.0747 -0.0126
 9731TIP3    H150684   0.509   2.998   1.864 -0.7947  0.2520  1.2710
 9731TIP3    H250685   0.468   2.888   1.959 -0.0018 -1.3452 -0.1884
 9732TIP3   OH250686   4.282   5.257   4.015 -0.4643 -0.5293  0.2131
 9732TIP3    H150687   4.208   5.305   4.052  0.7806  1.7823 -0.0924
 9732TIP3    H250688   4.247   5.216   3.936 -1.3401  0.9147 -0.1820
 9733TIP3   OH250689   0.169   0.244  14.874 -0.5790 -0.7526 -0.2303
 9733TIP3    H150690   0.151   0.191  14.951  0.4204 -0.2379  0.3711
 9733TIP3    H250691   0.157   0.184  14.800 -0.0738 -1.6521  0.4017
 9734TIP3   OH250692   2.232   1.500  15.288  0.2741  0.1374 -0.3069
 9734TIP3    H150693   2.219   1.405  15.293 -0.7364  0.1742 -1.7143
 9734TIP3    H250694   2.148   1.537  15.316  0.6769  0.6276  0.2706
 9735TIP3   OH250695   4.880   6.833  15.187 -0.4093 -0.0033 -0.1020
 9735TIP3    H150696   4.871   6.925  15.161  0.0757  0.3345  0.8791
 9735TIP3    H250697   4.951   6.800  15.132  1.0915  0.8987  1.1927
 9736TIP3   OH250698   6.831   2.805   1.977 -0.1556 -0.5107 -0.5627
 9736TIP3    H150699   6.861   2.819   1.887  3.0514  0.5312  0.5042
 9736TIP3    H250700   6.857   2.716   1.997  0.3404 -0.3169 -0.3103
 9737TIP3   OH250701   1.351   0.255   4.208  0.4758 -0.0437 -0.2822
 9737TIP3    H150702   1.411   0.285   4.275  1.9913 -0.3657 -1.4439
 9737TIP3    H250703   1.358   0.159   4.210 -1.2033 -0.1952  0.6022
 9738TIP3   OH250704   5.495   3.932   2.144 -0.2968  0.5314  0.3877
 9738TIP3    H150705   5.564   3.882   2.100 -0.1617  1.3486 -0.3534
 9738TIP3    H250706   5.458   3.870   2.208 -1.4021 -1.1389 -1.7417
 9739TIP3   OH250707   0.569   1.207   2.031  0.0726  0.0251 -0.2603
 9739TIP3    H150708   0.499   1.183   2.091  0.6953  1.7426  1.2651
 9739TIP3    H250709   0.525   1.236   1.952 -0.8364 -1.0070 -0.1421
 9740TIP3   OH250710   1.132   1.601   4.987  0.0303  0.0868 -0.2569
 9740TIP3    H150711   1.210   1.572   4.940  1.3464  2.7868  0.0379
 9740TIP3    H250712   1.059   1.562   4.939  1.5163 -2.1637 -0.8191
 9741TIP3   OH250713   0.988   2.245   0.735  0.5786  0.6018 -0.3285
 9741TIP3    H150714   1.083   2.243   0.736  0.6410 -1.4013 -2.0059
 9741TIP3    H250715   0.963   2.242   0.827  2.2357 -2.6703  0.1867
 9742TIP3   OH250716   2.194   3.891  13.840 -0.4266 -0.2445 -0.1382
 9742TIP3    H150717   2.115   3.932  13.876 -1.0682 -1.4722 -0.0884
 9742TIP3    H250718   2.252   3.964  13.818 -1.6389  0.6801 -0.3139
 9743TIP3   OH250719   6.369   6.083  12.229 -0.1205 -0.7439 -0.2880
 9743TIP3    H150720   6.401   6.030  12.303 -1.2969 -0.0358  0.7752
 9743TIP3    H250721   6.284   6.045  12.208 -1.1868  0.9003  0.7706
 9744TIP3   OH250722   2.704   5.272  13.189 -0.1387  0.5839  0.3329
 9744TIP3    H150723   2.647   5.221  13.130  1.9414 -0.0241 -1.2984
 9744TIP3    H250724   2.761   5.207  13.229  0.0898  1.2798  1.1665
 9745TIP3   OH250725   1.930   3.154   5.247  0.2298  0.0178  0.0922
 9745TIP3    H150726   1.865   3.175   5.314  0.3841  0.7825  0.0154
 9745TIP3    H250727   2.012   3.191   5.280  0.0846  1.3766 -1.0044
 9746TIP3   OH250728   1.584   0.644   1.598  0.0101  0.4608 -0.0153
 9746TIP3    H150729   1.654   0.597   1.554  0.4678  0.7816  0.3611
 9746TIP3    H250730   1.590   0.616   1.689 -0.7852 -0.0260 -0.1010
 9747TIP3   OH250731   4.180   3.858  16.351  0.1820  0.3813  0.4606
 9747TIP3    H150732   4.112   3.802  16.313  1.1799 -0.4612 -0.1566
 9747TIP3    H250733   4.218   3.806  16.421  2.6251 -0.7399 -1.5322
 9748TIP3   OH250734   3.577   0.185   1.862 -0.3737 -0.0212  0.1484
 9748TIP3    H150735   3.543   0.229   1.940  0.2622  1.1981 -0.2350
 9748TIP3    H250736   3.669   0.168   1.883 -0.8040 -1.9806  0.6174
 9749TIP3   OH250737   4.972   6.569   2.403 -0.1302  0.0639 -0.5560
 9749TIP3    H150738   5.049   6.569   2.346  0.4280 -1.8134  0.1301
 9749TIP3    H250739   4.975   6.654   2.447  2.3582 -0.4399  0.4547
 9750TIP3   OH250740   4.432   2.040  14.512 -0.0330  0.9640  0.0933
 9750TIP3    H150741   4.507   2.039  14.572 -0.3586 -1.0200  0.5426
 9750TIP3    H250742   4.435   2.126  14.471  2.1446  1.1623  0.5464
 9751TIP3   OH250743   1.019   3.396  17.173  0.7965 -0.6020 -0.0214
 9751TIP3    H150744   0.939   3.359  17.211 -1.4190  3.1605 -0.5138
 9751TIP3    H250745   1.072   3.421  17.248 -0.4099  0.5279  0.4911
 9752TIP3   OH250746   0.307   0.755  17.046  0.4460 -0.1393  0.8786
 9752TIP3    H150747   0.278   0.749  17.137  2.2116 -0.7949  1.4618
 9752TIP3    H250748   0.245   0.702  16.997 -0.4150  0.0518  1.7424
 9753TIP3   OH250749   1.582   6.307  10.680 -0.2397 -0.6937 -0.1099
 9753TIP3    H150750   1.600   6.311  10.586  1.5080 -0.5114  0.1846
 9753TIP3    H250751   1.505   6.252  10.688 -0.6703 -0.3587 -1.6769
 9754TIP3   OH250752   0.863   5.106  13.061 -0.0842  0.2942  0.2707
 9754TIP3    H150753   0.817   5.189  13.047 -0.9787 -0.1232  0.6902
 9754TIP3    H250754   0.812   5.061  13.128 -0.1077 -0.9641 -0.5531
 9755TIP3   OH250755   2.128   2.225  16.574 -0.1957  0.0171 -0.2480
 9755TIP3    H150756   2.217   2.247  16.602 -1.0718  0.7743  2.1106
 9755TIP3    H250757   2.138   2.207  16.480  2.3843  0.3372 -0.1324
 9756TIP3   OH250758   0.709   2.959  14.295 -0.3793 -0.2316  0.1307
 9756TIP3    H150759   0.712   2.971  14.200  0.3640 -0.9267  0.0576
 9756TIP3    H250760   0.708   3.048  14.330 -1.0524  0.0344 -0.5297
 9757TIP3   OH250761   3.894   2.436  16.651 -0.3752  0.2537  0.4000
 9757TIP3    H150762   3.846   2.377  16.709 -0.0395 -0.3341  0.1031
 9757TIP3    H250763   3.828   2.466  16.588 -0.5693  0.2678  0.6068
 9758TIP3   OH250764   2.745   0.218   1.489 -0.0534  0.0376  0.6507
 9758TIP3    H150765   2.722   0.130   1.458 -0.7714  0.2314  0.6323
 9758TIP3    H250766   2.836   0.209   1.519  1.2358  0.1873 -2.7840
 9759TIP3   OH250767   2.145   2.630  14.194 -0.8681 -0.4465  0.4797
 9759TIP3    H150768   2.196   2.699  14.152  0.8942 -1.3095  1.0918
 9759TIP3    H250769   2.208   2.560  14.211 -1.9366 -0.9900  2.6416
 9760TIP3   OH250770   4.559   5.964   2.970  0.4094  0.1383  0.1125
 9760TIP3    H150771   4.490   6.027   2.949  1.7784  1.3422 -0.9430
 9760TIP3    H250772   4.576   5.978   3.063  0.2734  0.9136  0.0292
 9761TIP3   OH250773   4.710   5.063  16.086 -0.3416  0.5193  0.2221
 9761TIP3    H150774   4.671   5.126  16.147  0.0099  0.8308  0.1280
 9761TIP3    H250775   4.782   5.023  16.136  0.7579  1.6731 -0.3750
 9762TIP3   OH250776   3.219   5.581  15.867  0.2937 -0.5481  0.0136
 9762TIP3    H150777   3.303   5.547  15.837 -1.4356 -5.3992 -0.0818
 9762TIP3    H250778   3.225   5.580  15.963 -0.2107 -2.8038  0.0613
 9763TIP3   OH250779   6.802   6.799  11.280  0.0672  0.6493 -0.0388
 9763TIP3    H150780   6.732   6.773  11.340  0.3719 -0.8228 -0.2940
 9763TIP3    H250781   6.761   6.798  11.193  0.3011  0.1204 -0.1484
 9764TIP3   OH250782   3.288   1.757   0.641 -0.1564  0.0418  0.8972
 9764TIP3    H150783   3.240   1.698   0.699 -0.8123 -1.9394 -1.4880
 9764TIP3    H250784   3.220   1.813   0.603 -0.5325 -1.8995 -1.5007
 9765TIP3   OH250785   5.085   1.828   0.217 -0.0072 -0.0140  0.0839
 9765TIP3    H150786   5.051   1.901   0.269  0.7825  1.6762 -1.6623
 9765TIP3    H250787   5.174   1.815   0.249 -0.4665 -0.8907  1.0505
 9766TIP3   OH250788   1.771   3.947   5.524  0.3418 -0.4706  0.1991
 9766TIP3    H150789   1.742   3.895   5.599  0.6623  0.2612  0.8429
 9766TIP3    H250790   1.723   4.030   5.532  2.4554  0.7332  1.2389
 9767TIP3   OH250791   1.685   0.944   1.218  0.2293 -0.3423  0.4952
 9767TIP3    H150792   1.604   0.897   1.197 -1.5796  0.8080  4.1321
 9767TIP3    H250793   1.704   0.920   1.308  2.8293  1.0495  0.4013
 9768TIP3   OH250794   0.306   4.945   4.202  0.2064  0.6084  0.4256
 9768TIP3    H150795   0.363   5.022   4.206 -0.7949  1.3374  3.8783
 9768TIP3    H250796   0.217   4.980   4.205 -0.2976 -0.6351  0.7207
 9769TIP3   OH250797   4.525   6.776  13.795  0.6971 -0.1205 -0.0710
 9769TIP3    H150798   4.545   6.725  13.874 -0.4096 -0.9636 -0.3129
 9769TIP3    H250799   4.568   6.861  13.810  0.5411 -0.2806  1.4171
 9770TIP3   OH250800   0.155   1.658  12.850 -0.0676 -0.9878 -0.1216
 9770TIP3    H150801   0.199   1.682  12.769  2.0405 -2.3861  0.5081
 9770TIP3    H250802   0.197   1.576  12.877 -0.0368 -0.1223  2.8324
 9771TIP3   OH250803   2.543   5.899  11.207 -0.0768  0.0371 -0.3751
 9771TIP3    H150804   2.619   5.841  11.210  0.1778  0.3999  1.4102
 9771TIP3    H250805   2.490   5.865  11.135  0.5208 -1.8486  0.0160
 9772TIP3   OH250806   0.740   4.137   3.048  0.2363  0.1840  0.2068
 9772TIP3    H150807   0.691   4.215   3.076  1.0504  0.1234  1.9782
 9772TIP3    H250808   0.683   4.094   2.985 -0.3713  2.0403 -0.5748
 9773TIP3   OH250809   0.048   6.373   2.053 -0.2157 -0.0825 -0.2511
 9773TIP3    H150810   0.142   6.366   2.069 -0.1446  0.1840 -0.5424
 9773TIP3    H250811   0.021   6.449   2.105  0.2776  1.7029 -2.4174
 9774TIP3   OH250812   1.871   1.987  16.354 -0.6488  0.8420 -0.3035
 9774TIP3    H150813   1.864   1.976  16.449  1.3300 -1.1715 -0.2850
 9774TIP3    H250814   1.847   2.078  16.338 -2.3479  0.8571  1.9440
 9775TIP3   OH250815   1.122   2.018  12.685 -0.0421 -0.2640 -0.2338
 9775TIP3    H150816   1.028   2.023  12.668  0.3015  2.2769 -1.7612
 9775TIP3    H250817   1.162   2.013  12.599  1.3510  3.3034  0.0425
 9776TIP3   OH250818   5.034   1.143   0.420 -0.1268  0.0885 -0.5052
 9776TIP3    H150819   5.085   1.219   0.393 -0.3597  0.4673  0.1068
 9776TIP3    H250820   5.099   1.079   0.449  0.0867 -0.0676 -1.2907
 9777TIP3   OH250821   5.309   4.965  12.052  0.3013 -0.0454 -0.1333
 9777TIP3    H150822   5.251   4.987  12.125  1.2510  1.1837  0.2907
 9777TIP3    H250823   5.282   5.025  11.982 -0.6048 -1.2183 -0.8266
 9778TIP3   OH250824   2.672   3.834   2.421 -0.6203 -0.3282 -0.0372
 9778TIP3    H150825   2.695   3.795   2.505 -0.1778 -0.3654 -0.1748
 9778TIP3    H250826   2.597   3.782   2.390  0.1259 -1.2521 -0.3405
 9779TIP3   OH250827   5.801   0.840  17.140 -0.3677 -0.3701  0.1042
 9779TIP3    H150828   5.709   0.851  17.163 -0.3234 -0.9120  0.5666
 9779TIP3    H250829   5.800   0.824  17.046 -0.5672  1.6965 -0.2903
 9780TIP3   OH250830   1.393   2.103   3.989 -0.3343 -0.1930  0.4914
 9780TIP3    H150831   1.304   2.136   3.998 -0.7170 -0.9173 -0.5211
 9780TIP3    H250832   1.390   2.043   3.915  1.4298  1.3405 -0.9447
 9781TIP3   OH250833   2.531   1.678  12.242  0.1069  0.1572  0.7996
 9781TIP3    H150834   2.447   1.724  12.239  0.3402  0.5543 -0.3529
 9781TIP3    H250835   2.596   1.748  12.236  0.4764 -0.2483 -0.0444
 9782TIP3   OH250836   6.298   1.490   1.723 -0.1740 -0.3847 -0.6174
 9782TIP3    H150837   6.250   1.566   1.756  0.3341 -0.7569  1.0813
 9782TIP3    H250838   6.298   1.428   1.796  2.1128 -0.7441 -0.8516
 9783TIP3   OH250839   2.479   1.100   0.389 -0.2882 -0.3928  0.4840
 9783TIP3    H150840   2.438   1.122   0.473  0.8292  0.2030  0.8846
 9783TIP3    H250841   2.409   1.114   0.325 -1.5126 -1.9572  1.3915
 9784TIP3   OH250842   5.768   2.260   1.406 -0.4852  0.2724 -0.1665
 9784TIP3    H150843   5.778   2.165   1.405  1.3256  0.3986  0.9054
 9784TIP3    H250844   5.812   2.290   1.326  1.2239  0.3255  0.7449
 9785TIP3   OH250845   5.208   4.654  10.891 -0.4630  0.0800  0.0516
 9785TIP3    H150846   5.137   4.691  10.840 -1.3017 -1.5180  0.0062
 9785TIP3    H250847   5.250   4.730  10.932 -1.3417  1.1620 -0.9765
 9786TIP3   OH250848   0.848   5.120  12.124 -0.1465 -0.0716  0.2041
 9786TIP3    H150849   0.775   5.176  12.152 -0.4488 -0.6121  0.5076
 9786TIP3    H250850   0.860   5.058  12.196 -1.0793 -1.6262 -0.9045
 9787TIP3   OH250851   0.252   0.849  16.641  0.1248 -0.0156 -0.3246
 9787TIP3    H150852   0.206   0.777  16.686  0.6858 -1.0313 -1.3289
 9787TIP3    H250853   0.301   0.893  16.710 -0.5226 -0.3512  0.3721
 9788TIP3   OH250854   5.792   5.596   5.016  0.3504 -0.1264 -0.3603
 9788TIP3    H150855   5.750   5.682   5.006  0.3249 -0.1385 -0.3596
 9788TIP3    H250856   5.772   5.551   4.934  2.0547  0.5918 -1.2186
 9789TIP3   OH250857   1.506   1.910  17.037 -0.0942  0.0247  0.4969
 9789TIP3    H150858   1.446   1.952  16.976 -1.6873 -0.4377  1.6872
 9789TIP3    H250859   1.553   1.983  17.079  0.0340  0.3979 -0.2832
 9790TIP3   OH250860   1.142   0.532  12.794  0.2431 -0.7006  0.5062
 9790TIP3    H150861   1.208   0.599  12.810 -1.3686  0.9839  0.3877
 9790TIP3    H250862   1.183   0.473  12.730  1.4454  0.5338  0.0899
 9791TIP3   OH250863   2.406   1.400  10.984 -0.2355  0.3384 -1.0246
 9791TIP3    H150864   2.351   1.331  10.947  0.2545 -0.4372 -0.3670
 9791TIP3    H250865   2.428   1.367  11.071  0.2836  1.1835 -0.8325
 9792TIP3   OH250866   5.002   3.042   4.903  0.3501  0.1646  0.4792
 9792TIP3    H150867   4.990   2.996   4.820 -0.0030 -0.4881  0.8786
 9792TIP3    H250868   5.096   3.063   4.905  0.3774  0.1098 -0.0423
 9793TIP3   OH250869   2.958   2.219   3.266 -0.0119  0.1327  0.3045
 9793TIP3    H150870   3.005   2.281   3.321 -0.4242  1.5030 -0.8052
 9793TIP3    H250871   3.020   2.195   3.197 -0.8259  1.9230 -1.1452
 9794TIP3   OH250872   4.914   4.347   1.456 -1.3180  0.0110  0.3221
 9794TIP3    H150873   4.957   4.431   1.445 -2.3825  0.5907  0.4185
 9794TIP3    H250874   4.983   4.287   1.482  0.1351  0.0606 -2.9463
 9795TIP3   OH250875   2.887   0.601  13.460 -0.3123 -0.3633  0.3333
 9795TIP3    H150876   2.956   0.577  13.523 -0.5552  0.0493  0.7674
 9795TIP3    H250877   2.914   0.559  13.379 -0.3035 -1.4047  0.8547
 9796TIP3   OH250878   2.738   1.551  13.688 -0.4572  0.7062 -0.4064
 9796TIP3    H150879   2.786   1.471  13.665  1.5598  0.8543  2.6646
 9796TIP3    H250880   2.664   1.520  13.740  0.2270  0.7658  0.6361
 9797TIP3   OH250881   0.253   6.345  12.490  0.2375 -0.1821 -0.2644
 9797TIP3    H150882   0.264   6.253  12.469  0.4422 -0.2497  0.1215
 9797TIP3    H250883   0.327   6.388  12.447 -1.1561  0.1477 -2.4854
 9798TIP3   OH250884   1.433   3.116  16.713  0.1901  0.3300 -0.2109
 9798TIP3    H150885   1.435   3.028  16.752  0.7428 -0.2793 -1.5396
 9798TIP3    H250886   1.340   3.138  16.708  0.0202 -0.3597 -0.2219
 9799TIP3   OH250887   0.600   4.040  16.221  0.4409  0.6189 -0.3112
 9799TIP3    H150888   0.546   4.093  16.279  0.3640 -0.1413  0.3356
 9799TIP3    H250889   0.541   3.974  16.187  0.4743  1.0932 -1.3149
 9800TIP3   OH250890   5.874   6.365   4.636  1.0340  0.1501 -0.2749
 9800TIP3    H150891   5.902   6.435   4.694  0.1424  0.7026 -0.4913
 9800TIP3    H250892   5.906   6.285   4.678 -2.3655  0.1576  2.9014
 9801TIP3   OH250893   4.481   3.672   0.397  0.5075  0.4422 -0.2738
 9801TIP3    H150894   4.549   3.731   0.430 -0.1975  1.1632 -0.0671
 9801TIP3    H250895   4.461   3.706   0.310  0.8078 -0.1095 -0.5566
 9802TIP3   OH250896   0.664   4.220  11.598  0.6450 -0.3349  0.2788
 9802TIP3    H150897   0.725   4.164  11.646 -0.1207 -0.9448  0.5587
 9802TIP3    H250898   0.720   4.274  11.542  1.4934 -0.2608  1.1801
 9803TIP3   OH250899   0.355   6.013  10.927 -0.4150 -0.5572 -0.2253
 9803TIP3    H150900   0.326   5.942  10.869 -0.6066 -0.8613  0.2367
 9803TIP3    H250901   0.371   6.087  10.868 -0.9521 -0.7544 -0.6254
 9804TIP3   OH250902   4.214   3.230   3.312 -0.0311  0.0063 -0.5445
 9804TIP3    H150903   4.121   3.235   3.288 -0.0400 -0.5258 -0.6348
 9804TIP3    H250904   4.256   3.195   3.234  0.1895 -0.1425 -0.3572
 9805TIP3   OH250905   4.824   0.730  16.197 -0.6278  0.6237 -0.9433
 9805TIP3    H150906   4.783   0.685  16.271 -0.6054  3.0311  0.6293
 9805TIP3    H250907   4.755   0.736  16.131 -0.9573 -0.6359 -0.7424
 9806TIP3   OH250908   3.838   5.552  11.261  0.1374 -0.1751  0.3305
 9806TIP3    H150909   3.813   5.543  11.353 -0.2322  1.9040  0.4780
 9806TIP3    H250910   3.920   5.602  11.263  2.1390 -3.1553 -0.3706
 9807TIP3   OH250911   0.053   2.916   1.745  0.0564 -0.1995 -0.7956
 9807TIP3    H150912   0.083   3.006   1.731  0.7576 -0.5333 -1.5068
 9807TIP3    H250913  -0.038   2.916   1.715 -0.0077  0.3117 -0.6133
 9808TIP3   OH250914   4.393   4.796   5.892  0.1718 -0.3006  0.3928
 9808TIP3    H150915   4.377   4.726   5.955 -0.5924 -0.3411  0.1614
 9808TIP3    H250916   4.472   4.839   5.924  1.9893 -2.6484 -0.6840
 9809TIP3   OH250917   4.906   2.351   5.437 -0.2969  0.5434 -0.6657
 9809TIP3    H150918   4.824   2.313   5.467 -0.0456  0.0538 -0.6001
 9809TIP3    H250919   4.906   2.337   5.342  1.2743 -2.5905 -0.3163
 9810TIP3   OH250920   2.252   3.638   2.913 -0.2791  0.2863 -0.3681
 9810TIP3    H150921   2.194   3.662   2.840  2.0004 -1.1317 -2.8392
 9810TIP3    H250922   2.304   3.717   2.929  0.4196  0.0996 -1.5765
 9811TIP3   OH250923   6.515   3.231  13.670  0.2063  0.2440  0.0122
 9811TIP3    H150924   6.451   3.274  13.614  2.7933  2.3932 -1.5359
 9811TIP3    H250925   6.512   3.279  13.753  0.0672  0.5892 -0.1930
 9812TIP3   OH250926   5.739   2.199   0.585  0.0781 -0.1367  0.5634
 9812TIP3    H150927   5.728   2.110   0.552  0.5800 -0.3726  1.0072
 9812TIP3    H250928   5.692   2.200   0.669 -0.3229  0.1559  0.3374
 9813TIP3   OH250929   1.844   1.924  12.570 -0.2443 -0.4634  0.6019
 9813TIP3    H150930   1.776   1.950  12.508 -0.1915  2.0363  1.4792
 9813TIP3    H250931   1.801   1.930  12.656  0.3952 -1.3331  0.9961
 9814TIP3   OH250932   4.310   3.272  16.051 -0.2568 -0.3376 -0.1109
 9814TIP3    H150933   4.380   3.208  16.040 -1.1164 -1.0969 -1.4791
 9814TIP3    H250934   4.342   3.351  16.008  0.5675  0.0001  1.0653
 9815TIP3   OH250935   3.150   3.031   4.634 -0.1510 -0.1038 -0.8440
 9815TIP3    H150936   3.203   2.967   4.587  0.5455 -0.6179  0.5707
 9815TIP3    H250937   3.062   2.995   4.632  0.5604 -2.3722  1.8082
 9816TIP3   OH250938   0.487   5.543  13.900 -0.7967 -0.1797  0.8468
 9816TIP3    H150939   0.479   5.480  13.972 -0.5355  0.2491  1.2618
 9816TIP3    H250940   0.521   5.622  13.942  1.9059 -0.7138 -0.1597
 9817TIP3   OH250941   6.064   1.082   1.995 -0.1958  0.8604  0.1676
 9817TIP3    H150942   5.976   1.118   1.982 -0.0333  0.8148 -1.1740
 9817TIP3    H250943   6.053   0.988   1.983  0.0037  0.8345  0.1863
 9818TIP3   OH250944   1.469   5.840  15.543 -0.0907  0.3911 -0.4318
 9818TIP3    H150945   1.534   5.833  15.613 -2.6051  2.2275  2.3538
 9818TIP3    H250946   1.451   5.933  15.536 -1.3564  0.0644 -2.1541
 9819TIP3   OH250947   0.988   1.628   1.040  0.5460 -0.7942 -0.3297
 9819TIP3    H150948   0.984   1.720   1.068 -1.6816 -1.0209  0.2738
 9819TIP3    H250949   0.975   1.578   1.120  1.2482 -1.6427 -0.7304
 9820TIP3   OH250950   1.657   5.803   1.909 -0.9302 -0.2968 -0.0548
 9820TIP3    H150951   1.566   5.801   1.939 -1.2772 -0.5738 -1.0873
 9820TIP3    H250952   1.708   5.821   1.988 -1.7509 -1.7548  0.8544
 9821TIP3   OH250953   3.900   1.144  14.454  0.5235  0.4745  0.5806
 9821TIP3    H150954   3.926   1.179  14.539  1.1277 -0.7145  0.8988
 9821TIP3    H250955   3.946   1.061  14.447 -1.2483 -0.5126  0.0737
 9822TIP3   OH250956   0.097   3.054  13.779  0.1258 -0.2773 -0.1040
 9822TIP3    H150957   0.127   3.048  13.688  0.5386  1.4543 -0.1164
 9822TIP3    H250958   0.135   2.978  13.822  0.8293 -0.5328 -1.1477
 9823TIP3   OH250959   0.437   3.440  13.658  0.5199 -0.3492 -0.4060
 9823TIP3    H150960   0.447   3.469  13.749  0.8487  0.1295 -0.5930
 9823TIP3    H250961   0.526   3.429  13.627  0.4246  0.3664 -0.9498
 9824TIP3   OH250962   6.435   5.521  15.856  0.3134  0.0388  0.1965
 9824TIP3    H150963   6.527   5.531  15.834  0.4357 -0.3476  0.5233
 9824TIP3    H250964   6.395   5.483  15.778  0.3179  0.7398 -0.1534
 9825TIP3   OH250965   2.397   2.191  11.135 -0.4892  0.1206 -0.7368
 9825TIP3    H150966   2.393   2.107  11.181 -0.7396  1.1377  1.1870
 9825TIP3    H250967   2.476   2.186  11.082 -0.2890 -1.1798 -0.3437
 9826TIP3   OH250968   4.343   5.111   0.073 -0.9618  0.2978 -0.5428
 9826TIP3    H150969   4.254   5.143   0.091 -0.5701  1.9983 -1.4508
 9826TIP3    H250970   4.355   5.126  -0.021 -0.0974 -0.9386 -0.6453
 9827TIP3   OH250971   5.166   2.256   3.665 -0.1172 -0.4422 -0.0801
 9827TIP3    H150972   5.109   2.241   3.590  0.1303 -1.0690 -0.1454
 9827TIP3    H250973   5.228   2.322   3.635  0.6321 -1.4437 -0.7882
 9828TIP3   OH250974   6.549   1.198   0.090 -0.0793 -0.2421 -0.3643
 9828TIP3    H150975   6.620   1.207   0.027 -0.0450 -0.3209 -0.3364
 9828TIP3    H250976   6.562   1.270   0.152 -0.7281  0.4917 -1.0495
 9829TIP3   OH250977   5.573   1.646   4.067 -0.0208 -0.0877  0.0972
 9829TIP3    H150978   5.622   1.706   4.124 -0.3023  0.7786 -0.5393
 9829TIP3    H250979   5.641   1.607   4.011  0.2091 -0.6496  0.7594
 9830TIP3   OH250980   2.001   5.050   2.953  0.3483 -0.3232  0.1907
 9830TIP3    H150981   2.054   5.025   2.878 -1.9125 -0.7059 -1.3644
 9830TIP3    H250982   2.015   5.145   2.962  0.8629 -0.3290 -0.5121
 9831TIP3   OH250983   0.711   3.862   3.993 -0.0983 -0.1241 -0.5921
 9831TIP3    H150984   0.778   3.844   4.060 -0.6420  2.1445  0.6839
 9831TIP3    H250985   0.760   3.869   3.911  1.1159  0.5723  0.1615
 9832TIP3   OH250986   3.848   3.025   1.422 -0.1181 -0.1510 -0.0666
 9832TIP3    H150987   3.754   3.028   1.405  0.0158  0.3363 -0.7649
 9832TIP3    H250988   3.864   2.936   1.455 -0.7681 -0.3404 -0.2508
 9833TIP3   OH250989   1.731   1.320   2.791 -0.1747  0.1365 -0.4243
 9833TIP3    H150990   1.805   1.354   2.741 -0.7929  1.8010 -0.2597
 9833TIP3    H250991   1.682   1.397   2.817 -0.6981 -0.7734  1.4904
 9834TIP3   OH250992   5.040   5.389  10.551 -0.0915  0.2820  0.0695
 9834TIP3    H150993   4.955   5.370  10.511  1.1593 -1.3532 -2.0327
 9834TIP3    H250994   5.041   5.484  10.561 -2.3516  0.3062  0.6969
 9835TIP3   OH250995   1.943   0.977  15.740 -0.4743 -0.1354 -0.2654
 9835TIP3    H150996   1.888   1.005  15.813 -0.9827  1.0091 -1.0551
 9835TIP3    H250997   2.023   0.945  15.781 -1.2342 -0.6641  0.8417
 9836TIP3   OH250998   4.044   2.608   6.093  0.3549  0.2527  0.5614
 9836TIP3    H150999   4.097   2.655   6.157  0.4342  0.5424  0.2854
 9836TIP3    H251000   3.957   2.648   6.100  0.7310  1.3048 -0.5501
 9837TIP3   OH251001   6.016   4.315  14.987 -0.6903  0.1743  0.0234
 9837TIP3    H151002   6.064   4.270  15.057 -1.4536  0.2912  0.6303
 9837TIP3    H251003   6.002   4.247  14.920 -0.3210 -0.0430  0.1631
 9838TIP3   OH251004   2.411   5.051   3.635  0.4148 -0.0509 -0.5831
 9838TIP3    H151005   2.506   5.062   3.641  0.3070  0.5045  0.2982
 9838TIP3    H251006   2.398   4.956   3.639  0.8780 -0.0866  0.3588
 9839TIP3   OH251007   1.597   2.016  11.700 -0.0903 -0.2325  0.1787
 9839TIP3    H151008   1.561   2.040  11.615  0.4702  0.7972  0.2183
 9839TIP3    H251009   1.614   2.100  11.743 -1.1605 -0.7459  1.6520
 9840TIP3   OH251010   4.990   0.778  16.646 -0.4935 -0.2826  0.3159
 9840TIP3    H151011   5.024   0.795  16.734  1.3478  0.8414 -0.5584
 9840TIP3    H251012   4.981   0.683  16.642 -1.2611 -0.3159  1.9195
 9841TIP3   OH251013   1.815   2.917  13.989 -0.5434 -0.8529 -0.0067
 9841TIP3    H151014   1.730   2.953  13.962 -1.6423 -1.5271  2.2925
 9841TIP3    H251015   1.809   2.910  14.084  2.2075 -0.7175  0.2672
 9842TIP3   OH251016   4.792   0.048   2.908 -0.1350 -0.0949 -0.9985
 9842TIP3    H151017   4.712  -0.005   2.911  0.2741 -0.7110 -0.7010
 9842TIP3    H251018   4.781   0.113   2.977  1.0929 -2.3622  1.5424
 9843TIP3   OH251019   2.691   2.623  16.439  0.1540 -0.1845  0.7490
 9843TIP3    H151020   2.696   2.534  16.406 -1.1483 -0.5692  1.4894
 9843TIP3    H251021   2.736   2.621  16.523  1.7893  0.3360 -0.0775
 9844TIP3   OH251022   6.364   5.654  16.252  0.5630 -0.1480  0.2525
 9844TIP3    H151023   6.407   5.586  16.303  0.4626  1.5248  2.7192
 9844TIP3    H251024   6.435   5.702  16.211  0.7858 -0.1190  0.6713
 9845TIP3   OH251025   6.131   4.498  14.563 -0.1308  0.1041  0.1351
 9845TIP3    H151026   6.082   4.490  14.644 -0.0356 -1.9478  0.0296
 9845TIP3    H251027   6.080   4.559  14.510 -1.5352 -0.5016  0.7513
 9846TIP3   OH251028   6.739   5.054   3.680  1.0819 -0.6573 -0.3136
 9846TIP3    H151029   6.751   5.023   3.770 -3.1211 -4.3870 -0.6917
 9846TIP3    H251030   6.657   5.102   3.681  1.0792 -0.5518 -2.1151
 9847TIP3   OH251031   0.799   1.427  16.911  0.5794 -0.1028 -0.0778
 9847TIP3    H151032   0.710   1.463  16.917  1.6767  3.1491 -0.8798
 9847TIP3    H251033   0.793   1.357  16.846 -1.4863 -0.4390  0.4069
 9848TIP3   OH251034   5.098   2.097   0.911 -0.4695 -0.3784  0.0955
 9848TIP3    H151035   5.023   2.102   0.852  0.3290  0.7500 -0.8770
 9848TIP3    H251036   5.088   2.172   0.969 -0.3185 -0.4633  0.2311
 9849TIP3   OH251037   3.945   3.166  13.257  0.5333  0.4366  0.0133
 9849TIP3    H151038   3.987   3.087  13.291  0.1894  0.8734  1.5155
 9849TIP3    H251039   3.991   3.184  13.175  1.8167 -0.3137  0.5418
 9850TIP3   OH251040   4.864   2.059  12.240  0.1132  0.2299 -0.4159
 9850TIP3    H151041   4.788   2.018  12.199  0.4296 -0.2111 -0.5616
 9850TIP3    H251042   4.834   2.147  12.263 -0.9387 -0.4446  0.9511
 9851TIP3   OH251043   6.552   5.158   0.247 -0.2871  0.4248  0.0853
 9851TIP3    H151044   6.609   5.219   0.201  0.7342 -0.9933 -0.5856
 9851TIP3    H251045   6.609   5.115   0.311 -1.2041  0.8089  1.2124
 9852TIP3   OH251046   1.604   4.064   3.961 -0.6175 -0.4744  0.1455
 9852TIP3    H151047   1.512   4.079   3.982 -0.3539  0.6759  0.5885
 9852TIP3    H251048   1.626   3.983   4.006 -1.3948 -0.7324  0.0826
 9853TIP3   OH251049   0.448   2.976  12.735 -0.3688  0.2764  0.7209
 9853TIP3    H151050   0.385   2.948  12.668  0.4358  1.3774 -0.5367
 9853TIP3    H251051   0.465   3.068  12.715  2.1662 -0.1650  0.5835
 9854TIP3   OH251052   2.213   0.852   6.226 -0.1785 -0.2752  0.5368
 9854TIP3    H151053   2.170   0.900   6.155 -0.1897 -0.7554  0.2196
 9854TIP3    H251054   2.229   0.765   6.190 -0.4373 -0.6101  1.2142
 9855TIP3   OH251055   5.731   4.636  12.557 -0.8165  0.2303  0.1206
 9855TIP3    H151056   5.725   4.683  12.474 -1.9183 -0.8105 -0.4117
 9855TIP3    H251057   5.671   4.562  12.548 -0.2741 -0.4219  1.5081
 9856TIP3   OH251058   0.306   4.840   2.466  0.1411 -0.0615  0.0641
 9856TIP3    H151059   0.346   4.818   2.382  1.7637 -0.2738  0.8490
 9856TIP3    H251060   0.363   4.908   2.502  0.2718 -0.9360  1.5862
 9857TIP3   OH251061   3.573   3.313  11.894  0.1330  0.9492 -0.3952
 9857TIP3    H151062   3.666   3.328  11.876  1.2196 -2.7020  1.1938
 9857TIP3    H251063   3.529   3.390  11.859  3.6348  2.3861 -2.1240
 9858TIP3   OH251064   1.615   0.051   2.339 -0.3136 -0.1766  0.0535
 9858TIP3    H151065   1.574   0.089   2.261 -0.6585 -0.3321  0.1575
 9858TIP3    H251066   1.626   0.126   2.398 -0.1578 -0.0794 -0.0955
 9859TIP3   OH251067   1.846   3.471   4.454 -0.3928 -0.1768  0.3613
 9859TIP3    H151068   1.815   3.408   4.519 -0.6332 -0.0812  0.3422
 9859TIP3    H251069   1.928   3.504   4.489 -0.2155 -0.5705  0.3285
 9860TIP3   OH251070   3.858   5.221  11.809 -0.3782  0.1491  0.2416
 9860TIP3    H151071   3.924   5.182  11.753  1.4514  1.1554  1.5649
 9860TIP3    H251072   3.868   5.177  11.893 -2.5485 -0.8149  0.0610
 9861TIP3   OH251073   1.748   6.513   4.394 -0.3945  0.0353  0.2748
 9861TIP3    H151074   1.660   6.494   4.426 -0.5273  0.7539  0.3543
 9861TIP3    H251075   1.800   6.527   4.473 -0.9149  2.6645  0.2355
 9862TIP3   OH251076   1.630   4.679  15.685  0.2360 -0.1090  0.3217
 9862TIP3    H151077   1.589   4.675  15.772  1.0723 -0.2328  0.7134
 9862TIP3    H251078   1.566   4.636  15.627  0.1627 -1.0504  1.0712
 9863TIP3   OH251079   4.518   0.051   1.796 -0.7691  0.0019  0.5941
 9863TIP3    H151080   4.440  -0.005   1.791 -0.3582 -0.6121  0.9992
 9863TIP3    H251081   4.569   0.016   1.868  0.4166 -0.2621 -0.3350
 9864TIP3   OH251082   1.025   5.257   0.945  0.3965  0.6960  0.1514
 9864TIP3    H151083   1.042   5.351   0.950 -0.9154  0.9045  1.0418
 9864TIP3    H251084   0.952   5.249   0.884 -0.2221  0.3581  0.9258
 9865TIP3   OH251085   6.315   2.672   2.031 -0.0775 -0.0303 -0.5174
 9865TIP3    H151086   6.283   2.762   2.035  0.8226  0.2593  0.7079
 9865TIP3    H251087   6.301   2.637   2.119 -0.9320 -1.2880 -1.1314
 9866TIP3   OH251088   4.685   2.759   4.771  0.4355 -0.6189 -0.1185
 9866TIP3    H151089   4.719   2.674   4.742  1.8173  0.3039 -1.2901
 9866TIP3    H251090   4.682   2.812   4.692  2.2177  1.3019  1.0069
 9867TIP3   OH251091   1.747   3.837   3.707  0.0979  0.0466 -0.3853
 9867TIP3    H151092   1.771   3.772   3.641  2.7754  1.9338 -1.4475
 9867TIP3    H251093   1.739   3.919   3.658 -2.2821  0.7567  1.0406
 9868TIP3   OH251094   0.271   2.172   3.166  0.0675 -0.2301 -0.0618
 9868TIP3    H151095   0.301   2.108   3.230 -0.6001  0.3515  0.8643
 9868TIP3    H251096   0.342   2.177   3.102  0.2706 -1.6357  0.0164
 9869TIP3   OH251097   4.689   5.298  12.487 -0.1477 -0.1718 -0.0456
 9869TIP3    H151098   4.731   5.263  12.566 -0.3251 -2.4524 -0.8888
 9869TIP3    H251099   4.622   5.358  12.521  1.8989  1.4184  1.3898
 9870TIP3   OH251100   0.015   5.900  12.138 -0.1498 -0.1237 -0.0624
 9870TIP3    H151101  -0.022   5.912  12.226  0.5937  1.5761  0.0504
 9870TIP3    H251102  -0.026   5.968  12.085  0.9935  0.2422 -0.5120
 9871TIP3   OH251103   0.243   0.072  11.898  0.0974 -0.4850  0.4524
 9871TIP3    H151104   0.236  -0.004  11.840 -0.7476 -0.8532  1.0228
 9871TIP3    H251105   0.337   0.091  11.902  0.2520 -1.0531 -0.2527
 9872TIP3   OH251106   4.190   6.313   5.246 -0.2386 -0.6243 -0.5765
 9872TIP3    H151107   4.279   6.337   5.219 -0.2598  0.0520 -0.0707
 9872TIP3    H251108   4.184   6.219   5.227  1.1772 -1.0742  0.9451
 9873TIP3   OH251109   0.920   3.827  16.148  0.2447 -0.6825 -1.0676
 9873TIP3    H151110   0.928   3.922  16.151  1.7080 -0.7628  1.9923
 9873TIP3    H251111   0.825   3.811  16.151  0.0122  0.7005 -0.0515
 9874TIP3   OH251112   1.811   5.629   0.975 -0.0204 -0.6192  0.1934
 9874TIP3    H151113   1.805   5.538   0.947 -1.5552 -0.8144  1.0766
 9874TIP3    H251114   1.775   5.679   0.901 -1.4808 -0.9270  0.6788
 9875TIP3   OH251115   0.912   1.034  16.085 -0.1335  0.0399 -0.0643
 9875TIP3    H151116   0.881   0.944  16.070 -1.5485  0.2209  1.4563
 9875TIP3    H251117   0.892   1.080  16.003  1.5073 -1.2141 -1.2349
 9876TIP3   OH251118   3.115   2.343   2.479 -0.4122  0.7643  0.2195
 9876TIP3    H151119   3.179   2.273   2.492 -0.2316  0.9336  0.2632
 9876TIP3    H251120   3.083   2.330   2.390 -0.0498  0.8898  0.0688
 9877TIP3   OH251121   4.703   1.718  12.298  0.0971 -0.0716 -0.6159
 9877TIP3    H151122   4.782   1.679  12.335  0.8515  1.1140 -0.9262
 9877TIP3    H251123   4.638   1.648  12.302  1.1071 -1.0220 -0.2022
 9878TIP3   OH251124   3.936   2.592   3.542  0.4849 -0.3886 -0.0022
 9878TIP3    H151125   4.000   2.648   3.498  1.2274 -1.5278 -0.4231
 9878TIP3    H251126   3.975   2.574   3.628  0.7213 -1.0460 -0.2418
 9879TIP3   OH251127   6.087   1.928   1.537  0.2366 -0.0913  0.1333
 9879TIP3    H151128   6.122   1.937   1.626 -1.1482 -1.8358  0.9151
 9879TIP3    H251129   6.099   1.836   1.516  1.4621  0.4849 -1.9459
 9880TIP3   OH251130   4.200   1.355  10.548 -0.0718  0.2569 -0.5188
 9880TIP3    H151131   4.243   1.393  10.624 -0.2436 -0.0120 -0.2844
 9880TIP3    H251132   4.113   1.329  10.580 -0.1406  0.1313 -0.8022
 9881TIP3   OH251133   0.589   5.388  12.767  0.1155  0.0574 -0.1736
 9881TIP3    H151134   0.549   5.467  12.732  0.9068  0.1386 -0.9385
 9881TIP3    H251135   0.577   5.323  12.697 -0.2766 -0.4261  0.3331
 9882TIP3   OH251136   3.860   0.858   6.341 -0.0415 -0.7628 -0.0847
 9882TIP3    H151137   3.931   0.796   6.358  1.2231  0.7143  0.3526
 9882TIP3    H251138   3.887   0.904   6.261 -1.0419 -0.8853 -0.5085
 9883TIP3   OH251139   0.319   6.832  16.742  0.3545 -0.0862 -0.3582
 9883TIP3    H151140   0.304   6.741  16.765  1.3870 -0.4294 -1.0009
 9883TIP3    H251141   0.289   6.881  16.819  1.6917 -1.0867  0.8390
 9884TIP3   OH251142   5.269   3.384  12.865  0.5121  0.0849 -0.6455
 9884TIP3    H151143   5.336   3.450  12.847 -0.7722  2.8419  3.1866
 9884TIP3    H251144   5.186   3.433  12.861 -0.5990 -1.4523  1.5342
 9885TIP3   OH251145   4.814   0.911   2.465 -0.0719 -0.3854 -0.4044
 9885TIP3    H151146   4.889   0.893   2.523  0.3615 -2.5322 -1.5327
 9885TIP3    H251147   4.741   0.927   2.524  0.5144 -1.8245  0.7742
 9886TIP3   OH251148   4.016   6.203   3.664 -0.3577  0.6017 -0.4901
 9886TIP3    H151149   3.992   6.284   3.620 -1.3712  0.5206 -0.1015
 9886TIP3    H251150   4.090   6.227   3.719 -1.1802  1.4668  0.2641
 9887TIP3   OH251151   4.555   0.740   5.472  0.1525 -0.3819 -0.6469
 9887TIP3    H151152   4.465   0.761   5.445 -0.1918  0.0121  0.7286
 9887TIP3    H251153   4.602   0.822   5.460 -0.5420  0.5048  2.0421
 9888TIP3   OH251154   4.284   2.312  12.792  0.2155  1.2467 -0.0777
 9888TIP3    H151155   4.250   2.240  12.739  0.9425  0.0786  0.9687
 9888TIP3    H251156   4.215   2.378  12.790 -1.1214 -0.0798  0.0979
 9889TIP3   OH251157   3.653   0.977   2.001  0.1948 -0.0755 -0.4193
 9889TIP3    H151158   3.635   1.071   1.993 -1.1593 -0.3155 -0.4677
 9889TIP3    H251159   3.726   0.961   1.942 -0.2437  0.7714 -1.2218
 9890TIP3   OH251160   5.944   0.604  11.872 -0.3604  0.3057 -0.6791
 9890TIP3    H151161   5.987   0.637  11.794 -0.0990 -0.8684 -1.0502
 9890TIP3    H251162   6.003   0.629  11.944  0.0044  0.3293 -0.9838
 9891TIP3   OH251163   3.041   2.811  14.292 -0.2119 -0.0627  0.3598
 9891TIP3    H151164   3.091   2.875  14.342 -0.5203 -0.0223  0.6161
 9891TIP3    H251165   3.102   2.781  14.224 -0.1809  0.7845  0.0006
 9892TIP3   OH251166   2.742   4.744   3.047 -0.2865 -0.1742  0.0214
 9892TIP3    H151167   2.770   4.829   3.015 -0.2317  0.0404  0.6256
 9892TIP3    H251168   2.780   4.737   3.135  1.5433 -1.7331 -0.8182
 9893TIP3   OH251169   4.080   6.523   4.978 -0.5297  0.4283 -0.1489
 9893TIP3    H151170   4.023   6.599   4.987 -0.1210  0.8910 -1.3884
 9893TIP3    H251171   4.024   6.456   4.939 -1.9429 -1.1786  3.9903
 9894TIP3   OH251172   1.178   5.417  15.127  0.4405  0.0854 -0.5816
 9894TIP3    H151173   1.195   5.447  15.216 -1.3785 -1.0671  0.2148
 9894TIP3    H251174   1.258   5.370  15.102  0.5366 -0.6229  0.9263
 9895TIP3   OH251175   3.627   3.660  14.188 -0.1549  0.2063  0.1008
 9895TIP3    H151176   3.552   3.602  14.196 -0.8774  1.1697  0.6539
 9895TIP3    H251177   3.618   3.720  14.263  0.5791  0.9812 -0.4168
 9896TIP3   OH251178   2.571   0.972  17.188 -0.4575  0.3802  0.2164
 9896TIP3    H151179   2.515   1.006  17.258 -0.1668  0.9952  0.1543
 9896TIP3    H251180   2.522   0.899  17.152 -1.3136  1.0186  0.0450
 9897TIP3   OH251181   3.017   5.664   5.801  0.3277  0.6512  0.2043
 9897TIP3    H151182   2.968   5.606   5.743 -0.2180  1.6126 -0.3063
 9897TIP3    H251183   3.086   5.702   5.746  0.2721  0.9953  0.3698
 9898TIP3   OH251184   6.419   5.230  15.823  0.1287 -0.0134  0.0507
 9898TIP3    H151185   6.386   5.293  15.888  1.1348  1.2986 -0.6643
 9898TIP3    H251186   6.470   5.168  15.874 -0.0242  0.3460  0.6566
 9899TIP3   OH251187   5.763   1.378  16.490 -0.0498  0.0652 -0.3658
 9899TIP3    H151188   5.679   1.394  16.446  0.6063  0.8044 -1.3824
 9899TIP3    H251189   5.822   1.349  16.420  0.5074 -0.6479  0.3756
 9900TIP3   OH251190   6.062   2.233  11.781  0.1544 -0.6226 -0.5332
 9900TIP3    H151191   6.146   2.264  11.750 -0.5323  0.7604 -1.0651
 9900TIP3    H251192   6.011   2.312  11.798 -1.8310 -1.3950 -2.4182
 9901TIP3   OH251193   5.824   3.749  12.492  0.5352 -0.2289  0.1558
 9901TIP3    H151194   5.894   3.691  12.464  1.8188  1.3240  0.0208
 9901TIP3    H251195   5.758   3.742  12.423  0.2259 -2.1715  0.5818
 9902TIP3   OH251196   3.982   6.608   3.982  0.2061  0.1216 -0.4215
 9902TIP3    H151197   4.006   6.518   4.004  1.8786  1.1277  2.3517
 9902TIP3    H251198   4.045   6.634   3.915  0.2261 -0.5191 -0.6583
 9903TIP3   OH251199   5.039   5.978  12.152  0.4219  0.3935 -0.6322
 9903TIP3    H151200   5.053   6.035  12.077  0.9429 -0.1891 -0.9934
 9903TIP3    H251201   4.980   5.910  12.119  0.1853  0.4584 -0.3439
 9904TIP3   OH251202   1.014   1.622  16.493 -0.1986 -0.0869 -0.0902
 9904TIP3    H151203   0.973   1.587  16.414  0.4658  0.2135 -0.5729
 9904TIP3    H251204   1.087   1.563  16.511  0.4581  0.5940 -0.4648
 9905TIP3   OH251205   1.932   6.812   3.403  0.2340 -0.3445  0.5095
 9905TIP3    H151206   1.976   6.810   3.318  1.1002  0.6469  0.9221
 9905TIP3    H251207   1.868   6.740   3.398 -0.5194  0.3835 -1.3955
 9906TIP3   OH251208   5.045   2.315  11.773 -0.2109  0.1455 -0.3422
 9906TIP3    H151209   5.136   2.307  11.744 -0.4253 -0.6159 -0.8363
 9906TIP3    H251210   5.038   2.405  11.805  0.6625  0.2731 -0.4839
 9907TIP3   OH251211   6.430   1.645  12.136  0.4443 -0.2373 -0.1205
 9907TIP3    H151212   6.372   1.591  12.083  1.4579 -0.5645 -0.9354
 9907TIP3    H251213   6.518   1.622  12.106  0.9445  1.1951  0.1569
 9908TIP3   OH251214   3.997   1.033   2.930 -0.4711 -0.2254 -0.0505
 9908TIP3    H151215   3.983   0.940   2.914  1.5609 -0.3302 -1.6735
 9908TIP3    H251216   3.935   1.077   2.872 -0.3844 -0.5956 -0.4329
 9909TIP3   OH251217   0.018   2.890   0.321  0.2809  0.1361 -0.5635
 9909TIP3    H151218  -0.015   2.856   0.238 -1.2248 -2.9052  1.1065
 9909TIP3    H251219   0.096   2.838   0.340 -0.1156 -0.1116  0.4800
 9910TIP3   OH251220   5.696   0.070  12.944 -0.2864  0.1625 -0.0521
 9910TIP3    H151221   5.674  -0.018  12.974 -0.8361  0.7200  1.2235
 9910TIP3    H251222   5.737   0.112  13.020 -0.0752  1.0284 -0.6285
 9911TIP3   OH251223   4.997   0.536   2.632 -0.5415 -0.2116  0.2739
 9911TIP3    H151224   5.069   0.596   2.612 -0.0247 -0.5252  1.1535
 9911TIP3    H251225   4.939   0.542   2.556 -0.3101  1.1168  0.1784
 9912TIP3   OH251226   6.316   0.849   4.372 -0.2979 -0.3753  0.2091
 9912TIP3    H151227   6.311   0.939   4.338  1.5080 -0.3773 -0.1312
 9912TIP3    H251228   6.275   0.796   4.304  0.3890 -0.0120 -0.5028
 9913TIP3   OH251229   4.504   2.534  15.029  0.2854  0.2842  0.7064
 9913TIP3    H151230   4.466   2.452  14.997  1.7507 -0.5847  1.1053
 9913TIP3    H251231   4.498   2.594  14.955 -0.4176 -0.2967  0.2715
 9914TIP3   OH251232   3.589   1.011  16.603  0.2059  0.2704 -0.2839
 9914TIP3    H151233   3.502   1.038  16.573 -1.2935 -3.6678  0.0417
 9914TIP3    H251234   3.637   0.992  16.523 -0.5870 -1.1500 -0.4612
 9915TIP3   OH251235   4.709   6.454   0.717  0.3245 -0.0365  0.6636
 9915TIP3    H151236   4.771   6.479   0.785  0.6588 -1.5419  0.9597
 9915TIP3    H251237   4.641   6.404   0.763  1.3634 -2.4541 -0.2198
 9916TIP3   OH251238   6.543   1.637  11.059  0.4282 -0.1059 -0.0674
 9916TIP3    H151239   6.466   1.689  11.036  0.7785  0.2631 -0.4124
 9916TIP3    H251240   6.518   1.547  11.036  1.0994  0.3225 -2.9569
 9917TIP3   OH251241   1.954   1.529  15.879 -0.2738  0.7545 -0.3586
 9917TIP3    H151242   1.889   1.533  15.809  1.6498  0.3049 -2.2591
 9917TIP3    H251243   1.953   1.438  15.907 -1.2712  1.0003  0.4889
 9918TIP3   OH251244   1.562   5.063  13.971 -0.4197  0.2106 -0.3898
 9918TIP3    H151245   1.558   5.034  13.880  1.3477  0.4200 -0.5700
 9918TIP3    H251246   1.556   5.158  13.967  0.2466  0.2617 -0.3603
 9919TIP3   OH251247   5.984   2.967  15.935  0.5636  0.1681 -0.0354
 9919TIP3    H151248   6.035   2.893  15.970  0.0317 -1.1116 -1.7921
 9919TIP3    H251249   5.998   2.962  15.841 -2.2408  0.1582 -0.5394
 9920TIP3   OH251250   0.288   2.700   3.448  0.3191 -0.6745  0.3391
 9920TIP3    H151251   0.239   2.710   3.367  1.0762  0.3547 -0.0046
 9920TIP3    H251252   0.246   2.759   3.510  1.0681  0.1721  0.0583
 9921TIP3   OH251253   2.134   1.500  13.206 -0.2907 -0.6826 -0.3673
 9921TIP3    H151254   2.150   1.418  13.160  0.1452 -0.2766 -0.9476
 9921TIP3    H251255   2.220   1.540  13.217 -0.5604 -0.0072 -0.6449
 9922TIP3   OH251256   4.918   5.878   4.562  0.4576 -0.2568  0.3035
 9922TIP3    H151257   4.969   5.957   4.545  1.4733 -0.7253  1.0475
 9922TIP3    H251258   4.865   5.899   4.639 -0.1630  0.0816 -0.2046
 9923TIP3   OH251259   0.754   5.860  12.881  0.2673 -0.0045 -0.5003
 9923TIP3    H151260   0.821   5.884  12.945  0.0648  0.4641 -0.4611
 9923TIP3    H251261   0.767   5.921  12.809 -0.0324  0.0008 -0.5491
 9924TIP3   OH251262   5.216   5.817  11.721 -0.6112 -0.5747  0.1278
 9924TIP3    H151263   5.192   5.908  11.705 -0.4701 -0.5824 -0.1319
 9924TIP3    H251264   5.312   5.816  11.722 -0.5850 -0.9177 -1.0913
 9925TIP3   OH251265   3.876   6.547  15.026 -0.2696  0.5802 -0.3666
 9925TIP3    H151266   3.912   6.563  15.113 -0.9572  1.0630 -0.1599
 9925TIP3    H251267   3.787   6.582  15.031 -1.0695 -1.2843 -0.5998
 9926TIP3   OH251268   2.554   0.039  15.162  0.3495 -0.2687  0.6409
 9926TIP3    H151269   2.511   0.060  15.245  0.6595 -1.1289  1.0277
 9926TIP3    H251270   2.643   0.073  15.172  0.6408 -1.1037  0.9979
 9927TIP3   OH251271   4.535   3.096   4.458 -0.7582  0.3749  0.2465
 9927TIP3    H151272   4.567   3.012   4.424  0.2181  0.2131  1.4809
 9927TIP3    H251273   4.589   3.162   4.414 -1.6674  0.3971 -0.8834
 9928TIP3   OH251274   1.363   3.572   4.926  0.0128  0.1427  0.1504
 9928TIP3    H151275   1.386   3.648   4.979  1.1648 -0.2451  0.2597
 9928TIP3    H251276   1.377   3.497   4.985 -0.6790 -0.1729 -0.0830
 9929TIP3   OH251277   6.667   4.045   3.175  0.3266  0.1372 -0.1173
 9929TIP3    H151278   6.696   4.052   3.266 -1.8853 -0.0438  0.6556
 9929TIP3    H251279   6.687   3.954   3.150 -1.9214 -0.8293  1.3088
 9930TIP3   OH251280   4.655   0.468  13.387 -0.2214  0.4158  1.0829
 9930TIP3    H151281   4.643   0.532  13.458  0.5907 -0.4957  2.0726
 9930TIP3    H251282   4.581   0.408  13.395 -1.1039  1.3225  0.0162
 9931TIP3   OH251283   1.650   4.091   3.404 -0.5965  0.4588 -0.1107
 9931TIP3    H151284   1.590   4.108   3.332 -1.4437  0.2312  0.5196
 9931TIP3    H251285   1.618   4.008   3.442 -0.7605  1.0513  1.0953
 9932TIP3   OH251286   0.417   5.366  12.314 -0.2145  0.0022  0.1450
 9932TIP3    H151287   0.439   5.389  12.224 -0.9565  0.0204 -0.0387
 9932TIP3    H251288   0.350   5.429  12.339  1.2679  1.1773  1.3547
 9933TIP3   OH251289   3.429   1.479   1.119 -0.2904 -0.1931 -0.1144
 9933TIP3    H151290   3.441   1.574   1.117 -0.4944 -0.0883  1.8076
 9933TIP3    H251291   3.517   1.444   1.132 -0.4475 -0.1346  1.2062
 9934TIP3   OH251292   4.201   1.032  13.436 -0.2166 -0.4058  0.3131
 9934TIP3    H151293   4.189   0.962  13.372  0.7301  0.7449 -1.2122
 9934TIP3    H251294   4.296   1.045  13.439 -0.3283  0.3319  1.0880
 9935TIP3   OH251295   6.324   2.482   1.224 -0.3099 -0.2239 -0.0238
 9935TIP3    H151296   6.344   2.405   1.278 -0.5527  0.2122  0.6982
 9935TIP3    H251297   6.248   2.456   1.172 -1.3126 -0.0000  1.2697
 9936TIP3   OH251298   2.902   2.496  16.190 -0.0685  0.0525  0.1416
 9936TIP3    H151299   2.965   2.510  16.120  0.8375  1.6822  1.2192
 9936TIP3    H251300   2.820   2.530  16.157 -0.2297 -1.3414 -0.9727
 9937TIP3   OH251301   5.541   5.004  15.686 -0.1610  0.2251 -0.2914
 9937TIP3    H151302   5.601   5.009  15.760  2.0508 -0.4543 -1.9213
 9937TIP3    H251303   5.466   4.954  15.719  1.0144 -0.5558  1.3269
 9938TIP3   OH251304   5.843   6.039  13.482 -0.1727 -0.0963 -0.0090
 9938TIP3    H151305   5.811   5.982  13.552  2.3387 -1.5459  0.0649
 9938TIP3    H251306   5.835   6.127  13.518 -1.2956 -0.6248  1.0994
 9939TIP3   OH251307   6.201   3.433   3.680 -0.6783 -0.2299  0.5749
 9939TIP3    H151308   6.283   3.472   3.709 -0.0009 -1.1467 -0.0201
 9939TIP3    H251309   6.154   3.412   3.760 -1.3105  2.2180  0.9124
 9940TIP3   OH251310   2.810   6.503  13.311  0.5608  0.1560 -0.0705
 9940TIP3    H151311   2.827   6.495  13.217 -1.5588 -1.2457 -0.3992
 9940TIP3    H251312   2.876   6.447  13.352 -0.8692 -2.3822 -1.0374
 9941TIP3   OH251313   1.276   3.859   3.366 -0.6268 -0.3145  0.3385
 9941TIP3    H151314   1.286   3.815   3.281  0.4368  1.0158 -0.2836
 9941TIP3    H251315   1.306   3.949   3.349 -1.2600  0.2234  1.9133
 9942TIP3   OH251316   5.648   6.239  11.941  0.3626  0.1177 -0.2739
 9942TIP3    H151317   5.697   6.162  11.970  0.1874  0.4066  0.8395
 9942TIP3    H251318   5.700   6.313  11.973 -0.9661  0.4331  1.3076
 9943TIP3   OH251319   4.316   6.098   2.924  0.7767 -0.2787  0.5571
 9943TIP3    H151320   4.278   6.123   2.839 -2.0591  1.5892  2.2122
 9943TIP3    H251321   4.252   6.037   2.961  1.2493  0.0326  1.9308
 9944TIP3   OH251322   1.106   3.007   3.391 -0.3293  0.0056 -0.3902
 9944TIP3    H151323   1.170   2.937   3.406 -1.6982 -1.3983 -0.7964
 9944TIP3    H251324   1.139   3.081   3.441 -1.3063 -2.3785  4.3749
 9945TIP3   OH251325   1.940   1.208  12.706 -0.2920  1.0659  0.2717
 9945TIP3    H151326   1.968   1.298  12.724 -0.2548  1.2280 -0.5467
 9945TIP3    H251327   2.014   1.170  12.658 -0.6145  0.8293 -0.0358
 9946TIP3   OH251328   0.963   0.194  13.672 -0.5342 -0.4583  0.1720
 9946TIP3    H151329   1.025   0.248  13.623 -1.1900 -0.1398 -0.3209
 9946TIP3    H251330   0.928   0.133  13.608 -0.3075 -1.0210  0.5771
 9947TIP3   OH251331   5.541   1.152  14.313  0.5337 -0.2670 -0.1978
 9947TIP3    H151332   5.481   1.141  14.239  1.1813 -0.3665 -0.7309
 9947TIP3    H251333   5.507   1.226  14.362  0.4166  0.1836 -0.9433
 9948TIP3   OH251334   3.201   5.310   1.737 -0.6702  0.2558 -0.2611
 9948TIP3    H151335   3.288   5.272   1.745  0.2734  2.4061  0.1738
 9948TIP3    H251336   3.142   5.238   1.761  1.1310 -0.1716  3.7762
 9949TIP3   OH251337   0.071   3.919  14.338 -0.8061 -0.1055 -0.5910
 9949TIP3    H151338   0.036   3.881  14.257 -1.5675 -0.2447 -0.2102
 9949TIP3    H251339   0.020   3.999  14.351 -1.9023 -0.9556  0.6386
 9950TIP3   OH251340   6.080   4.149  12.965 -0.3661 -0.4818  0.9880
 9950TIP3    H151341   5.986   4.157  12.953 -0.2634 -0.8505 -0.1666
 9950TIP3    H251342   6.113   4.238  12.955 -0.3100 -0.7298 -1.5092
 9951TIP3   OH251343   1.491   1.817   3.565 -0.4719 -0.0242 -0.1569
 9951TIP3    H151344   1.477   1.768   3.646 -0.3826 -0.0943 -0.1825
 9951TIP3    H251345   1.427   1.888   3.568  2.6173  3.0005  2.3437
 9952TIP3   OH251346   6.497   6.042  13.598 -0.2081 -0.1746 -0.2946
 9952TIP3    H151347   6.498   6.105  13.526  0.2068 -0.5421 -0.6174
 9952TIP3    H251348   6.452   6.087  13.669  0.6644  0.7358 -0.2934
 9953TIP3   OH251349   6.629   5.825  13.018 -1.2979 -0.3427  0.0416
 9953TIP3    H151350   6.611   5.849  12.927  1.6940  1.3214 -0.2669
 9953TIP3    H251351   6.680   5.744  13.012 -0.4517  0.1690  0.1383
 9954TIP3   OH251352   2.545   1.827  15.435 -0.2244 -0.5778 -0.1138
 9954TIP3    H151353   2.472   1.847  15.493 -1.3305 -4.0606 -0.0838
 9954TIP3    H251354   2.521   1.867  15.351 -2.3810 -1.8559 -0.1774
 9955TIP3   OH251355   1.119   0.534  11.709 -0.2585 -0.7532 -0.2444
 9955TIP3    H151356   1.183   0.467  11.685  0.9029  0.2887 -0.1587
 9955TIP3    H251357   1.125   0.599  11.639  0.6131  0.5715  0.9902
 9956TIP3   OH251358   5.539   4.431  12.558 -0.6417  0.3190 -0.2055
 9956TIP3    H151359   5.533   4.424  12.653  1.5108 -2.1128 -0.1308
 9956TIP3    H251360   5.458   4.391  12.525 -0.0433 -1.7757  0.6678
 9957TIP3   OH251361   0.458   3.829  11.181 -0.6697 -0.1253 -0.1270
 9957TIP3    H151362   0.412   3.912  11.170 -1.9893 -0.7648  0.4268
 9957TIP3    H251363   0.395   3.762  11.154  0.0088 -1.0108  0.4094
 9958TIP3   OH251364   0.584   5.581  16.392 -0.3483  0.1356 -0.0471
 9958TIP3    H151365   0.519   5.511  16.384  0.6313 -0.9038  0.7582
 9958TIP3    H251366   0.546   5.655  16.345 -2.4278 -0.2107  0.9795
 9959TIP3   OH251367   2.107   5.692   4.379 -0.4557  0.5301 -0.2906
 9959TIP3    H151368   2.137   5.746   4.453 -0.5529  0.4201 -0.1718
 9959TIP3    H251369   2.054   5.624   4.419  1.6011 -1.1067 -0.1595
 9960TIP3   OH251370   3.051   2.619  13.851  0.1774 -0.4418  0.4619
 9960TIP3    H151371   2.979   2.673  13.883 -1.2288 -0.9835 -1.6074
 9960TIP3    H251372   3.015   2.571  13.777  1.3703 -4.2801  2.1385
 9961TIP3   OH251373   4.387   1.704   0.361  0.4567  0.7582 -0.1207
 9961TIP3    H151374   4.464   1.674   0.312 -0.0282  0.6269 -0.8161
 9961TIP3    H251375   4.340   1.624   0.383  0.3948  0.8540  0.0998
 9962TIP3   OH251376   4.453   0.681   2.921  0.3992  0.0636 -0.3174
 9962TIP3    H151377   4.382   0.738   2.892  0.7718  1.5863  1.5788
 9962TIP3    H251378   4.418   0.593   2.912 -2.6802  0.7748  2.5589
 9963TIP3   OH251379   0.067   1.482  12.152 -0.3194  0.1235 -0.6488
 9963TIP3    H151380   0.049   1.435  12.233  0.3934  0.5265 -0.2352
 9963TIP3    H251381   0.030   1.428  12.083 -0.4902 -0.4818 -0.0902
 9964TIP3   OH251382   6.397   3.975  11.257  0.2591 -0.2558  0.2960
 9964TIP3    H151383   6.434   3.893  11.289 -0.1731  0.2138  2.1680
 9964TIP3    H251384   6.324   3.949  11.201  1.3398 -1.1418 -0.7380
 9965TIP3   OH251385   5.405   1.206  16.530 -0.2764 -0.1220 -0.1440
 9965TIP3    H151386   5.432   1.272  16.466 -0.1935 -1.3546 -1.4335
 9965TIP3    H251387   5.335   1.247  16.580 -0.2491  0.9139 -0.9458
 9966TIP3   OH251388   1.050   4.718  16.223 -0.0580 -0.8757  0.1885
 9966TIP3    H151389   0.959   4.690  16.216 -0.2004 -0.8094  1.5152
 9966TIP3    H251390   1.101   4.637  16.215 -0.2618 -0.9935  0.0715
 9967TIP3   OH251391   2.688   3.928  11.044 -0.2638  0.0301  0.5052
 9967TIP3    H151392   2.712   4.008  10.997  0.4853  0.7700  2.0824
 9967TIP3    H251393   2.595   3.916  11.023  0.2594 -0.3232 -2.0161
 9968TIP3   OH251394   4.609   3.911   5.544 -0.0954  0.4177 -1.0194
 9968TIP3    H151395   4.635   3.856   5.470 -1.9342 -0.9934 -0.6933
 9968TIP3    H251396   4.532   3.959   5.513 -1.5525 -0.9869  0.2429
 9969TIP3   OH251397   3.097   1.750   3.486 -0.3214 -0.5720  0.3925
 9969TIP3    H151398   3.149   1.763   3.565 -0.5272  0.0240  0.4342
 9969TIP3    H251399   3.081   1.838   3.453 -0.9688 -0.7716  0.1595
 9970TIP3   OH251400   4.528   5.757   2.774 -0.5810 -0.0453  0.1727
 9970TIP3    H151401   4.527   5.758   2.678 -2.0444 -1.3870  0.1478
 9970TIP3    H251402   4.502   5.846   2.799 -1.0892  0.0555 -0.6836
 9971TIP3   OH251403   2.535   2.523   1.823 -0.0509 -0.4338 -0.2179
 9971TIP3    H151404   2.614   2.472   1.841 -1.2438 -1.9418  1.0304
 9971TIP3    H251405   2.467   2.457   1.809 -1.0689  0.8297 -1.5006
 9972TIP3   OH251406   1.839   4.006  15.069  0.0551 -0.7788  0.1919
 9972TIP3    H151407   1.920   4.055  15.080  0.0598 -0.7350 -0.0381
 9972TIP3    H251408   1.813   4.021  14.978 -1.3545  0.9645  0.8290
 9973TIP3   OH251409   2.739   3.365  13.692 -0.2349 -0.4911 -0.2026
 9973TIP3    H151410   2.822   3.376  13.647 -0.6195  1.5321 -0.4986
 9973TIP3    H251411   2.673   3.387  13.626 -0.8105  2.6151  1.2535
 9974TIP3   OH251412   6.629   0.503  15.785 -0.2736 -0.0979 -0.0701
 9974TIP3    H151413   6.685   0.436  15.744 -1.8862 -1.1452 -0.6671
 9974TIP3    H251414   6.575   0.454  15.847 -0.5486  0.8833  0.4837
 9975TIP3   OH251415   3.984   3.372  16.702  0.2189  0.4414 -0.3326
 9975TIP3    H151416   4.008   3.351  16.612 -1.4429  0.1731 -0.7590
 9975TIP3    H251417   3.888   3.376  16.700  0.1108 -0.3115  1.5951
 9976TIP3   OH251418   4.687   2.312   3.507 -0.5397  0.3724 -0.2072
 9976TIP3    H151419   4.628   2.257   3.558 -0.2707  0.7939  0.5819
 9976TIP3    H251420   4.710   2.259   3.430 -1.1480 -0.1747 -0.0132
 9977TIP3   OH251421   4.394   5.478  14.984 -0.4041 -0.1181 -0.7360
 9977TIP3    H151422   4.437   5.419  14.922  0.2726 -0.4300  0.0173
 9977TIP3    H251423   4.424   5.448  15.070 -2.6704 -0.7922 -0.1289
 9978TIP3   OH251424   3.600   0.493  13.649  0.4369  0.3320  0.0447
 9978TIP3    H151425   3.528   0.487  13.711  3.1317 -1.8841  3.2984
 9978TIP3    H251426   3.658   0.559  13.686  1.5743 -0.1898 -0.7413
 9979TIP3   OH251427   5.120   2.706  15.418  0.2588 -0.2753  0.0881
 9979TIP3    H151428   5.140   2.795  15.387  0.4150 -0.6661 -0.9612
 9979TIP3    H251429   5.202   2.658  15.405  0.2603 -0.5130  0.9233
 9980TIP3   OH251430   4.167   2.381   4.507 -0.0236  0.1071 -0.0181
 9980TIP3    H151431   4.135   2.294   4.485  0.4387 -0.1655  0.3560
 9980TIP3    H251432   4.247   2.391   4.456 -0.3027  0.4875 -0.3902
 9981TIP3   OH251433   4.820   2.992  13.152 -0.1837 -0.2092 -0.0252
 9981TIP3    H151434   4.904   3.002  13.196  0.2885 -0.7348 -0.7837
 9981TIP3    H251435   4.840   3.004  13.059 -1.4608  2.8407 -0.0333
 9982TIP3   OH251436   6.626   3.014   2.004  0.6607  0.2764 -0.0804
 9982TIP3    H151437   6.686   3.079   1.969  1.5001 -1.1267 -1.3310
 9982TIP3    H251438   6.677   2.934   2.010 -1.1287 -1.0687 -1.5259
 9983TIP3   OH251439   2.887   3.711  13.270 -0.2799  0.3117  0.3327
 9983TIP3    H151440   2.832   3.773  13.317 -0.5762  0.6644 -0.4688
 9983TIP3    H251441   2.964   3.700  13.326 -0.2783  1.3060  0.5415
 9984TIP3   OH251442   5.984   0.566  12.295 -0.7126  0.0490 -0.7976
 9984TIP3    H151443   5.973   0.534  12.384 -1.0727  0.9932 -0.4896
 9984TIP3    H251444   5.955   0.494  12.239 -1.4805 -0.1642 -0.1355
 9985TIP3   OH251445   0.311   4.786   1.634 -0.2476  0.0996 -0.3143
 9985TIP3    H151446   0.322   4.862   1.576 -0.6989 -0.5282 -1.2459
 9985TIP3    H251447   0.226   4.799   1.675  1.0578  1.7827  2.1351
 9986TIP3   OH251448   5.018   2.290   1.443 -0.6068  0.1193  0.2467
 9986TIP3    H151449   5.031   2.247   1.527  0.0183 -0.3548 -0.0753
 9986TIP3    H251450   5.088   2.355   1.439  1.1078 -1.6771 -1.0224
 9987TIP3   OH251451   5.350   6.137  15.029  0.0150  0.2127 -0.2708
 9987TIP3    H151452   5.423   6.104  14.976 -0.1862  0.5593 -0.7647
 9987TIP3    H251453   5.284   6.164  14.966 -0.3415  0.3804  0.1653
 9988TIP3   OH251454   0.658   3.997   0.785  0.5758 -0.1598  0.1167
 9988TIP3    H151455   0.702   3.967   0.705 -0.3118  1.6104 -1.0702
 9988TIP3    H251456   0.567   3.971   0.774  0.7384 -1.3587  1.3326
 9989TIP3   OH251457   4.844   3.570   1.706  0.4687 -0.3781  0.2222
 9989TIP3    H151458   4.886   3.584   1.622  2.2398 -0.7911  0.9881
 9989TIP3    H251459   4.768   3.516   1.686 -1.1334  2.2712 -1.5125
 9990TIP3   OH251460   5.118   5.091   5.416 -0.5065  0.3395 -0.0416
 9990TIP3    H151461   5.096   5.118   5.327 -1.4283 -2.4890 -0.7529
 9990TIP3    H251462   5.039   5.050   5.449  0.6335 -1.0374  1.0864
 9991TIP3   OH251463   3.427   1.016  11.312  0.3946 -0.7544 -0.1558
 9991TIP3    H151464   3.447   1.103  11.348  0.4860 -0.8227 -0.0405
 9991TIP3    H251465   3.403   1.033  11.221  0.4511 -0.6113 -0.1449
 9992TIP3   OH251466   1.968   1.026  15.035 -0.2061  0.1015 -0.3633
 9992TIP3    H151467   1.937   0.966  15.102 -0.5623  0.3861 -0.2749
 9992TIP3    H251468   2.063   1.032  15.051 -0.2068 -0.2412 -0.2194
 9993TIP3   OH251469   2.760   2.652   5.544  0.4669  0.7147 -0.0648
 9993TIP3    H151470   2.817   2.646   5.621  0.3542 -0.7972 -0.0688
 9993TIP3    H251471   2.777   2.740   5.509 -0.4718  2.0353  2.4424
 9994TIP3   OH251472   0.812   6.420   6.086  0.1346 -0.1308  0.0692
 9994TIP3    H151473   0.768   6.490   6.134  0.3541 -0.4319  0.7239
 9994TIP3    H251474   0.741   6.368   6.048 -0.1210 -1.0010  1.6667
 9995TIP3   OH251475   3.608   0.486  13.000  0.1080  0.2342  0.1945
 9995TIP3    H151476   3.616   0.581  13.007  2.1462  0.0991  0.3483
 9995TIP3    H251477   3.672   0.461  12.932 -1.1842 -0.9314 -0.6437
 9996TIP3   OH251478   0.141   4.133  15.733 -0.2355  0.0705 -0.3748
 9996TIP3    H151479   0.154   4.077  15.656  0.8010  1.6242 -1.3790
 9996TIP3    H251480   0.222   4.124  15.783 -1.0745 -1.2910  0.8632
 9997TIP3   OH251481   6.061   6.096  15.109  0.5314 -0.1949  0.1739
 9997TIP3    H151482   6.033   6.173  15.158  0.7382 -0.8140  1.2977
 9997TIP3    H251483   6.149   6.077  15.141  1.2125  0.1615 -1.4100
 9998TIP3   OH251484   6.245   4.921  16.547  0.1541  0.1872  0.6038
 9998TIP3    H151485   6.297   4.847  16.517 -0.4504  0.4321 -1.1716
 9998TIP3    H251486   6.216   4.897  16.635 -0.8997 -2.1455 -0.3112
 9999TIP3   OH251487   6.604   0.068  14.213 -0.4621  0.0758  0.1797
 9999TIP3    H151488   6.573   0.030  14.295 -1.4011 -0.2351 -0.3065
 9999TIP3    H251489   6.535   0.048  14.150  0.7654 -0.7253 -0.9678
10000TIP3   OH251490   6.382   5.868   2.639 -0.0752 -0.2193 -0.1378
10000TIP3    H151491   6.430   5.950   2.636 -2.6402  1.4032  0.3940
10000TIP3    H251492   6.355   5.854   2.548  0.8135 -0.8121 -0.3269
10001TIP3   OH251493   3.167   4.348   3.687 -0.3858 -0.4535  0.3269
10001TIP3    H151494   3.260   4.338   3.665 -0.2495 -0.1780  0.7751
10001TIP3    H251495   3.165   4.348   3.783 -0.8836 -0.7737  0.3157
10002TIP3   OH251496   5.654   5.781   4.457 -0.8415 -0.3568 -0.5235
10002TIP3    H151497   5.681   5.865   4.495 -0.1762  0.0043 -1.7230
10002TIP3    H251498   5.614   5.733   4.530  1.3445 -0.1501  0.8882
10003TIP3   OH251499   3.745   6.206  13.742  0.0864 -0.3401  0.1379
10003TIP3    H151500   3.674   6.263  13.713 -0.2921 -0.2171  1.2623
10003TIP3    H251501   3.816   6.222  13.679 -0.5080  0.3182 -0.3741
10004TIP3   OH251502   6.219   2.116  17.138  0.3055 -0.3444 -0.3441
10004TIP3    H151503   6.198   2.207  17.157 -1.1255 -0.9378  1.2654
10004TIP3    H251504   6.312   2.108  17.156 -0.0612  0.2402  2.3222
10005TIP3   OH251505   6.797   6.079  11.679  0.4352 -0.1851  0.4115
10005TIP3    H151506   6.867   6.104  11.618  1.5652 -0.3483  1.5860
10005TIP3    H251507   6.728   6.143  11.663  0.0860 -1.0554 -1.9895
10006TIP3   OH251508   6.461   1.999   1.888 -0.0716  0.3126  0.6831
10006TIP3    H151509   6.557   2.007   1.888 -0.1373  1.3181  0.2341
10006TIP3    H251510   6.440   1.954   1.807  0.0103  0.1711  0.7396
10007TIP3   OH251511   3.847   0.434   1.654  0.5397  0.3247 -0.2297
10007TIP3    H151512   3.841   0.522   1.617 -0.0561 -1.0189 -3.7027
10007TIP3    H251513   3.918   0.392   1.605  1.2074 -0.9915  1.7603
10008TIP3   OH251514   1.937   1.632   3.177  0.1438  0.1997 -0.2235
10008TIP3    H151515   2.021   1.644   3.134  0.3978 -0.8543 -0.0289
10008TIP3    H251516   1.882   1.702   3.141  0.5943 -0.1225 -1.6118
10009TIP3   OH251517   2.532   3.976  13.875 -0.3021 -0.2280  0.0935
10009TIP3    H151518   2.610   3.966  13.929  0.3956 -0.5935 -0.9706
10009TIP3    H251519   2.525   3.894  13.827 -0.1197  0.6012 -1.4016
10010TIP3   OH251520   2.607   2.239  17.130 -0.5515  0.1513  0.5558
10010TIP3    H151521   2.627   2.331  17.148 -0.4657 -0.1085  1.9316
10010TIP3    H251522   2.652   2.220  17.048 -0.4720  1.2971  0.3153
10011TIP3   OH251523   6.000   2.621  12.519  0.4177  0.2805  0.1831
10011TIP3    H151524   6.045   2.700  12.547  1.4574 -0.0138 -0.6037
10011TIP3    H251525   6.011   2.559  12.592  0.6252  0.4677  0.3099
10012TIP3   OH251526   4.602   3.853  10.793  0.5881  0.5751  0.0625
10012TIP3    H151527   4.525   3.833  10.846  0.9922 -0.1871  0.3740
10012TIP3    H251528   4.571   3.847  10.703  0.6033 -1.1829  0.1418
10013TIP3   OH251529   1.600   5.463   5.157  0.5494 -0.1551 -0.1640
10013TIP3    H151530   1.598   5.547   5.111  1.5627 -0.5920 -1.0406
10013TIP3    H251531   1.529   5.413   5.119  0.2708  0.1153 -0.0044
10014TIP3   OH251532   5.234   1.929  12.429  0.1410  0.3340 -0.5872
10014TIP3    H151533   5.274   2.002  12.382  0.2043  1.1206  0.6443
10014TIP3    H251534   5.141   1.951  12.434 -0.1961 -0.6691 -1.9661
10015TIP3   OH251535   4.915   3.397   5.892  0.1326 -0.4375  0.4826
10015TIP3    H151536   4.940   3.403   5.800  0.8463  1.8791  0.7741
10015TIP3    H251537   4.982   3.447   5.939 -0.9348 -0.4598  2.1202
10016TIP3   OH251538   1.243   6.532   2.008  1.0775 -0.6340 -0.6064
10016TIP3    H151539   1.289   6.503   2.086  1.5014  1.8625  0.1520
10016TIP3    H251540   1.284   6.484   1.936  1.1621 -2.4334  0.6019
10017TIP3   OH251541   6.240   2.464   3.977  0.0909 -0.4226  0.2924
10017TIP3    H151542   6.214   2.455   3.885  1.8534  2.9114 -0.6973
10017TIP3    H251543   6.329   2.428   3.980 -0.0035 -0.6248  0.7601
10018TIP3   OH251544   4.204   2.924  14.437  0.4275 -0.0122 -0.2865
10018TIP3    H151545   4.253   2.843  14.421 -0.2958 -0.1269 -2.1351
10018TIP3    H251546   4.169   2.948  14.351 -1.4734  0.8952  0.6886
10019TIP3   OH251547   6.643   1.250   1.315 -0.1102  0.2346  0.3652
10019TIP3    H151548   6.655   1.162   1.279  0.8057  0.8649 -0.9157
10019TIP3    H251549   6.662   1.239   1.409 -0.7428 -1.0688  0.3643
10020TIP3   OH251550   5.787   2.173   4.046  0.2123  0.5705  0.3861
10020TIP3    H151551   5.857   2.237   4.034 -0.8432  1.5956 -0.5541
10020TIP3    H251552   5.779   2.130   3.961  0.2473 -0.1400  0.7302
10021TIP3   OH251553   6.307   4.969  14.284 -0.1953  0.1172 -0.0592
10021TIP3    H151554   6.341   4.982  14.373  0.2828  1.8458 -0.4423
10021TIP3    H251555   6.220   5.011  14.286 -0.2675 -0.0180 -0.3472
10022TIP3   OH251556   2.087   2.055  12.087 -0.3648  0.1065  0.3233
10022TIP3    H151557   2.172   2.098  12.084 -1.2828  1.9254 -1.7182
10022TIP3    H251558   2.046   2.088  12.168  0.5073 -0.1334  0.8753
10023TIP3   OH251559   0.760   5.362  16.395 -0.4593 -0.4808 -0.6351
10023TIP3    H151560   0.719   5.448  16.390  0.3979  0.2036  2.1840
10023TIP3    H251561   0.769   5.334  16.304 -1.5032  2.0274 -1.5982
10024TIP3   OH251562   4.349   1.174  12.418  0.1283  0.0649  0.2328
10024TIP3    H151563   4.441   1.147  12.408  0.1623  0.2283  0.1110
10024TIP3    H251564   4.344   1.258  12.374 -0.4358 -0.6316 -1.1048
10025TIP3   OH251565   3.280   2.198   0.628  0.0923 -0.1983  0.6847
10025TIP3    H151566   3.352   2.257   0.651  0.8657 -1.2068  0.8856
10025TIP3    H251567   3.316   2.139   0.563 -0.9284  0.0731 -0.1575
10026TIP3   OH251568   2.415   6.634  17.022 -0.4928 -0.6551 -0.0539
10026TIP3    H151569   2.396   6.724  17.051 -1.4316 -0.7696 -0.2919
10026TIP3    H251570   2.434   6.643  16.929  2.8002 -0.2467  0.5351
10027TIP3   OH251571   3.469   1.285  16.840  0.4337 -0.5912 -0.4934
10027TIP3    H151572   3.413   1.362  16.855 -1.3246 -1.5955 -1.5142
10027TIP3    H251573   3.555   1.322  16.820 -0.8555  1.3242 -3.2706
10028TIP3   OH251574   6.245   3.154   0.027  0.1691 -0.1298  0.1359
10028TIP3    H151575   6.188   3.081   0.050 -1.0234  0.9999  0.9718
10028TIP3    H251576   6.269   3.139  -0.064 -1.0261 -0.9427 -0.0706
10029TIP3   OH251577   0.229   3.848   4.612  0.0070 -0.3635 -0.3921
10029TIP3    H151578   0.266   3.776   4.561 -0.6887 -1.4706  0.6355
10029TIP3    H251579   0.204   3.913   4.546  2.0408 -0.3708 -1.2427
10030TIP3   OH251580   6.081   2.859  16.708 -0.3090  0.1287 -0.2932
10030TIP3    H151581   6.129   2.813  16.776 -1.9672 -0.8365  0.2797
10030TIP3    H251582   6.125   2.835  16.627  0.5298 -0.2437  0.2572
10031TIP3   OH251583   6.470   5.304   1.203 -0.2027 -0.3125  0.3969
10031TIP3    H151584   6.424   5.221   1.210 -0.7112 -0.0535  0.1906
10031TIP3    H251585   6.468   5.340   1.292 -2.3809  0.7239 -0.0084
10032TIP3   OH251586   6.599   5.590   4.764 -0.1778 -0.0042 -0.1472
10032TIP3    H151587   6.648   5.632   4.835 -2.0514 -2.3417  2.7442
10032TIP3    H251588   6.666   5.543   4.714  1.0039 -0.1437  1.4594
10033TIP3   OH251589   2.555   3.435  14.244  0.0343  0.3943  0.0542
10033TIP3    H151590   2.482   3.482  14.202  0.6707  0.2700 -1.2363
10033TIP3    H251591   2.520   3.348  14.262 -0.4685  0.6681  0.4267
10034TIP3   OH251592   5.443   4.102  12.519  0.1718  0.3931 -0.1523
10034TIP3    H151593   5.395   4.173  12.475  0.5497  0.0904 -1.0891
10034TIP3    H251594   5.533   4.112  12.488  0.7496  0.9817  1.6181
10035TIP3   OH251595   0.158   2.541   5.606 -0.0776 -0.0403 -0.0256
10035TIP3    H151596   0.220   2.504   5.669  0.8180  0.1954 -0.7441
10035TIP3    H251597   0.126   2.621   5.648  0.5848  0.1652  0.0980
10036TIP3   OH251598   6.802   1.469   2.004 -0.4124 -0.3656 -0.2743
10036TIP3    H151599   6.794   1.408   2.077  1.5044 -1.3074 -0.7911
10036TIP3    H251600   6.875   1.435   1.952  1.0440  2.6159 -0.3535
10037TIP3   OH251601   1.029   3.461   1.859  0.1984  0.1685 -0.5911
10037TIP3    H151602   1.057   3.448   1.949 -0.6782 -2.0847 -0.5528
10037TIP3    H251603   1.109   3.456   1.807  0.6631  1.1237  0.0219
10038TIP3   OH251604   4.275   6.000   6.538  0.2485 -0.0088 -0.3103
10038TIP3    H151605   4.323   6.080   6.517  1.8592 -0.7937  0.2047
10038TIP3    H251606   4.192   6.009   6.492  1.3590  0.8648 -2.2547
10039TIP3   OH251607   4.283   5.790   2.996  0.2124  0.3250 -0.0089
10039TIP3    H151608   4.366   5.743   2.999  0.1228  0.2137  1.2906
10039TIP3    H251609   4.241   5.759   2.915  1.7160  0.9151 -1.0605
10040TIP3   OH251610   1.186   4.868  16.922  0.3126  0.2827 -0.1534
10040TIP3    H151611   1.194   4.914  17.005 -1.8469  0.2323  0.1263
10040TIP3    H251612   1.259   4.901  16.869  0.9560  1.2702  1.2869
10041TIP3   OH251613   5.702   5.942   4.191  0.2443 -0.3715  0.6008
10041TIP3    H151614   5.711   5.855   4.229 -0.4395 -0.2881  0.9709
10041TIP3    H251615   5.755   5.939   4.111  1.3459 -0.6894  1.3146
10042TIP3   OH251616   4.028   2.167   4.391 -0.4442  0.0941  0.4004
10042TIP3    H151617   3.939   2.178   4.357 -0.4120 -0.7139  0.0356
10042TIP3    H251618   4.021   2.096   4.455 -0.0203 -0.1317  0.1999
10043TIP3   OH251619   1.939   4.228  17.204  0.4224 -0.4513 -0.2548
10043TIP3    H151620   1.861   4.283  17.201  0.1446 -0.8230  0.0839
10043TIP3    H251621   1.934   4.175  17.124  1.4498  1.0148 -1.3502
10044TIP3   OH251622   5.647   0.332  16.782  0.2512 -1.2266 -0.7046
10044TIP3    H151623   5.732   0.297  16.755 -0.0137 -1.9903 -0.5473
10044TIP3    H251624   5.625   0.284  16.862 -0.2221 -0.8651 -0.6140
10045TIP3   OH251625   1.867   2.327   1.020 -0.0290  0.4546 -0.0943
10045TIP3    H151626   1.793   2.384   1.039  0.6009  0.3486  3.3417
10045TIP3    H251627   1.827   2.241   1.005 -0.7037  0.5976  0.7570
10046TIP3   OH251628   0.682   3.672   1.014 -0.0637 -0.4237  0.1987
10046TIP3    H151629   0.772   3.699   0.995 -0.1998 -0.2361 -0.1822
10046TIP3    H251630   0.680   3.579   0.990 -0.3852 -0.0605 -1.2820
10047TIP3   OH251631   5.532   4.509   0.085  0.0874 -0.8934 -0.4016
10047TIP3    H151632   5.609   4.463   0.116  1.0081  0.6318 -0.3176
10047TIP3    H251633   5.533   4.593   0.131 -2.6659 -1.5257  1.0509
10048TIP3   OH251634   6.547   2.914   0.436 -0.2981  0.6436 -0.2574
10048TIP3    H151635   6.632   2.959   0.441  0.0634  0.1126 -1.2943
10048TIP3    H251636   6.511   2.940   0.352  0.0380 -1.1483 -1.0033
10049TIP3   OH251637   1.268   6.612   0.451  0.2704  0.2178 -0.3588
10049TIP3    H151638   1.342   6.672   0.462 -0.3969  0.8180  1.2142
10049TIP3    H251639   1.281   6.546   0.519 -0.6968  0.4214  0.0419
10050TIP3   OH251640   4.582   6.518  11.314  0.0083  0.7490  0.3215
10050TIP3    H151641   4.546   6.468  11.387 -1.9744  1.2955 -0.2133
10050TIP3    H251642   4.603   6.452  11.248 -0.5923  0.4497  0.4227
10051TIP3   OH251643   5.189   0.996   3.984 -0.1205  1.0322  0.5864
10051TIP3    H151644   5.242   0.919   3.961  0.7826  0.4436  4.0304
10051TIP3    H251645   5.101   0.961   3.999 -0.3989  1.2069 -0.5218
10052TIP3   OH251646   4.150   3.997  14.318  0.0958 -0.2651 -0.1499
10052TIP3    H151647   4.153   4.088  14.291 -0.7013 -0.5131 -1.1118
10052TIP3    H251648   4.086   3.995  14.389  0.6894  0.0378  0.4119
10053TIP3   OH251649   5.615   5.970   6.214 -0.6276 -0.2797 -0.0338
10053TIP3    H151650   5.570   6.012   6.140 -0.0412 -0.2650 -0.3923
10053TIP3    H251651   5.593   5.877   6.205 -0.8585 -0.2270 -0.0117
10054TIP3   OH251652   2.601   6.248  16.223 -0.3598  0.6920 -0.3947
10054TIP3    H151653   2.649   6.260  16.305  0.2399  0.8453 -0.7658
10054TIP3    H251654   2.595   6.336  16.186  0.0598  0.5070 -0.9020
10055TIP3   OH251655   5.730   3.021   0.568 -0.5498  0.0821  0.6931
10055TIP3    H151656   5.719   2.957   0.497 -0.8299 -0.7501  1.4707
10055TIP3    H251657   5.778   3.093   0.527 -0.7657 -0.3470 -0.3615
10056TIP3   OH251658   1.629   5.291   5.582  0.2511 -0.0776 -0.4001
10056TIP3    H151659   1.564   5.292   5.511 -0.0784 -0.5837 -0.1126
10056TIP3    H251660   1.673   5.206   5.573  0.3262 -0.0709 -0.1102
10057TIP3   OH251661   4.875   6.070   3.503  0.0117  0.6379 -0.5960
10057TIP3    H151662   4.787   6.105   3.519 -0.6680 -0.6390 -1.3968
10057TIP3    H251663   4.878   5.988   3.551  0.8260  0.7325 -0.4704
10058TIP3   OH251664   6.290   0.530  11.705 -0.0866  0.3284  0.3336
10058TIP3    H151665   6.233   0.606  11.693 -0.1462  0.2469  0.0944
10058TIP3    H251666   6.231   0.458  11.727 -0.3071 -0.2071 -1.7692
10059TIP3   OH251667   6.400   5.600   0.484 -0.0391 -0.5471  0.1549
10059TIP3    H151668   6.387   5.510   0.515 -0.2353 -0.2698  0.9078
10059TIP3    H251669   6.419   5.650   0.564 -1.2439  0.3235 -0.0799
10060TIP3   OH251670   3.219   6.340   0.694 -0.4803  0.2467  0.9277
10060TIP3    H151671   3.142   6.343   0.637 -0.9868 -1.5205  1.4601
10060TIP3    H251672   3.292   6.330   0.633 -0.7467  1.0015  0.4618
10061TIP3   OH251673   5.075   6.689   4.202  0.2975  0.0461 -0.6358
10061TIP3    H151674   5.003   6.673   4.262  0.5280 -1.4590 -0.7275
10061TIP3    H251675   5.086   6.606   4.155  1.9353  0.3171 -0.7809
10062TIP3   OH251676   5.623   4.750   4.434 -0.4832 -0.1190 -0.4302
10062TIP3    H151677   5.682   4.760   4.509  2.0238  2.2333 -2.4875
10062TIP3    H251678   5.545   4.802   4.457 -0.1386 -0.1579  0.8666
10063TIP3   OH251679   5.820   6.689  12.359 -0.0824 -0.8290  0.8768
10063TIP3    H151680   5.750   6.741  12.319  0.9354 -0.1422 -0.0722
10063TIP3    H251681   5.774   6.621  12.408 -1.4168 -0.3215  0.3821
10064TIP3   OH251682   1.269   6.498  12.046 -0.5630  0.3313  0.3959
10064TIP3    H151683   1.210   6.473  12.118 -0.7578  0.1752  0.1819
10064TIP3    H251684   1.298   6.415  12.009 -1.4879  0.4168 -0.5440
10065TIP3   OH251685   1.115   4.409   3.289 -0.3558 -0.3230 -0.0145
10065TIP3    H151686   1.026   4.442   3.290 -1.2902 -2.6527 -0.5838
10065TIP3    H251687   1.140   4.405   3.382 -1.5690 -1.3581  0.3044
10066TIP3   OH251688   0.087   1.089  12.631 -0.1359  0.7272  0.2574
10066TIP3    H151689   0.084   0.997  12.658  1.0287 -0.0804 -2.0323
10066TIP3    H251690   0.163   1.125  12.677 -1.3422  0.9433  2.1552
10067TIP3   OH251691   4.169   5.758  13.238 -0.4223  0.1439  0.0594
10067TIP3    H151692   4.101   5.769  13.171 -1.0161 -3.9534 -0.2983
10067TIP3    H251693   4.146   5.676  13.281  2.3957  0.4324  2.3731
10068TIP3   OH251694   3.611   3.305   2.694  0.2190  0.1172  0.4906
10068TIP3    H151695   3.597   3.308   2.600  0.9420 -0.9287  0.3304
10068TIP3    H251696   3.706   3.315   2.704  0.5866 -2.9568  0.8715
10069TIP3   OH251697   5.224   5.186   3.949  0.0318  0.2716 -0.0220
10069TIP3    H151698   5.237   5.258   4.010  0.7407  0.0619  0.0737
10069TIP3    H251699   5.196   5.113   4.004  1.0650 -0.0331  0.1116
10070TIP3   OH251700   5.128   1.639  12.579 -0.0615 -0.4255 -0.7436
10070TIP3    H151701   5.215   1.641  12.620  0.1618  1.7639 -1.1741
10070TIP3    H251702   5.136   1.699  12.505 -1.9114 -0.2675 -0.8536
10071TIP3   OH251703   1.216   6.263   4.058 -0.7203 -0.3637  0.4488
10071TIP3    H151704   1.209   6.243   3.964 -2.1027 -1.1265  0.6780
10071TIP3    H251705   1.131   6.303   4.079  0.3212  1.6898  0.9759
10072TIP3   OH251706   4.900   3.782  10.260  0.1127  0.5244 -0.1735
10072TIP3    H151707   4.932   3.696  10.285  2.8411  1.6166  0.5249
10072TIP3    H251708   4.826   3.799  10.318 -0.8229 -1.4898 -0.6905
10073TIP3   OH251709   2.432   6.192  10.883 -0.3533  0.3459  0.0734
10073TIP3    H151710   2.392   6.279  10.884 -2.4824 -0.5581  2.0262
10073TIP3    H251711   2.375   6.140  10.827  0.2786 -0.0824 -0.1861
10074TIP3   OH251712   3.885   5.610  13.789 -0.4080  1.1881  0.2702
10074TIP3    H151713   3.910   5.639  13.877 -1.0813  0.0793  0.8436
10074TIP3    H251714   3.955   5.550  13.762  0.9680  3.1955 -0.9043
10075TIP3   OH251715   5.515   5.322  11.989 -0.2513  0.0351  0.0549
10075TIP3    H151716   5.527   5.296  11.898  0.2071  1.6624 -0.3921
10075TIP3    H251717   5.595   5.370  12.011 -0.5782  0.1236  1.1559
10076TIP3   OH251718   2.066   5.532   1.416  0.4826 -0.1754 -0.4316
10076TIP3    H151719   2.115   5.582   1.482 -1.7458  1.5259  0.0476
10076TIP3    H251720   2.014   5.470   1.466  1.8156 -1.7858 -0.9274
10077TIP3   OH251721   3.705   5.790  15.730  0.2727 -0.4881  0.0570
10077TIP3    H151722   3.654   5.835  15.798 -0.6594 -0.2643 -0.7656
10077TIP3    H251723   3.796   5.812  15.750 -0.1571  2.2594 -0.6049
10078TIP3   OH251724   3.973   5.587   2.616  0.1128 -0.4350  0.0434
10078TIP3    H151725   4.045   5.592   2.552  0.7175  0.7232  0.7596
10078TIP3    H251726   3.919   5.514   2.586  0.2830  0.1588 -1.8778
10079TIP3   OH251727   4.165   6.332   2.938 -0.0675 -0.2560  0.3774
10079TIP3    H151728   4.082   6.287   2.953 -0.6281  0.4663 -0.5016
10079TIP3    H251729   4.160   6.365   2.849  0.6028  0.9847  0.7650
10080TIP3   OH251730   4.624   6.420   1.700  0.6535 -0.2296  0.4714
10080TIP3    H151731   4.556   6.359   1.727  0.4556 -0.2184  0.0129
10080TIP3    H251732   4.581   6.480   1.639  1.1883 -0.5529 -0.2487
10081TIP3   OH251733   0.589   5.987   3.473  0.5503  0.1688 -0.4825
10081TIP3    H151734   0.503   5.950   3.456  0.5345  0.0192 -0.0852
10081TIP3    H251735   0.586   6.015   3.564  1.1543 -0.4857 -0.2531
10082TIP3   OH251736   3.888   3.883  16.477  0.2140  0.4267  0.3431
10082TIP3    H151737   3.824   3.954  16.472 -0.8221 -0.5252 -0.5685
10082TIP3    H251738   3.941   3.903  16.554 -0.8261  1.5411  0.7945
10083TIP3   OH251739   1.138   6.769  15.754  0.1377 -0.2341  0.4628
10083TIP3    H151740   1.115   6.736  15.841  2.2241 -1.2509  0.6936
10083TIP3    H251741   1.216   6.822  15.768 -0.1201  0.4958 -0.6752
10084TIP3   OH251742   4.696   0.728   5.154  0.1924 -0.0664  0.1364
10084TIP3    H151743   4.664   0.677   5.228 -0.7085  0.5637  0.1963
10084TIP3    H251744   4.790   0.738   5.171  0.7760 -3.1229 -0.7550
10085TIP3   OH251745   5.071   3.482  14.788 -0.2937 -0.7621  0.0399
10085TIP3    H151746   5.141   3.545  14.806 -0.7309 -0.3472  0.2852
10085TIP3    H251747   5.093   3.406  14.841 -0.7269 -0.1429  1.1219
10086TIP3   OH251748   5.448   1.199  13.888 -0.0902  0.0939 -0.2967
10086TIP3    H151749   5.506   1.253  13.835  0.3824 -0.5907 -0.4870
10086TIP3    H251750   5.461   1.110  13.855 -1.1108 -0.0957 -0.2244
10087TIP3   OH251751   4.657   4.693  17.176  0.0914  0.0626 -0.0865
10087TIP3    H151752   4.595   4.729  17.239  2.3865  0.1136  2.2841
10087TIP3    H251753   4.690   4.613  17.218  3.5502  1.4155  0.0558
10088TIP3   OH251754   4.006   5.691  16.238 -0.0184  0.0731 -0.3095
10088TIP3    H151755   4.059   5.628  16.288 -0.6165 -0.2389 -0.0544
10088TIP3    H251756   4.061   5.714  16.164  0.1654 -0.8785 -0.4909
10089TIP3   OH251757   4.597   2.754   1.947 -0.1487  0.5792 -0.0743
10089TIP3    H151758   4.515   2.769   1.900  0.3305  1.5247 -0.6301
10089TIP3    H251759   4.629   2.841   1.970  2.3401  0.5062 -2.7202
10090TIP3   OH251760   0.487   2.022  11.404 -0.2015 -0.1236 -0.2406
10090TIP3    H151761   0.494   2.024  11.500  0.0823 -1.2222 -0.2345
10090TIP3    H251762   0.436   2.101  11.383 -0.0474  0.2705  0.7907
10091TIP3   OH251763   4.600   0.624  13.600 -0.0269  0.2704 -0.4190
10091TIP3    H151764   4.565   0.607  13.687  3.5261  0.2040  1.1443
10091TIP3    H251765   4.655   0.702  13.611 -0.1313  0.7786 -2.8409
10092TIP3   OH251766   2.289   3.867   0.653  0.3709  0.4373 -0.0049
10092TIP3    H151767   2.266   3.859   0.561  0.9171  2.4185 -0.3590
10092TIP3    H251768   2.314   3.778   0.679 -2.1507 -0.6918 -1.0484
10093TIP3   OH251769   4.695   2.978  16.466  0.0056 -0.2320  0.2333
10093TIP3    H151770   4.743   2.987  16.548  0.4349  1.1090 -0.1369
10093TIP3    H251771   4.714   2.890  16.436 -0.2638 -0.7910  1.6304
10094TIP3   OH251772   3.151   0.463  10.721  0.5380  1.0561  0.1629
10094TIP3    H151773   3.170   0.370  10.735  1.2699  1.0906 -0.5092
10094TIP3    H251774   3.067   0.463  10.675  0.5330  0.7292  0.1668
10095TIP3   OH251775   6.708   4.316   2.110 -0.3936  0.1404 -0.5191
10095TIP3    H151776   6.621   4.354   2.123  0.1856  1.4643 -0.3248
10095TIP3    H251777   6.768   4.382   2.146  0.7382 -0.3239 -1.4981
10096TIP3   OH251778   0.499   4.894  14.895 -0.4455  0.0260 -0.2186
10096TIP3    H151779   0.508   4.801  14.874 -0.6149  0.0324 -0.3175
10096TIP3    H251780   0.575   4.935  14.853 -0.8906  0.0685 -1.0160
10097TIP3   OH251781   3.043   6.830   2.523 -0.4736 -0.3382 -0.2056
10097TIP3    H151782   3.050   6.922   2.546  1.0239 -0.3482 -0.5189
10097TIP3    H251783   3.064   6.783   2.604 -0.8761 -0.4121 -0.1407
10098TIP3   OH251784   1.915   4.178  13.208 -0.1036  0.2413  0.3817
10098TIP3    H151785   1.984   4.243  13.222 -0.4106  0.5134  0.6313
10098TIP3    H251786   1.834   4.229  13.201 -0.2330 -0.0433 -0.3155
10099TIP3   OH251787   2.229   5.270   6.721 -0.1363  0.3703 -0.0732
10099TIP3    H151788   2.279   5.327   6.780 -0.4927 -1.6377  2.3467
10099TIP3    H251789   2.268   5.184   6.733 -2.3303 -0.7121 -0.3102
10100TIP3   OH251790   0.093   1.037   3.524  0.3853  0.4398 -0.5471
10100TIP3    H151791   0.099   1.115   3.469  1.1912  0.6289 -0.2084
10100TIP3    H251792   0.183   1.004   3.529 -0.2060 -1.8103 -2.5141
10101TIP3   OH251793   1.675   2.666  13.775  0.2156 -0.3413  0.2533
10101TIP3    H151794   1.633   2.704  13.852 -0.6353  0.5713 -0.6307
10101TIP3    H251795   1.604   2.652  13.713  1.0760  0.3764 -0.9352
10102TIP3   OH251796   2.827   0.661  16.157  0.5980  0.2283 -0.1874
10102TIP3    H151797   2.868   0.746  16.141  1.6629  0.1493  1.8582
10102TIP3    H251798   2.900   0.599  16.155 -0.2384 -0.7974 -2.2742
10103TIP3   OH251799   6.465   3.980  16.001 -0.0550 -0.7222  0.0450
10103TIP3    H151800   6.492   3.998  15.911 -0.0636 -1.6261 -0.1487
10103TIP3    H251801   6.442   4.066  16.037 -1.2400 -0.4779 -1.1907
10104TIP3   OH251802   3.398   6.000   6.410  0.2757  0.6426  0.3970
10104TIP3    H151803   3.380   6.017   6.318 -1.0961  0.6057  0.6440
10104TIP3    H251804   3.352   5.918   6.429  1.3891  0.0959  0.8758
10105TIP3   OH251805   5.485   2.625   6.187 -0.3169  0.2377  0.2640
10105TIP3    H151806   5.529   2.604   6.105 -0.6663 -0.4681  0.2564
10105TIP3    H251807   5.426   2.697   6.165 -1.2668 -0.7116 -0.3796
10106TIP3   OH251808   3.639   5.826   3.260 -0.1867  0.5431 -0.3597
10106TIP3    H151809   3.681   5.844   3.175 -1.5840  1.3141 -0.9160
10106TIP3    H251810   3.582   5.751   3.244 -1.4841  1.5233 -0.4881
10107TIP3   OH251811   4.333   1.720   2.196 -0.2603  0.2008  0.1486
10107TIP3    H151812   4.410   1.709   2.140 -0.1192 -3.7659  0.8165
10107TIP3    H251813   4.360   1.786   2.261  2.0081  0.0368 -0.5455
10108TIP3   OH251814   5.064   5.176   2.303  0.2775 -0.0363 -0.6371
10108TIP3    H151815   5.132   5.120   2.268 -1.1968 -2.1208 -0.3698
10108TIP3    H251816   5.086   5.186   2.396  0.9377  0.4484 -0.8426
10109TIP3   OH251817   3.279   6.322   3.179 -0.0823 -0.2839  0.7558
10109TIP3    H151818   3.211   6.385   3.201  1.3261  1.4062  0.5046
10109TIP3    H251819   3.360   6.361   3.213  0.8430 -1.9749  0.6105
10110TIP3   OH251820   1.403   0.312  16.443 -0.7210  0.5489 -0.2083
10110TIP3    H151821   1.340   0.364  16.394 -0.6437  0.9681  0.1277
10110TIP3    H251822   1.396   0.224  16.406  1.0888  1.3285 -2.7009
10111TIP3   OH251823   4.968   6.479  16.887  0.2179  1.0552  0.1819
10111TIP3    H151824   5.038   6.493  16.824  0.7709 -1.1277  0.2278
10111TIP3    H251825   4.901   6.430  16.839 -0.2419  1.0963  0.7585
10112TIP3   OH251826   6.756   2.243   3.930  0.0681  0.1339  0.4140
10112TIP3    H151827   6.721   2.185   3.862  0.4969 -0.5517  0.7679
10112TIP3    H251828   6.696   2.233   4.004  1.8479 -2.3852  1.6687
10113TIP3   OH251829   6.068   6.628   1.372  0.2384  0.3173 -0.7862
10113TIP3    H151830   6.060   6.704   1.430 -0.1485  0.0080 -0.4226
10113TIP3    H251831   6.155   6.635   1.334  1.0986 -0.2565  0.9773
10114TIP3   OH251832   2.485   6.785  14.650  0.4174 -0.2836  0.2855
10114TIP3    H151833   2.516   6.774  14.739 -1.3589 -2.1013  0.7582
10114TIP3    H251834   2.390   6.774  14.656  0.1511  0.4913 -1.6875
10115TIP3   OH251835   0.154   5.786   2.357 -0.0100 -0.3923  0.3396
10115TIP3    H151836   0.090   5.805   2.426 -1.2676 -2.4704 -0.1814
10115TIP3    H251837   0.237   5.774   2.405 -0.4340  0.2301  1.2573
10116TIP3   OH251838   5.322   6.036   2.508  0.2844 -0.3868 -0.4828
10116TIP3    H151839   5.287   6.060   2.594 -0.8802  0.5182 -1.1746
10116TIP3    H251840   5.244   6.024   2.453  0.9074 -3.3135 -0.8603
10117TIP3   OH251841   5.165   6.466   1.829  0.5997 -0.2523 -0.5127
10117TIP3    H151842   5.116   6.457   1.747 -0.2444 -1.3284  0.0861
10117TIP3    H251843   5.216   6.546   1.818  0.3673 -0.2933 -2.0183
10118TIP3   OH251844   3.253   2.335  14.002 -0.0465  0.9584 -0.2134
10118TIP3    H151845   3.212   2.331  13.916  1.5215  2.0076 -1.0705
10118TIP3    H251846   3.267   2.244  14.027 -0.9510  0.6347 -0.8513
10119TIP3   OH251847   1.389   4.912  15.404  0.2140 -0.3483  0.4153
10119TIP3    H151848   1.443   4.988  15.427  0.0026 -0.5090  1.4909
10119TIP3    H251849   1.445   4.859  15.348 -0.5863  1.9578 -2.8613
10120TIP3   OH251850   3.157   5.805  14.149 -0.5461 -0.9190 -0.2056
10120TIP3    H151851   3.109   5.761  14.079 -0.3594 -0.3951 -0.6722
10120TIP3    H251852   3.093   5.868  14.185 -0.4143 -0.6750 -0.3963
10121TIP3   OH251853   2.550   4.935   0.447  0.7993 -0.6264 -0.1139
10121TIP3    H151854   2.622   4.905   0.391  0.8926  0.0201 -0.3603
10121TIP3    H251855   2.482   4.869   0.437  1.2309 -1.0742 -0.1435
10122TIP3   OH251856   5.785   3.458   2.563 -0.5140 -0.2651 -0.1936
10122TIP3    H151857   5.870   3.428   2.532  0.5956  0.4660  1.9356
10122TIP3    H251858   5.778   3.548   2.531  1.6755  1.3291  3.2453
10123TIP3   OH251859   2.851   4.964  14.345  0.0901 -0.1511 -0.2710
10123TIP3    H151860   2.936   4.986  14.306  0.9112 -2.1117  0.2989
10123TIP3    H251861   2.791   5.030  14.310  2.2551  2.8739  1.2469
10124TIP3   OH251862   4.832   5.279   0.050  0.6473 -0.0678 -0.6254
10124TIP3    H151863   4.817   5.226  -0.029 -0.3757 -0.0463 -0.4587
10124TIP3    H251864   4.766   5.249   0.112  1.9411 -0.6357  0.5268
10125TIP3   OH251865   0.212   1.675   2.193 -0.0638  0.4238  0.1117
10125TIP3    H151866   0.271   1.750   2.188  1.0338 -0.4663 -0.8352
10125TIP3    H251867   0.196   1.650   2.102 -1.6892  0.4513  0.3561
10126TIP3   OH251868   3.464   4.405  13.858 -0.4400  0.5437 -0.3136
10126TIP3    H151869   3.403   4.331  13.859  2.3020 -1.9649 -1.4655
10126TIP3    H251870   3.514   4.396  13.939  0.8411  0.1883 -1.1050
10127TIP3   OH251871   3.582   2.773  12.147 -0.3896 -0.0350  1.0815
10127TIP3    H151872   3.561   2.863  12.169 -0.2174  0.0317  0.9705
10127TIP3    H251873   3.585   2.771  12.051  0.1023 -0.0460  1.0954
10128TIP3   OH251874   3.981   6.536  15.285 -0.5624  0.0251 -0.1405
10128TIP3    H151875   3.973   6.560  15.378  1.6459  1.1481 -0.1565
10128TIP3    H251876   4.005   6.444  15.286  0.0362  0.1813  0.4496
10129TIP3   OH251877   6.043   0.152  16.512 -0.2926 -0.4321  0.6484
10129TIP3    H151878   6.049   0.104  16.430  0.6900  2.2062 -0.9613
10129TIP3    H251879   6.132   0.183  16.528 -0.6462 -0.1465  2.2603
10130TIP3   OH251880   3.543   3.567  14.527  0.2620  0.1297 -0.5598
10130TIP3    H151881   3.496   3.582  14.445 -1.2927  0.8013  0.4090
10130TIP3    H251882   3.635   3.569  14.502 -0.1772 -1.6558 -2.6013
10131TIP3   OH251883   1.535   3.499  15.706 -0.3907 -0.0524 -0.0121
10131TIP3    H151884   1.485   3.551  15.770  1.9304 -0.4522  2.3249
10131TIP3    H251885   1.574   3.564  15.648  1.2788  0.8272  1.9727
10132TIP3   OH251886   2.807   2.783  13.723 -0.5211  0.0458 -0.0774
10132TIP3    H151887   2.795   2.749  13.811 -2.7673 -0.3544 -0.4766
10132TIP3    H251888   2.811   2.878  13.734  0.0693 -0.0452  0.5250
10133TIP3   OH251889   0.426   1.847   2.743  0.1388  0.4001  0.3486
10133TIP3    H151890   0.435   1.787   2.670  2.0630  0.2264  0.6827
10133TIP3    H251891   0.358   1.809   2.798  1.1270 -1.3506  0.4123
10134TIP3   OH251892   5.317   2.829   1.563 -0.0287  0.6564  0.1726
10134TIP3    H151893   5.258   2.756   1.583  0.6157  0.3381  0.9802
10134TIP3    H251894   5.276   2.904   1.605 -0.0888  0.5189  0.3658
10135TIP3   OH251895   4.997   0.567  12.832 -0.0271  0.7716  0.1194
10135TIP3    H151896   5.000   0.476  12.803 -1.6417  0.5678  0.5215
10135TIP3    H251897   5.081   0.580  12.876  0.9173 -0.0095 -1.3623
10136TIP3   OH251898   5.323   0.524   5.266  0.2160 -0.4771 -0.0224
10136TIP3    H151899   5.376   0.592   5.308  1.0562 -0.5078 -0.9879
10136TIP3    H251900   5.376   0.495   5.192 -0.7908 -1.1282 -0.5086
10137TIP3   OH251901   2.775   5.567   1.967 -0.2089  0.0946  0.4581
10137TIP3    H151902   2.709   5.615   1.918  0.3638  0.2343 -0.1909
10137TIP3    H251903   2.756   5.587   2.058 -2.1563 -1.2604  0.4183
10138TIP3   OH251904   3.440   3.718  11.820 -0.6383  0.3397  0.1574
10138TIP3    H151905   3.513   3.660  11.795 -0.4584  0.3356  0.6850
10138TIP3    H251906   3.481   3.802  11.837 -0.6354  0.1342  1.2492
10139TIP3   OH251907   3.818   0.171   2.720  0.8367  0.5917 -0.3471
10139TIP3    H151908   3.856   0.086   2.741 -0.2846 -0.1336 -1.1144
10139TIP3    H251909   3.784   0.161   2.631 -1.0501  1.1950  0.2603
10140TIP3   OH251910   2.798   1.452  12.274  0.0770 -0.8214  0.1498
10140TIP3    H151911   2.801   1.503  12.355  0.1458  0.9038 -0.8835
10140TIP3    H251912   2.705   1.436  12.259 -0.0490  0.2063 -0.2173
10141TIP3   OH251913   3.899   5.274   0.974 -0.1755  0.4736  0.3078
10141TIP3    H151914   3.823   5.230   0.938  1.3901 -2.1881  0.0259
10141TIP3    H251915   3.966   5.267   0.906  1.0379  0.6612  1.4318
10142TIP3   OH251916   1.169   6.326  14.138  0.2732  0.1387 -0.6399
10142TIP3    H151917   1.253   6.372  14.138  0.2844  0.1187 -0.6730
10142TIP3    H251918   1.173   6.268  14.214  0.2819  0.1522 -0.6299
10143TIP3   OH251919   1.575   5.873   6.499 -0.0432 -0.0978 -0.5736
10143TIP3    H151920   1.503   5.915   6.546  0.4196  0.4995 -0.3824
10143TIP3    H251921   1.609   5.808   6.560 -0.3143 -0.2666 -0.6015
10144TIP3   OH251922   3.133   5.457   3.977  0.0678 -0.5653 -0.0969
10144TIP3    H151923   3.054   5.511   3.968  0.4420 -0.0263 -0.2289
10144TIP3    H251924   3.126   5.419   4.064  1.4241  2.4220  1.4779
10145TIP3   OH251925   1.781   3.819  13.940  0.1077 -0.0835  0.0007
10145TIP3    H151926   1.782   3.788  14.030  0.8266  0.0727  0.0523
10145TIP3    H251927   1.749   3.745  13.889 -1.3981  0.1959  0.5051
10146TIP3   OH251928   0.379   0.815   4.959  0.0824  0.0896 -0.4026
10146TIP3    H151929   0.446   0.787   5.022  0.3765  1.0405 -0.2698
10146TIP3    H251930   0.402   0.771   4.877  0.7010  0.1837 -0.2831
10147TIP3   OH251931   1.965   5.799  13.928 -0.6575  0.0482 -0.2727
10147TIP3    H151932   2.024   5.830  13.997 -1.1242  0.1696  0.0735
10147TIP3    H251933   1.900   5.868  13.920 -0.3141  0.2735 -1.1959
10148TIP3   OH251934   5.532   1.877  16.277  0.4144 -0.0890  0.4343
10148TIP3    H151935   5.461   1.863  16.215  3.3623 -1.5354 -2.9665
10148TIP3    H251936   5.562   1.966  16.260  0.5024 -0.0809  0.6261
10149TIP3   OH251937   3.068   4.614   1.512 -0.3197 -0.1156 -0.1795
10149TIP3    H151938   3.091   4.532   1.468  2.8039  0.5005  0.0849
10149TIP3    H251939   3.116   4.612   1.595  0.4200  2.2673 -0.4670
10150TIP3   OH251940   4.907   1.237  16.355 -0.0702 -0.4295 -0.4362
10150TIP3    H151941   4.990   1.193  16.370  0.4356 -0.3970 -2.7590
10150TIP3    H251942   4.929   1.330  16.352 -0.1895 -0.4217 -1.0900
10151TIP3   OH251943   0.415   2.883  11.133 -0.8359 -0.7545  0.2960
10151TIP3    H151944   0.510   2.872  11.137 -0.9503 -2.3506 -0.4124
10151TIP3    H251945   0.388   2.899  11.223  0.0950 -0.3171  0.5051
10152TIP3   OH251946   0.430   5.445   3.999  0.1495  0.0896  0.2115
10152TIP3    H151947   0.420   5.497   4.079 -1.5507 -0.3467  0.3182
10152TIP3    H251948   0.476   5.366   4.027  0.1603  0.2418  0.6229
10153TIP3   OH251949   0.298   1.641  11.940 -0.4732 -0.0898 -0.3977
10153TIP3    H151950   0.204   1.626  11.931 -0.2834 -2.6661  0.8520
10153TIP3    H251951   0.337   1.601  11.863 -0.3714  1.1913 -1.0388
10154TIP3   OH251952   5.253   2.266  13.031 -0.9444 -0.1747  0.4861
10154TIP3    H151953   5.319   2.197  13.031 -2.1950 -1.4258  0.5047
10154TIP3    H251954   5.220   2.269  13.121  0.2507  1.6610  0.9277
10155TIP3   OH251955   0.207   2.906   2.844  0.0253 -0.3503  0.0592
10155TIP3    H151956   0.234   2.998   2.840 -0.5501 -0.1892 -0.3187
10155TIP3    H251957   0.228   2.871   2.757  0.4042 -0.6259  0.2594
10156TIP3   OH251958   5.629   1.723  12.994 -0.2444  0.2724 -0.1866
10156TIP3    H151959   5.575   1.754  12.920  2.4234  1.5362 -1.7504
10156TIP3    H251960   5.697   1.789  13.003  0.1203 -0.3916  2.8253
10157TIP3   OH251961   1.304   6.311   0.342 -0.1323  0.0260  0.3180
10157TIP3    H151962   1.392   6.296   0.376  0.3477 -0.8993 -1.2444
10157TIP3    H251963   1.307   6.398   0.303 -0.4553  0.7498  1.8319
10158TIP3   OH251964   1.062   6.366  13.824  0.0293  0.6005  0.5457
10158TIP3    H151965   1.048   6.459  13.808 -2.6238  0.4153  1.2266
10158TIP3    H251966   1.095   6.331  13.742 -0.3793  1.8834 -0.1814
10159TIP3   OH251967   5.461   2.419  12.227  0.1613 -0.4528  0.1757
10159TIP3    H151968   5.393   2.398  12.291 -0.8992  3.9400  0.7853
10159TIP3    H251969   5.432   2.500  12.186  4.0464  0.5235 -1.0477
10160TIP3   OH251970   1.334   4.541  11.706 -0.2632  0.6564  0.0346
10160TIP3    H151971   1.394   4.596  11.655  0.9365 -0.5318  0.0928
10160TIP3    H251972   1.367   4.548  11.796  0.2625 -0.5415 -0.0382
10161TIP3   OH251973   4.734   0.207   6.073  0.3167 -0.8448  0.5930
10161TIP3    H151974   4.816   0.158   6.066 -0.7929 -2.5324 -1.5854
10161TIP3    H251975   4.706   0.195   6.164  2.0156 -0.9728  1.1292
10162TIP3   OH251976   2.287   3.769  12.122 -0.6513  0.1872 -0.1414
10162TIP3    H151977   2.258   3.860  12.111  0.6817  0.6997  0.3694
10162TIP3    H251978   2.220   3.729  12.177  0.1736  1.6880  2.1065
10163TIP3   OH251979   5.079   0.012  16.079  0.5385  0.9212 -0.0765
10163TIP3    H151980   4.992   0.046  16.060  0.0719 -0.5439 -0.7487
10163TIP3    H251981   5.138   0.082  16.054 -0.4200  1.7448 -0.1046
10164TIP3   OH251982   3.638   5.310  14.754 -0.4354  0.0065 -0.0154
10164TIP3    H151983   3.552   5.341  14.724  0.2183  0.4240 -1.5619
10164TIP3    H251984   3.620   5.269  14.839 -2.0259  0.7933  0.0729
10165TIP3   OH251985   0.529   0.548   6.034  0.1424 -0.4450 -0.2774
10165TIP3    H151986   0.547   0.574   6.124  0.8929  0.3002 -0.6229
10165TIP3    H251987   0.594   0.480   6.015  1.2762  0.7621 -0.8554
10166TIP3   OH251988   0.492   6.513   5.404  0.6820 -0.4241  0.5167
10166TIP3    H151989   0.404   6.486   5.430 -0.6450  0.6082 -2.4089
10166TIP3    H251990   0.541   6.431   5.397 -0.8565 -1.3138 -0.3398
10167TIP3   OH251991   5.936   0.744  11.384 -0.8030 -0.1231 -0.5926
10167TIP3    H151992   5.987   0.805  11.330  2.2586 -1.6984  0.3508
10167TIP3    H251993   5.891   0.801  11.447  2.5829  1.2733  0.7882
10168TIP3   OH251994   0.764   1.344   0.285  0.1125 -0.0085 -0.1183
10168TIP3    H151995   0.810   1.339   0.369 -1.1819 -0.6344  0.5850
10168TIP3    H251996   0.673   1.326   0.307  0.0381 -2.3063 -1.9414
10169TIP3   OH251997   5.716   6.026   4.571 -0.1753  0.9525  0.1431
10169TIP3    H151998   5.762   6.069   4.499  0.3725 -0.4661 -0.3818
10169TIP3    H251999   5.710   6.093   4.639 -0.7035  2.3271 -1.2077
10170TIP3   OH252000   0.995   6.024   6.118 -0.4015 -0.2756  0.4385
10170TIP3    H152001   0.947   6.080   6.179 -1.1542 -0.0889 -0.2979
10170TIP3    H252002   1.027   5.951   6.172  0.8543  0.9782  1.4714
10171TIP3   OH252003   5.740   3.880   5.799  0.3321 -0.3497  0.7029
10171TIP3    H152004   5.653   3.908   5.826  0.9817  0.5224  1.9793
10171TIP3    H252005   5.754   3.797   5.845  0.2822 -0.3536  0.7117
10172TIP3   OH252006   0.379   2.066  14.264 -0.1334 -0.0195  0.3337
10172TIP3    H152007   0.402   2.074  14.357 -0.8792 -0.3656  0.5597
10172TIP3    H252008   0.441   2.122  14.219 -0.3157  0.8566  1.1322
10173TIP3   OH252009   6.642   1.701   6.204 -0.4454 -0.1411 -0.0384
10173TIP3    H152010   6.608   1.784   6.170  0.6428 -0.0359 -0.9355
10173TIP3    H252011   6.679   1.724   6.289  1.3110  0.6889 -0.9575
10174TIP3   OH252012   2.639   0.534   4.246 -0.4681  0.2559  0.1621
10174TIP3    H152013   2.728   0.499   4.247 -0.1434  1.0568  0.3530
10174TIP3    H252014   2.585   0.461   4.216  0.0383 -0.7117  1.5071
10175TIP3   OH252015   1.002   3.041  11.638 -0.1261  0.4887 -0.4917
10175TIP3    H152016   0.932   2.992  11.681 -0.4139  0.3256 -1.1359
10175TIP3    H252017   1.014   2.997  11.554 -0.1120  1.2818 -0.9137
10176TIP3   OH252018   5.112   5.719  13.348  0.5335  0.1459  0.4199
10176TIP3    H152019   5.101   5.730  13.253  0.8316  0.7430  0.4493
10176TIP3    H252020   5.140   5.628  13.358 -1.2802 -0.5010  0.0945
10177TIP3   OH252021   4.265   0.502  14.470 -0.4526  0.1749  0.3448
10177TIP3    H152022   4.264   0.421  14.419  0.3053  0.5005 -0.2071
10177TIP3    H252023   4.289   0.474  14.558 -0.4999 -0.2404  0.2302
10178TIP3   OH252024   3.894   1.026   3.661  0.2163  0.0058 -0.2244
10178TIP3    H152025   3.815   1.004   3.610 -0.9030 -1.3443  1.9223
10178TIP3    H252026   3.868   1.100   3.715  1.1507  0.9307 -0.9946
10179TIP3   OH252027   1.228   6.392  11.222  0.2085 -0.7474 -0.5971
10179TIP3    H152028   1.300   6.330  11.210 -0.3450 -1.3793 -0.7291
10179TIP3    H252029   1.158   6.340  11.261 -0.0502 -0.0523 -0.1086
10180TIP3   OH252030   5.944   2.669   1.584 -0.5334 -0.2663 -0.0564
10180TIP3    H152031   5.969   2.579   1.566 -0.8364 -0.2965 -0.3368
10180TIP3    H252032   5.867   2.662   1.640 -0.1926 -0.1768  0.4293
10181TIP3   OH252033   1.945   4.393   2.373  0.1781 -0.0425 -0.4753
10181TIP3    H152034   1.899   4.310   2.367  1.5411 -0.8869  0.1945
10181TIP3    H252035   1.979   4.396   2.462  0.7930  0.8808 -0.7206
10182TIP3   OH252036   5.901   2.261  15.040  0.0688  0.2492 -0.4866
10182TIP3    H152037   5.919   2.309  15.122 -0.1928 -1.1825  0.4475
10182TIP3    H252038   5.825   2.306  15.003  2.0806  2.9576 -1.6809
10183TIP3   OH252039   4.727   4.699   5.639 -0.4388 -0.8724 -0.1625
10183TIP3    H152040   4.795   4.746   5.688 -2.2409 -0.1840  1.8357
10183TIP3    H252041   4.749   4.714   5.547  1.1024  0.8076  0.4141
10184TIP3   OH252042   4.862   3.590  12.245  0.3706 -0.1641 -0.1120
10184TIP3    H152043   4.940   3.635  12.212 -0.4018  1.9244  0.6931
10184TIP3    H252044   4.803   3.661  12.271 -1.9594 -1.6579 -1.0100
10185TIP3   OH252045   6.183   4.242  16.996  0.0380  0.4699 -0.1410
10185TIP3    H152046   6.145   4.158  16.970  0.4729  0.5513 -1.1005
10185TIP3    H252047   6.130   4.308  16.950  0.5276  0.6465 -0.4608
10186TIP3   OH252048   6.318   1.898   0.585  0.3977  0.1812 -0.3941
10186TIP3    H152049   6.224   1.881   0.583  0.5162 -1.2559  2.2548
10186TIP3    H252050   6.345   1.893   0.493 -1.6101 -2.5881 -0.9629
10187TIP3   OH252051   6.692   1.641  16.410 -0.3500  0.3213 -0.0783
10187TIP3    H152052   6.785   1.654  16.429 -0.1272 -0.7674 -0.3635
10187TIP3    H252053   6.672   1.555  16.447 -0.9179 -0.0234 -1.1588
10188TIP3   OH252054   2.447   6.543   3.897  0.2667  0.1559  0.4057
10188TIP3    H152055   2.418   6.631   3.917  0.7972  0.5926 -0.6663
10188TIP3    H252056   2.468   6.504   3.982  1.4834  1.5794  0.7922
10189TIP3   OH252057   3.479   2.630   3.580  0.1490  0.2261 -0.4936
10189TIP3    H152058   3.524   2.546   3.573  0.2577  0.1239  1.0453
10189TIP3    H252059   3.426   2.636   3.501  0.7179 -0.9402 -0.9859
10190TIP3   OH252060   4.204   5.821  11.479 -0.6946  0.1503  0.3327
10190TIP3    H152061   4.151   5.767  11.538  0.3451  1.0800  2.2155
10190TIP3    H252062   4.295   5.801  11.504 -0.2488  3.1308  1.5910
10191TIP3   OH252063   4.450   2.909  15.018 -0.1506 -0.7822  0.8988
10191TIP3    H152064   4.452   2.902  15.113  0.6153  1.2064  1.0890
10191TIP3    H252065   4.372   2.861  14.991 -0.4446 -1.2649  2.5327
10192TIP3   OH252066   1.133   0.717   0.558  0.1742  0.1391  0.6994
10192TIP3    H152067   1.181   0.671   0.627 -0.0855 -2.5327 -0.7390
10192TIP3    H252068   1.184   0.701   0.479 -1.9533 -1.0668 -0.5212
10193TIP3   OH252069   0.885   0.551  12.563  0.1971  0.5989  0.5953
10193TIP3    H152070   0.879   0.542  12.658  2.2054  0.8566  0.7874
10193TIP3    H252071   0.944   0.625  12.549  0.3011  0.2792 -0.8574
10194TIP3   OH252072   2.090   5.415  11.560  0.2603 -0.2448 -0.1905
10194TIP3    H152073   2.078   5.489  11.501  1.6063  0.3732  0.2675
10194TIP3    H252074   2.074   5.450  11.647 -0.0719 -0.7454 -0.0432
10195TIP3   OH252075   2.597   6.806  15.976 -0.0575  0.0659  0.0914
10195TIP3    H152076   2.689   6.814  15.951  0.3444 -0.7855  1.2270
10195TIP3    H252077   2.569   6.723  15.937 -0.8449  1.0785 -1.6311
10196TIP3   OH252078   2.026   4.343   4.062 -0.5273  0.3378 -0.3088
10196TIP3    H152079   2.013   4.421   4.116  0.7913  0.6178 -0.3638
10196TIP3    H252080   2.001   4.370   3.974 -0.8551  0.4560 -0.1792
10197TIP3   OH252081   6.294   4.540  11.151  0.4911  0.5298  0.0204
10197TIP3    H152082   6.307   4.517  11.059 -1.6377  0.0427 -0.2028
10197TIP3    H252083   6.316   4.459  11.198 -0.6880  0.0317 -0.2594
10198TIP3   OH252084   2.949   0.761   2.613  0.7462  0.3374 -0.4913
10198TIP3    H152085   2.891   0.766   2.689  2.6789  1.2881  1.0093
10198TIP3    H252086   2.977   0.851   2.598  0.6326  0.1194 -2.1735
10199TIP3   OH252087   3.172   4.548   2.621  0.4728 -0.4011  0.2361
10199TIP3    H152088   3.078   4.544   2.604  0.5763 -0.4408 -0.3517
10199TIP3    H252089   3.179   4.571   2.714 -0.1141 -0.3313  0.2658
10200TIP3   OH252090   1.889   5.200   0.542  0.1916 -0.4727 -0.7305
10200TIP3    H152091   1.932   5.241   0.618 -0.4849 -1.8115  0.4267
10200TIP3    H252092   1.917   5.109   0.546 -0.2148 -0.6612 -1.8588
10201TIP3   OH252093   5.680   0.556   3.735 -0.0538 -0.4960  0.6614
10201TIP3    H152094   5.731   0.602   3.802 -2.1744  0.5783  1.6459
10201TIP3    H252095   5.624   0.623   3.698 -1.2005 -1.7371  0.0774
10202TIP3   OH252096   5.002   6.045   5.868  0.3517 -0.4064 -0.1067
10202TIP3    H152097   4.956   5.965   5.895 -0.4715  0.4218  1.0513
10202TIP3    H252098   4.991   6.049   5.773 -0.6766 -1.0281 -0.0270
10203TIP3   OH252099   3.785   6.271  10.724 -0.2003 -0.0686 -0.0822
10203TIP3    H152100   3.804   6.190  10.677  0.1744  0.2739 -0.5361
10203TIP3    H252101   3.743   6.327  10.659  0.5959  0.5198 -0.1096
10204TIP3   OH252102   6.416   5.785   5.201 -0.5602 -0.1591 -0.2050
10204TIP3    H152103   6.451   5.700   5.175 -0.3083  0.1577 -0.9510
10204TIP3    H252104   6.371   5.769   5.284  2.0653 -0.4172  1.2819
10205TIP3   OH252105   5.452   2.397   3.147 -0.2178  0.3525 -0.3579
10205TIP3    H152106   5.389   2.328   3.169 -0.8056  0.9147 -0.2598
10205TIP3    H252107   5.514   2.396   3.220  0.5012 -0.8910 -0.9459
10206TIP3   OH252108   4.721   1.076  12.725 -0.4112 -0.2973 -0.3760
10206TIP3    H152109   4.758   1.161  12.746 -3.2433  0.3949  2.7947
10206TIP3    H252110   4.792   1.014  12.741  0.3511  1.1321  2.4054
10207TIP3   OH252111   0.490   2.457  13.333 -0.8127 -0.7642  0.0961
10207TIP3    H152112   0.476   2.363  13.320 -1.2358 -0.8528  1.1142
10207TIP3    H252113   0.414   2.486  13.383 -1.5904  0.4894 -1.6937
10208TIP3   OH252114   6.690   0.300   0.725 -0.1372  0.1025  0.3562
10208TIP3    H152115   6.687   0.394   0.744  1.2199  0.3941 -0.7252
10208TIP3    H252116   6.629   0.287   0.652 -1.0725 -0.0481  1.1455
10209TIP3   OH252117   0.149   3.773  12.846  0.3970  0.5060  0.3995
10209TIP3    H152118   0.093   3.778  12.768  0.8138 -0.7073 -0.0047
10209TIP3    H252119   0.232   3.810  12.818  1.0224 -1.2980 -0.2127
10210TIP3   OH252120   5.450   6.321   4.872  0.4242 -0.2678 -0.4530
10210TIP3    H152121   5.463   6.358   4.785  1.5814 -0.1971 -0.2549
10210TIP3    H252122   5.533   6.335   4.918 -0.1307 -0.3954  0.6333
10211TIP3   OH252123   3.354   5.896  15.876 -0.0028 -0.4051 -0.1179
10211TIP3    H152124   3.315   5.895  15.963 -0.5177  2.1437 -0.2436
10211TIP3    H252125   3.449   5.896  15.893 -0.0949  0.5711  0.5024
10212TIP3   OH252126   6.633   5.209  16.300  0.3919 -0.4801  0.2426
10212TIP3    H152127   6.709   5.261  16.274  0.0809 -1.7375 -3.9696
10212TIP3    H252128   6.667   5.145  16.361  1.8438  1.3217  1.4190
10213TIP3   OH252129   2.866   4.466   5.873  0.8862  0.2464 -0.0951
10213TIP3    H152130   2.860   4.536   5.939  0.3305 -0.8037  0.9988
10213TIP3    H252131   2.836   4.388   5.918  2.7590 -1.0047 -0.8987
10214TIP3   OH252132   1.886   3.543   3.281 -0.0881 -0.3808  0.2811
10214TIP3    H152133   1.879   3.467   3.338  1.5043  0.3768  1.5970
10214TIP3    H252134   1.883   3.508   3.192 -0.2528 -1.8745  0.8633
10215TIP3   OH252135   0.092   3.016  11.203  0.1250 -0.5478 -0.7205
10215TIP3    H152136   0.158   3.050  11.263  0.7290  0.9788 -2.1602
10215TIP3    H252137   0.102   2.921  11.207  0.1638 -0.5002  1.5074
10216TIP3   OH252138   0.777   5.931  10.672  0.0796 -0.1420 -0.4857
10216TIP3    H152139   0.844   5.975  10.724 -0.1615 -1.8097  1.3431
10216TIP3    H252140   0.696   5.977  10.692  0.0059 -0.7123  0.5568
10217TIP3   OH252141   6.756   5.392   0.643 -0.6831 -0.5325  0.1727
10217TIP3    H152142   6.755   5.458   0.573 -0.5517  1.4908  1.9631
10217TIP3    H252143   6.845   5.396   0.678 -0.9570 -0.9220  0.9387
10218TIP3   OH252144   1.027   6.235   2.728 -0.1431  0.6274  0.3938
10218TIP3    H152145   1.091   6.212   2.795 -0.4101 -1.4336  0.0135
10218TIP3    H252146   1.019   6.156   2.674 -2.5135  1.0072  0.0554
10219TIP3   OH252147   0.765   4.844  14.007 -0.8656 -0.4005 -0.0597
10219TIP3    H152148   0.844   4.798  13.977 -0.5340 -0.7951  1.3382
10219TIP3    H252149   0.753   4.915  13.943 -0.2139 -1.1907 -1.0982
10220TIP3   OH252150   5.487   6.652   3.165  0.4303 -0.1337 -0.4910
10220TIP3    H152151   5.425   6.636   3.094  1.1770 -1.7575 -0.8297
10220TIP3    H252152   5.514   6.564   3.193  0.7573  0.4804  1.2704
10221TIP3   OH252153   0.764   1.452   2.082  0.5355  0.1705 -0.1040
10221TIP3    H152154   0.716   1.527   2.046  1.1779 -0.2258 -1.8831
10221TIP3    H252155   0.711   1.376   2.059  1.1201 -0.1181 -0.5126
10222TIP3   OH252156   6.500   0.735   2.992 -0.3353  0.1207  0.1477
10222TIP3    H152157   6.496   0.807   2.928  0.0854 -1.7295 -2.0634
10222TIP3    H252158   6.411   0.701   2.995 -0.3395  0.1564  0.5442
10223TIP3   OH252159   0.400   2.208   1.921 -0.3554  0.3378 -0.3409
10223TIP3    H152160   0.419   2.297   1.949  0.3935 -0.4365  1.7487
10223TIP3    H252161   0.437   2.203   1.832  0.9970  1.6368  0.1068
10224TIP3   OH252162   3.089   4.823   5.738 -0.4216 -0.4753  0.8979
10224TIP3    H152163   3.098   4.882   5.664 -0.2874 -1.8376 -0.2017
10224TIP3    H252164   3.028   4.867   5.797 -0.9772  0.3619 -0.2805
10225TIP3   OH252165   0.278   0.254  15.480  0.2120 -0.2005  0.0277
10225TIP3    H152166   0.329   0.189  15.527  1.7290  0.3948 -0.7256
10225TIP3    H252167   0.323   0.265  15.397 -2.9656 -1.9814 -2.1112
10226TIP3   OH252168   6.024   3.448   4.638 -0.5647  0.4331 -0.0594
10226TIP3    H152169   6.005   3.541   4.652 -0.0826  0.4383  0.6138
10226TIP3    H252170   5.949   3.402   4.675 -0.6900  0.5527 -0.1685
10227TIP3   OH252171   3.760   0.676  12.495  0.4585 -0.4919 -0.7851
10227TIP3    H152172   3.741   0.643  12.583  0.8383  0.3364 -0.3842
10227TIP3    H252173   3.679   0.721  12.468  0.5911 -0.1115 -0.5563
10228TIP3   OH252174   1.877   2.436  15.959  0.9382  0.6646 -0.2980
10228TIP3    H152175   1.885   2.482  15.875  0.2231  0.9284 -0.2318
10228TIP3    H252176   1.797   2.472  15.998  1.4989  0.8692  0.6946
10229TIP3   OH252177   0.172   0.743   4.241 -0.6415 -0.4724 -0.5035
10229TIP3    H152178   0.160   0.832   4.273  3.0679 -0.5159  1.5555
10229TIP3    H252179   0.196   0.753   4.149 -2.0480  0.4445 -0.8003
10230TIP3   OH252180   2.138   0.365   0.437  0.6161  0.2773 -0.1123
10230TIP3    H152181   2.160   0.331   0.350  0.3944 -0.3031  0.0558
10230TIP3    H252182   2.195   0.317   0.497 -1.1407 -1.3230  0.3422
10231TIP3   OH252183   5.926   5.237   5.900 -0.0636  0.3323 -0.2563
10231TIP3    H152184   5.854   5.300   5.912 -0.4685 -0.1214 -0.2989
10231TIP3    H252185   5.989   5.261   5.968  1.0103  2.4745 -1.8785
10232TIP3   OH252186   5.412   4.796  14.918  0.4850  0.3673  0.0188
10232TIP3    H152187   5.323   4.760  14.916 -0.4067  2.4205 -2.3992
10232TIP3    H252188   5.462   4.739  14.860  0.1949  0.4492 -0.3137
10233TIP3   OH252189   5.205   5.785   0.827  0.4498 -0.2525  0.0859
10233TIP3    H152190   5.260   5.856   0.794  1.1042 -0.4223  0.7834
10233TIP3    H252191   5.137   5.830   0.878  0.0831 -0.0604 -0.5568
10234TIP3   OH252192   2.949   0.676  10.330 -0.0794  0.0466  0.6435
10234TIP3    H152193   2.870   0.724  10.302 -0.6137 -0.0949  1.8604
10234TIP3    H252194   2.915   0.598  10.374  0.6730  0.8006  2.6644
10235TIP3   OH252195   0.302   4.639   0.417  0.5970  0.0344  0.2090
10235TIP3    H152196   0.316   4.548   0.444  0.3219 -0.0759 -0.0193
10235TIP3    H252197   0.239   4.673   0.480  0.4822 -0.0164  0.1204
10236TIP3   OH252198   6.030   4.120   2.440 -0.4863  0.2915 -0.1240
10236TIP3    H152199   6.008   4.214   2.436 -1.4376  0.0362 -1.7999
10236TIP3    H252200   6.101   4.110   2.376  0.0010 -0.0484  0.4664
10237TIP3   OH252201   4.999   2.143   5.181  0.1098  0.1849  0.5579
10237TIP3    H152202   5.092   2.155   5.161 -0.4096  0.1955 -2.2883
10237TIP3    H252203   4.958   2.225   5.156 -0.8245 -0.2739  0.5454
10238TIP3   OH252204   6.247   0.796  12.982  0.0345  0.0013  0.5132
10238TIP3    H152205   6.327   0.783  12.931 -1.5561 -1.0568 -1.8803
10238TIP3    H252206   6.245   0.724  13.045 -0.0262 -1.2295 -0.8474
10239TIP3   OH252207   3.371   4.182  11.995  0.0874 -0.7231 -0.0536
10239TIP3    H152208   3.379   4.214  12.085 -0.5495  0.0844 -0.2707
10239TIP3    H252209   3.285   4.212  11.966  0.4846 -0.5277 -1.1032
10240TIP3   OH252210   3.244   5.639   4.143 -0.0713 -0.2310  0.4883
10240TIP3    H152211   3.309   5.594   4.197  0.0907  0.3725  0.8080
10240TIP3    H252212   3.223   5.577   4.073 -0.4041 -1.0913  1.3340
10241TIP3   OH252213   3.897   5.299   4.373 -0.3320  0.6298  0.4555
10241TIP3    H152214   3.817   5.319   4.422 -0.6113  0.0374  0.2513
10241TIP3    H252215   3.943   5.234   4.426 -1.7403 -1.7735 -1.0663
10242TIP3   OH252216   3.124   2.839   1.643 -0.4509  0.1176  0.6271
10242TIP3    H152217   3.044   2.890   1.658 -0.4234  0.0335  1.0965
10242TIP3    H252218   3.194   2.903   1.653 -0.4872  0.4329 -0.8908
10243TIP3   OH252219   2.718   4.876  15.525 -0.0023  0.0160  0.1745
10243TIP3    H152220   2.781   4.813  15.491  0.5898 -0.2501  1.6947
10243TIP3    H252221   2.768   4.930  15.587 -0.7747  1.2197 -0.2046
10244TIP3   OH252222   5.463   5.730   4.628  1.0177 -0.4068  0.4940
10244TIP3    H152223   5.409   5.665   4.675  1.0770 -0.0851  1.0034
10244TIP3    H252224   5.403   5.766   4.562  0.2483  0.7444  1.7656
10245TIP3   OH252225   5.049   0.572   5.329  0.0409 -0.1464  0.1133
10245TIP3    H152226   5.133   0.546   5.293 -0.2036 -1.4983  0.4617
10245TIP3    H252227   5.009   0.627   5.261  1.6610  1.4908  0.4185
10246TIP3   OH252228   0.879   6.157  12.900 -0.5721  0.0020  0.0438
10246TIP3    H152229   0.962   6.204  12.894  1.5840 -3.1817  1.6813
10246TIP3    H252230   0.867   6.119  12.813  0.3017 -0.4135  0.0967
10247TIP3   OH252231   3.870   2.374  10.280  0.3221 -0.6094  0.2273
10247TIP3    H152232   3.847   2.337  10.365 -2.8694 -0.8254 -0.6087
10247TIP3    H252233   3.829   2.316  10.216  2.6894 -0.5057 -1.5473
10248TIP3   OH252234   0.161   0.469  16.278 -0.5742  0.4490  0.3430
10248TIP3    H152235   0.242   0.504  16.315  0.4961 -1.3639 -0.1622
10248TIP3    H252236   0.140   0.394  16.334 -1.4551  0.4062 -0.0300
10249TIP3   OH252237   0.159   4.732   2.967  0.4553 -0.4147 -0.0989
10249TIP3    H152238   0.125   4.643   2.963  0.8895 -0.8251  2.9003
10249TIP3    H252239   0.218   4.732   3.043  1.0629  2.2438 -0.4609
10250TIP3   OH252240   1.497   4.783  11.016 -0.1755  0.3115  0.4690
10250TIP3    H152241   1.556   4.857  11.035 -0.8805  0.5877  1.6703
10250TIP3    H252242   1.486   4.786  10.921 -0.1893  1.7798  0.4853
10251TIP3   OH252243   5.273   4.991  14.610 -0.2161  0.3258 -0.3599
10251TIP3    H152244   5.309   4.912  14.572 -0.8461 -0.0050 -0.2864
10251TIP3    H252245   5.178   4.984  14.596 -0.6048 -0.2942  2.1217
10252TIP3   OH252246   4.692   4.286  12.086 -0.0507  0.0102  0.0740
10252TIP3    H152247   4.685   4.257  12.177 -1.0856  0.6892  0.2311
10252TIP3    H252248   4.639   4.223  12.037 -1.1619  0.7780  0.2347
10253TIP3   OH252249   1.881   3.369  13.731 -0.0661  0.0627 -0.4641
10253TIP3    H152250   1.862   3.392  13.823  0.4956 -0.2112 -0.2777
10253TIP3    H252251   1.903   3.276  13.734  1.3449  0.3725 -0.6621
10254TIP3   OH252252   3.296   1.601   3.362 -0.5862 -0.4642  0.1605
10254TIP3    H152253   3.276   1.586   3.270  0.3725  0.9406 -0.2994
10254TIP3    H252254   3.219   1.647   3.396 -0.4641  0.0422 -0.2357
10255TIP3   OH252255   5.410   4.099  13.643 -0.0448  0.1607 -0.1083
10255TIP3    H152256   5.484   4.150  13.677  0.6358 -1.3865  0.8367
10255TIP3    H252257   5.446   4.012  13.628 -0.4008  0.5433 -4.4878
10256TIP3   OH252258   6.624   5.865  12.726 -0.2967  0.5116 -0.0934
10256TIP3    H152259   6.533   5.883  12.702 -0.6822 -0.4216  0.6192
10256TIP3    H252260   6.675   5.916  12.663 -1.3036  1.1505 -0.4272
10257TIP3   OH252261   5.717   6.157   0.562  0.5764  0.2438  0.2202
10257TIP3    H152262   5.795   6.132   0.611 -0.5544  0.4861  2.2569
10257TIP3    H252263   5.681   6.075   0.529  1.5651  0.1192 -0.5949
10258TIP3   OH252264   5.048   6.584  13.426 -0.0935 -0.1101  0.6054
10258TIP3    H152265   5.093   6.521  13.482  0.7252  1.0175  1.2634
10258TIP3    H252266   4.957   6.555  13.425  0.3053 -1.4256  0.6856
10259TIP3   OH252267   4.693   4.238   1.279 -0.3250  0.1382 -0.4430
10259TIP3    H152268   4.638   4.184   1.336 -1.4390  1.1760 -0.4939
10259TIP3    H252269   4.637   4.259   1.204  0.3546  0.6822 -0.8058
10260TIP3   OH252270   3.731   2.626   1.524 -0.4331  0.4394  0.8717
10260TIP3    H152271   3.686   2.696   1.571 -1.5276 -1.4338  2.7869
10260TIP3    H252272   3.759   2.565   1.592  4.2221  0.8725 -0.2656
10261TIP3   OH252273   4.558   3.582   2.227 -0.2443  0.5887  0.0386
10261TIP3    H152274   4.553   3.505   2.169  0.9354  0.9323 -0.5608
10261TIP3    H252275   4.636   3.566   2.280 -0.1205  1.2586  0.0646
10262TIP3   OH252276   0.509   4.314   3.710 -0.2885 -0.2798  0.0701
10262TIP3    H152277   0.453   4.245   3.746 -2.4099  0.6927 -1.1800
10262TIP3    H252278   0.528   4.371   3.784  1.1636 -1.9467  1.0331
10263TIP3   OH252279   0.489   1.433  12.035  0.5131 -0.1402 -0.3659
10263TIP3    H152280   0.503   1.431  12.129  0.5010 -0.1639 -0.3645
10263TIP3    H252281   0.416   1.494  12.022  0.4511 -0.2117 -0.3524
10264TIP3   OH252282   1.583   6.007   3.217 -0.0263  0.0661 -0.5873
10264TIP3    H152283   1.621   6.019   3.304 -1.3490 -2.2240  0.4181
10264TIP3    H252284   1.633   5.935   3.179 -0.2511  0.2485 -1.2370
10265TIP3   OH252285   1.176   6.117   5.053  0.2174 -0.5093  0.5550
10265TIP3    H152286   1.151   6.142   5.143 -1.0609  0.2479  0.0211
10265TIP3    H252287   1.257   6.165   5.037  0.0360 -0.0297  1.0322
10266TIP3   OH252288   3.495   6.031   2.365  0.4830  0.4209  0.1843
10266TIP3    H152289   3.495   5.972   2.441  0.7869  1.3624  0.9282
10266TIP3    H252290   3.418   6.006   2.315  0.2930 -0.2306  0.7850
10267TIP3   OH252291   2.164   2.281  12.297  0.1089  0.2453  0.3550
10267TIP3    H152292   2.110   2.206  12.321  0.4531  0.3246  1.4345
10267TIP3    H252293   2.236   2.244  12.247 -0.5716  0.0560 -0.4979
10268TIP3   OH252294   0.085   3.319  11.103 -0.1486 -0.0451  0.1307
10268TIP3    H152295   0.123   3.232  11.095  1.5352  0.3865  2.5808
10268TIP3    H252296   0.131   3.371  11.038  0.5648 -0.4483  0.3006
10269TIP3   OH252297   1.583   3.627   1.043  0.1341  0.2296 -0.3116
10269TIP3    H152298   1.591   3.696   1.109 -0.6726 -0.8463  0.9691
10269TIP3    H252299   1.494   3.639   1.007  1.4757  2.5554 -3.3375
10270TIP3   OH252300   5.407   2.250   3.402  0.1310  0.0269  0.1046
10270TIP3    H152301   5.498   2.278   3.397  0.3820 -0.2404  2.2029
10270TIP3    H252302   5.411   2.154   3.398 -0.1215  0.0393 -0.4829
10271TIP3   OH252303   3.969   3.932   4.352 -0.4586  0.3105  0.1788
10271TIP3    H152304   3.912   4.002   4.322 -2.9157 -2.0879 -1.2240
10271TIP3    H252305   4.034   3.922   4.283 -1.3455 -0.0738 -0.6278
10272TIP3   OH252306   2.043   1.850  12.411  0.0832 -0.0179  0.3772
10272TIP3    H152307   1.996   1.863  12.329 -0.2131 -1.2331  0.3296
10272TIP3    H252308   1.978   1.867  12.480 -0.8857 -2.8950  0.3127
10273TIP3   OH252309   4.197   6.084  11.524 -0.5528  0.1995  0.1151
10273TIP3    H152310   4.209   5.990  11.522  2.5191  0.4548  1.2757
10273TIP3    H252311   4.104   6.097  11.508 -1.1048 -3.0077  0.1549
10274TIP3   OH252312   5.752   5.667   3.644 -0.0378 -0.0794 -0.6337
10274TIP3    H152313   5.681   5.604   3.658 -0.9264  1.0474  0.0747
10274TIP3    H252314   5.831   5.614   3.651 -0.7834 -1.4081 -1.6317
10275TIP3   OH252315   0.844   6.781   0.256  0.0401  0.0723  0.3767
10275TIP3    H152316   0.938   6.784   0.272 -0.0477 -0.4791  1.0236
10275TIP3    H252317   0.833   6.817   0.168  0.8648  0.0249  0.2520
10276TIP3   OH252318   5.313   3.246   0.533 -0.6227  0.3824 -0.4159
10276TIP3    H152319   5.344   3.328   0.571  0.9542  0.0343 -0.9104
10276TIP3    H252320   5.378   3.224   0.466 -0.4561 -1.8105  0.4043
10277TIP3   OH252321   0.728   6.336   5.628  0.4231 -0.2119  0.7273
10277TIP3    H152322   0.759   6.426   5.616 -1.3356  0.4059  0.5557
10277TIP3    H252323   0.807   6.283   5.619  1.3197  1.2105 -0.3889
10278TIP3   OH252324   6.515   5.482  16.785 -0.7127 -0.2411 -0.7933
10278TIP3    H152325   6.577   5.421  16.744  0.8429  0.0679  0.9732
10278TIP3    H252326   6.470   5.429  16.851 -0.7000  0.0786 -0.5285
10279TIP3   OH252327   1.538   0.117  14.178 -0.2149 -0.3371 -0.0421
10279TIP3    H152328   1.540   0.208  14.149  1.8086 -0.4836 -0.4658
10279TIP3    H252329   1.466   0.078  14.129  0.3921  0.4649 -1.6320
10280TIP3   OH252330   4.445   5.207  14.338  0.2427  0.0307 -0.1280
10280TIP3    H152331   4.500   5.284  14.351 -0.6851  0.7609 -0.4541
10280TIP3    H252332   4.498   5.134  14.369  0.6885  0.9406  1.3499
10281TIP3   OH252333   4.604   2.896  12.503 -0.2565  0.3725 -0.2325
10281TIP3    H152334   4.692   2.869  12.530 -1.1693 -0.6902  1.9907
10281TIP3    H252335   4.555   2.900  12.585 -2.4108  0.4526 -1.4647
10282TIP3   OH252336   0.080   4.725   1.776  0.1962  0.7518 -0.0233
10282TIP3    H152337  -0.009   4.740   1.743 -0.3642 -0.0267  1.0349
10282TIP3    H252338   0.079   4.760   1.865  0.4943 -0.5049  0.5081
10283TIP3   OH252339   4.628   2.207   0.319  0.2976 -0.0277  0.1248
10283TIP3    H152340   4.539   2.195   0.353  0.0112 -0.0994 -0.6435
10283TIP3    H252341   4.684   2.191   0.395 -0.3662  0.6118  0.7648
10284TIP3   OH252342   4.384   0.656   5.266  0.2905  0.8999  0.0809
10284TIP3    H152343   4.348   0.588   5.210 -0.6460  0.8095  0.7670
10284TIP3    H252344   4.439   0.610   5.329  1.2915  0.9955 -0.6984
10285TIP3   OH252345   5.055   5.949   3.341 -0.0398 -0.1941 -0.3965
10285TIP3    H152346   4.992   5.996   3.396 -0.6175 -0.7391 -0.5833
10285TIP3    H252347   5.092   6.016   3.284 -0.5545  0.1107 -0.3776
10286TIP3   OH252348   2.548   3.580   4.215 -0.2520  0.2760 -0.6829
10286TIP3    H152349   2.611   3.582   4.143  0.4080  0.1420 -0.1148
10286TIP3    H252350   2.463   3.575   4.171  0.2133 -2.1454 -1.4938
10287TIP3   OH252351   4.400   6.818   5.545 -0.0108 -0.3653  0.0018
10287TIP3    H152352   4.419   6.911   5.556 -3.4647  0.2401  2.1925
10287TIP3    H252353   4.482   6.774   5.566  1.4155  2.1021 -0.0174
10288TIP3   OH252354   2.929   1.703   5.172 -0.0603  0.4866 -0.4134
10288TIP3    H152355   2.968   1.618   5.149 -1.3177 -0.1491 -0.2692
10288TIP3    H252356   2.900   1.740   5.089 -0.1314  0.4638 -0.3987
10289TIP3   OH252357   3.441   6.525   0.921 -0.3216  0.4733  0.4553
10289TIP3    H152358   3.487   6.450   0.960 -2.5412 -1.2790 -0.0938
10289TIP3    H252359   3.510   6.576   0.880  1.3255 -1.1028  1.1125
10290TIP3   OH252360   6.826   2.278   3.351  0.1704 -0.0237 -0.0832
10290TIP3    H152361   6.764   2.237   3.290 -0.2357  1.3117 -0.6061
10290TIP3    H252362   6.801   2.370   3.351  1.4120  0.3248  0.6282
10291TIP3   OH252363   3.447   2.892   1.087  0.3255 -0.3724  0.0274
10291TIP3    H152364   3.432   2.824   1.021 -0.3241  1.0413 -1.3542
10291TIP3    H252365   3.460   2.843   1.168 -1.1649 -2.1296 -0.6847
10292TIP3   OH252366   1.911   2.616  15.726  0.4551 -0.4045 -0.6442
10292TIP3    H152367   1.988   2.569  15.758  1.6779  1.9161  0.0371
10292TIP3    H252368   1.910   2.600  15.632  2.1680 -0.0044 -0.7706
10293TIP3   OH252369   2.704   5.062   5.562  0.6529  0.6711 -0.0105
10293TIP3    H152370   2.655   5.142   5.544  0.7352  0.1917 -2.8328
10293TIP3    H252371   2.648   5.013   5.623 -1.0625  1.3895 -0.9149
10294TIP3   OH252372   2.596   4.670  14.695 -0.9944 -0.5620  0.3944
10294TIP3    H152373   2.562   4.719  14.770  0.0780 -0.5985  0.9184
10294TIP3    H252374   2.684   4.703  14.682 -1.2076 -0.4553 -0.9617
10295TIP3   OH252375   4.348   1.840  15.385  0.1151  0.0496  0.5373
10295TIP3    H152376   4.382   1.753  15.405  1.2685  0.8487  2.2725
10295TIP3    H252377   4.396   1.899  15.443 -0.5302  1.8816 -0.6955
10296TIP3   OH252378   1.704   0.507   4.092 -0.0259 -0.2717 -0.3810
10296TIP3    H152379   1.739   0.483   4.006  1.9822  2.0555 -0.3192
10296TIP3    H252380   1.615   0.538   4.074 -0.4007 -1.7411 -1.2652
10297TIP3   OH252381   2.038   6.832   4.445  0.0823 -0.1585 -0.4072
10297TIP3    H152382   2.067   6.919   4.471  0.6479  0.2641 -2.2611
10297TIP3    H252383   2.002   6.844   4.357  1.9116 -2.0545 -1.5190
10298TIP3   OH252384   4.971   2.916   4.666 -0.0652  0.9065 -0.3216
10298TIP3    H152385   5.006   2.943   4.581 -0.3164  0.8494 -0.4416
10298TIP3    H252386   4.897   2.860   4.645  0.3258  0.2840 -0.0739
10299TIP3   OH252387   2.886   6.633   4.272  0.6303  0.2144 -0.5408
10299TIP3    H152388   2.838   6.567   4.322 -1.0380  0.4930 -1.6801
10299TIP3    H252389   2.838   6.640   4.189  2.4741  0.7747 -1.6169
10300TIP3   OH252390   6.406   6.437   3.454 -0.1371 -0.0827  0.7871
10300TIP3    H152391   6.374   6.375   3.389  0.5020 -0.9727  1.3003
10300TIP3    H252392   6.328   6.467   3.499 -0.3060 -2.3592  2.1461
10301TIP3   OH252393   4.596   4.310   4.377  0.0260 -0.8473 -0.2908
10301TIP3    H152394   4.647   4.376   4.331 -1.2345  0.2170 -0.2239
10301TIP3    H252395   4.538   4.274   4.309  0.5888 -1.7878 -0.2911
10302TIP3   OH252396   1.675   0.930   6.737 -1.0767  0.2037  0.0190
10302TIP3    H152397   1.633   1.017   6.738 -0.4771  0.5029 -0.3015
10302TIP3    H252398   1.769   0.949   6.737 -0.9419 -0.4502 -0.1597
10303TIP3   OH252399   3.126   2.310  11.642  0.2216  0.6788 -0.2371
10303TIP3    H152400   3.125   2.371  11.716  0.7989  1.5000 -0.8907
10303TIP3    H252401   3.087   2.359  11.570 -0.8450 -0.2981 -0.3548
10304TIP3   OH252402   5.270   1.721   5.051  0.3382 -0.3639  0.3812
10304TIP3    H152403   5.351   1.773   5.056  1.1177 -1.3307 -1.2783
10304TIP3    H252404   5.259   1.685   5.139  1.5372  0.0758  0.7309
10305TIP3   OH252405   1.514   3.576  16.171 -0.1787 -0.8171 -0.1293
10305TIP3    H152406   1.489   3.545  16.084  1.9251 -1.6795 -0.4704
10305TIP3    H252407   1.435   3.620  16.203 -0.3334  1.6917 -3.4053
10306TIP3   OH252408   3.406   6.460   2.246  0.5113  0.2776 -0.4266
10306TIP3    H152409   3.325   6.505   2.219 -0.0572 -1.0797 -1.0785
10306TIP3    H252410   3.445   6.430   2.163  0.9812 -0.2346 -0.0233
10307TIP3   OH252411   3.655   6.425   1.846 -0.1796 -0.1268 -0.1136
10307TIP3    H152412   3.616   6.360   1.905 -1.1574 -0.1926 -0.8006
10307TIP3    H252413   3.652   6.507   1.896 -0.9360 -0.1936 -0.0370
10308TIP3   OH252414   6.151   6.241   5.161  0.3002  0.4449  0.2401
10308TIP3    H152415   6.133   6.225   5.254  0.7337 -0.7718  0.1377
10308TIP3    H252416   6.186   6.157   5.129 -4.0235 -0.7579 -2.1183
10309TIP3   OH252417   5.148   5.281   3.531  0.1433  0.2965 -0.0560
10309TIP3    H152418   5.064   5.319   3.508  0.3584  0.8394  0.0474
10309TIP3    H252419   5.212   5.349   3.510  0.5239  0.0200  0.1920
10310TIP3   OH252420   2.307   0.459   2.895 -0.2384 -0.0306  0.0581
10310TIP3    H152421   2.274   0.446   2.984 -1.3559  0.8670 -0.2009
10310TIP3    H252422   2.320   0.370   2.861 -2.7979 -0.4973  0.0571
10311TIP3   OH252423   6.042   3.559   3.454  0.0948  0.3423  0.1298
10311TIP3    H152424   6.011   3.489   3.397  1.2996  0.1227 -0.2967
10311TIP3    H252425   6.100   3.515   3.516  1.4048  1.0258 -0.5626
10312TIP3   OH252426   0.053   5.990  12.981 -0.1845 -0.0597  0.2305
10312TIP3    H152427   0.123   6.042  13.022  1.6214 -3.3691  1.8076
10312TIP3    H252428   0.100   5.922  12.932 -2.3683 -0.6340 -1.1925
10313TIP3   OH252429   1.945   2.151  15.883  0.0156  0.0595 -0.1887
10313TIP3    H152430   1.964   2.206  15.959 -0.3863  1.3415 -0.9657
10313TIP3    H252431   1.877   2.091  15.912  0.3826  0.0574  0.6661
10314TIP3   OH252432   0.632   5.472   1.369 -0.3899  0.0995  0.5842
10314TIP3    H152433   0.712   5.465   1.421 -1.2554 -0.9620  1.8274
10314TIP3    H252434   0.663   5.487   1.280  1.2050 -0.5942  0.9890
10315TIP3   OH252435   4.432   5.160   4.190  0.3066 -0.5739  0.1378
10315TIP3    H152436   4.521   5.145   4.160 -0.6529 -1.7939 -2.3331
10315TIP3    H252437   4.386   5.196   4.114 -1.2875  0.2155  1.4000
10316TIP3   OH252438   1.790   5.631  12.207  0.5260 -0.0029  0.2794
10316TIP3    H152439   1.749   5.701  12.157 -0.3407 -0.1795  0.7311
10316TIP3    H252440   1.795   5.665  12.296  0.8668 -0.1965  0.3350
10317TIP3   OH252441   5.620   2.386   3.720  0.3210  0.4716 -0.1086
10317TIP3    H152442   5.560   2.332   3.771 -0.0070 -0.4995 -1.4768
10317TIP3    H252443   5.687   2.412   3.783  0.1567 -1.0217  0.7370
10318TIP3   OH252444   6.047   3.705  11.768 -0.0394 -0.5446 -0.0628
10318TIP3    H152445   5.996   3.786  11.761 -0.3296 -0.8061 -1.3730
10318TIP3    H252446   6.137   3.734  11.778 -0.1988 -0.0519 -0.0290
10319TIP3   OH252447   1.366   3.162   2.667  0.2650  0.2787 -0.6678
10319TIP3    H152448   1.450   3.164   2.620  0.2203  1.5705 -0.7083
10319TIP3    H252449   1.322   3.243   2.641 -0.3073  0.3960  0.6214
10320TIP3   OH252450   2.476   2.178   4.601 -0.0652  0.5392  0.4955
10320TIP3    H152451   2.477   2.122   4.523  0.9012  0.5652  0.4745
10320TIP3    H252452   2.447   2.120   4.671 -0.2875  0.3348  0.2353
10321TIP3   OH252453   5.400   1.961  11.957 -0.3985  1.0278  0.5990
10321TIP3    H152454   5.412   2.055  11.966  4.1312  0.7578 -0.3742
10321TIP3    H252455   5.380   1.948  11.864  2.0124  0.9944  0.0100
10322TIP3   OH252456   2.808   3.255   0.344 -0.9902  0.0742 -0.3928
10322TIP3    H152457   2.827   3.179   0.399  1.4517  0.8582 -0.0292
10322TIP3    H252458   2.874   3.252   0.275 -2.2082  0.7180 -1.6611
10323TIP3   OH252459   5.767   0.172  14.771 -0.0470  0.3417  0.3948
10323TIP3    H152460   5.813   0.199  14.850  1.9979  2.6173 -1.3982
10323TIP3    H252461   5.759   0.253  14.720 -1.6919 -0.9391 -1.5385
10324TIP3   OH252462   5.706   3.211   1.747 -0.0371 -1.1293  0.5101
10324TIP3    H152463   5.622   3.183   1.783  0.5521 -2.0207  1.2283
10324TIP3    H252464   5.749   3.255   1.820 -0.3291  0.3550 -0.1800
10325TIP3   OH252465   6.783   3.935  17.109  0.0069  0.5664  0.2444
10325TIP3    H152466   6.711   3.915  17.170 -0.6237 -1.5659 -1.0703
10325TIP3    H252467   6.739   3.963  17.029  0.6125 -0.4206 -0.4607
10326TIP3   OH252468   0.769   4.321  16.955 -0.4849 -0.6925 -0.0914
10326TIP3    H152469   0.825   4.355  16.885 -0.6821 -0.8937 -0.3466
10326TIP3    H252470   0.830   4.274  17.012 -0.2854 -0.3219  0.0081
10327TIP3   OH252471   2.154   1.281  16.818 -0.1115 -0.1435 -0.1487
10327TIP3    H152472   2.139   1.309  16.908 -0.7983 -1.4250  0.1569
10327TIP3    H252473   2.071   1.296  16.773 -0.5352 -1.6721  0.0460
10328TIP3   OH252474   1.348   2.362   1.925  0.1878 -0.3962  0.7084
10328TIP3    H152475   1.320   2.286   1.873  1.2900 -0.5294  0.2807
10328TIP3    H252476   1.357   2.432   1.861 -1.5945  0.3543  1.2078
10329TIP3   OH252477   2.283   3.107  16.104 -0.2998 -0.4800 -0.1288
10329TIP3    H152478   2.357   3.132  16.049 -0.9108  0.8642 -0.3777
10329TIP3    H252479   2.257   3.188  16.148 -0.9818 -1.1479  0.7357
10330TIP3   OH252480   5.319   6.718   5.445  0.0107 -0.2583 -0.6269
10330TIP3    H152481   5.301   6.780   5.374 -1.4984 -3.4212 -3.2477
10330TIP3    H252482   5.237   6.713   5.493  0.2154 -0.0665 -0.2539
10331TIP3   OH252483   1.965   4.354   4.725 -0.5513  0.4374 -0.1803
10331TIP3    H152484   1.899   4.304   4.676 -0.3200 -0.0302 -0.0243
10331TIP3    H252485   1.938   4.347   4.816 -0.2994  0.2582 -0.1171
10332TIP3   OH252486   3.489   5.850  12.194 -0.2841 -0.1218  0.3213
10332TIP3    H152487   3.435   5.771  12.201 -1.1177  0.1639 -2.1790
10332TIP3    H252488   3.569   5.820  12.152 -0.3909  0.2635 -0.1589
10333TIP3   OH252489   5.280   6.793  12.427  0.1072  0.0806 -0.1034
10333TIP3    H152490   5.205   6.846  12.400 -0.5194  0.1587  1.6448
10333TIP3    H252491   5.285   6.805  12.522  1.7692 -0.6761 -0.0521
10334TIP3   OH252492   6.386   2.185   1.367  0.0485  0.0759 -0.5043
10334TIP3    H152493   6.456   2.120   1.374 -0.1310 -0.2300 -1.4500
10334TIP3    H252494   6.344   2.166   1.283 -0.9726  0.4558 -0.0922
10335TIP3   OH252495   3.321   0.362  16.860 -0.0545  0.5888  0.3393
10335TIP3    H152496   3.357   0.277  16.836  0.0894  0.8033 -0.2243
10335TIP3    H252497   3.236   0.342  16.900 -1.8913  0.3516 -3.3120
10336TIP3   OH252498   5.786   2.451  15.814 -0.4437 -0.0128  0.7271
10336TIP3    H152499   5.852   2.381  15.808  0.2198  0.4566  2.0457
10336TIP3    H252500   5.837   2.532  15.809 -0.9177  0.3541  1.6682
10337TIP3   OH252501   2.793   2.679  11.171  0.2249  0.0182  0.0254
10337TIP3    H152502   2.718   2.620  11.170  0.2871 -0.0546 -0.8688
10337TIP3    H252503   2.759   2.762  11.137  0.6250 -0.1130 -0.7088
10338TIP3   OH252504   0.205   5.773   4.445 -0.0174  0.6851 -0.1136
10338TIP3    H152505   0.109   5.773   4.441 -0.0516  0.9154  0.6328
10338TIP3    H252506   0.230   5.860   4.415 -0.0704  0.8519  0.3269
10339TIP3   OH252507   1.175   5.572  11.910 -0.5982  0.4227 -0.7066
10339TIP3    H152508   1.248   5.582  11.849  0.2687  0.4265  0.3042
10339TIP3    H252509   1.120   5.649  11.895  0.4662  1.2814 -0.3690
10340TIP3   OH252510   1.301   4.119  11.798 -0.9324  0.0240  0.1379
10340TIP3    H152511   1.249   4.045  11.767 -1.2400  0.7721 -1.2206
10340TIP3    H252512   1.258   4.196  11.762  1.5990  0.6490 -1.9064
10341TIP3   OH252513   1.444   3.765  13.783 -0.5003 -0.5239  0.2732
10341TIP3    H152514   1.364   3.715  13.798 -1.6483 -0.0179 -3.1341
10341TIP3    H252515   1.445   3.831  13.852 -1.7010 -2.0179  1.7850
10342TIP3   OH252516   1.583   3.070   4.115 -0.2271 -0.3509 -0.4068
10342TIP3    H152517   1.520   3.001   4.137  0.1047 -0.4338  0.2880
10342TIP3    H252518   1.538   3.151   4.137 -0.5071 -0.3506 -0.9538
10343TIP3   OH252519   2.782   4.703  17.162 -0.5003  0.4230  0.1413
10343TIP3    H152520   2.704   4.727  17.210 -0.1235  4.4870 -0.9386
10343TIP3    H252521   2.751   4.684  17.073 -0.5881 -1.9759  0.6044
10344TIP3   OH252522   4.922   0.774  11.939 -0.3131 -0.4808  0.2377
10344TIP3    H152523   4.884   0.848  11.985 -2.3488 -0.0167 -1.9741
10344TIP3    H252524   4.991   0.812  11.885 -2.0204  0.1349 -1.6783
10345TIP3   OH252525   4.328   0.280  11.477 -0.6640 -0.7559 -0.1336
10345TIP3    H152526   4.375   0.196  11.471 -1.1991 -1.0861  0.2365
10345TIP3    H252527   4.390   0.344  11.441  0.0173 -1.2093  0.1905
10346TIP3   OH252528   3.320   2.005  15.684 -0.3730  0.2224  0.2475
10346TIP3    H152529   3.276   1.945  15.746 -0.2285  0.7537  0.8722
10346TIP3    H252530   3.399   2.031  15.729 -0.0454  0.2813 -0.3551
10347TIP3   OH252531   4.809   5.500  15.644 -0.0395  0.4622  0.1380
10347TIP3    H152532   4.718   5.519  15.670  0.6862  1.8607  1.8948
10347TIP3    H252533   4.861   5.562  15.695  2.0640 -1.5847  0.6402
10348TIP3   OH252534   1.491   4.850   3.741 -0.7854 -0.7566 -0.0746
10348TIP3    H152535   1.457   4.921   3.687 -2.0829 -0.3732  1.1981
10348TIP3    H252536   1.565   4.815   3.690 -0.9052  0.6625 -1.2998
10349TIP3   OH252537   3.655   4.891   5.044 -0.0140  0.4410  0.0144
10349TIP3    H152538   3.689   4.981   5.037 -0.5257  0.9850  3.1228
10349TIP3    H252539   3.654   4.873   5.137 -0.4129 -2.6808 -0.4899
10350TIP3   OH252540   4.406   5.889   2.276  0.3730  0.1628 -0.2608
10350TIP3    H152541   4.475   5.905   2.212  0.3261  0.7183 -0.1794
10350TIP3    H252542   4.441   5.821   2.333  0.1071 -0.9155 -1.3492
10351TIP3   OH252543   2.653   4.341  17.066  0.3346 -0.0690 -0.6677
10351TIP3    H152544   2.582   4.392  17.105 -1.0116 -1.2210 -1.5500
10351TIP3    H252545   2.642   4.352  16.972 -0.7503 -2.9179 -0.9488
10352TIP3   OH252546   3.496   4.331   6.487 -0.0275 -0.3482  0.3656
10352TIP3    H152547   3.466   4.242   6.468  0.8659 -0.4644 -0.5827
10352TIP3    H252548   3.536   4.325   6.574 -0.4895 -0.7371  0.5544
10353TIP3   OH252549   5.325   5.712  11.216  0.0175 -0.0875  0.1478
10353TIP3    H152550   5.286   5.732  11.131 -2.0553 -0.8793  0.8607
10353TIP3    H252551   5.338   5.618  11.216  0.8513  0.0124  0.3978
10354TIP3   OH252552   4.691   4.485  10.655  0.4538 -0.2596 -0.2837
10354TIP3    H152553   4.744   4.559  10.682  0.6920 -0.1121 -1.1036
10354TIP3    H252554   4.638   4.518  10.582  0.0435 -0.7034 -0.1947
10355TIP3   OH252555   4.752   2.480  12.458 -0.1348  0.2497  0.6161
10355TIP3    H152556   4.699   2.549  12.418  0.7780  1.5187  1.5203
10355TIP3    H252557   4.752   2.501  12.552  0.1374 -1.0085  0.9172
10356TIP3   OH252558   1.718   5.150   2.832  1.0546 -0.4570 -0.5800
10356TIP3    H152559   1.672   5.065   2.835  0.8871 -0.3930 -1.2999
10356TIP3    H252560   1.794   5.137   2.889  0.1087 -0.5320  0.7186
10357TIP3   OH252561   3.852   4.102  15.100  0.5961 -0.2617 -0.0527
10357TIP3    H152562   3.849   4.012  15.133 -2.4102 -0.5595 -0.8777
10357TIP3    H252563   3.765   4.137  15.117  0.1129  0.8905 -3.9054
10358TIP3   OH252564   1.093   4.889   4.636  0.5152  0.3279 -0.6452
10358TIP3    H152565   1.175   4.869   4.681  0.6145  0.5437 -0.7257
10358TIP3    H252566   1.032   4.822   4.666  0.1983  1.2380  0.8573
10359TIP3   OH252567   2.184   3.458  15.423  0.5416 -1.5385 -0.6282
10359TIP3    H152568   2.231   3.374  15.426  0.6589 -1.4461  0.8266
10359TIP3    H252569   2.200   3.491  15.334  2.3490 -2.0091 -0.5182
10360TIP3   OH252570   1.784   3.910  10.405 -0.2516  0.4062 -0.6606
10360TIP3    H152571   1.795   3.824  10.445  1.3888  0.5922 -0.6227
10360TIP3    H252572   1.692   3.933  10.420  0.2384  0.4974  3.0568
10361TIP3   OH252573   6.754   0.567   0.732 -0.7002  0.3836  0.5702
10361TIP3    H152574   6.831   0.620   0.714  0.5483 -1.9327 -1.6247
10361TIP3    H252575   6.694   0.586   0.660 -1.0835  0.3184  0.8733
10362TIP3   OH252576   1.343   6.499  11.552 -0.1778 -0.7578  0.1764
10362TIP3    H152577   1.277   6.527  11.616 -0.2279 -1.2059  0.3226
10362TIP3    H252578   1.392   6.579  11.532 -0.2588 -0.5830  0.6575
10363TIP3   OH252579   1.820   5.320   2.642 -0.1102 -0.3194 -0.2362
10363TIP3    H152580   1.776   5.262   2.705  0.5745 -0.4226  0.1647
10363TIP3    H252581   1.855   5.390   2.696 -1.7022  0.9772 -0.8214
10364TIP3   OH252582   5.966   0.630   5.315 -0.1957 -0.1460 -0.5036
10364TIP3    H152583   6.012   0.705   5.279  0.6247 -0.2517  0.2708
10364TIP3    H252584   6.017   0.554   5.287  2.8475 -0.0927  3.8588
10365TIP3   OH252585   4.999   3.861  15.456 -0.1192 -0.6851 -0.0470
10365TIP3    H152586   5.052   3.912  15.517 -1.8104 -0.8089  1.6152
10365TIP3    H252587   4.945   3.926  15.410 -0.7403 -0.7974  0.5174
10366TIP3   OH252588   2.143   3.451   6.351 -0.1147 -0.1751  0.2105
10366TIP3    H152589   2.200   3.450   6.427 -0.5490 -0.4494  0.5384
10366TIP3    H252590   2.133   3.359   6.327  2.3234 -0.0003 -1.9485
10367TIP3   OH252591   4.008   5.252   2.021  0.3534  0.5131  0.0124
10367TIP3    H152592   3.962   5.329   1.987 -0.5305  0.1253  0.3039
10367TIP3    H252593   3.963   5.178   1.981  2.4478  0.1375 -1.8751
10368TIP3   OH252594   3.970   5.094   3.569  0.2496  0.4368 -0.1300
10368TIP3    H152595   3.995   5.149   3.495 -2.3846  0.6568 -0.9750
10368TIP3    H252596   3.932   5.154   3.633 -2.5608 -0.2292 -1.0182
10369TIP3   OH252597   5.326   3.270  11.046  0.0684 -0.2416 -0.2711
10369TIP3    H152598   5.364   3.184  11.025  0.6620  0.5709 -2.8579
10369TIP3    H252599   5.400   3.331  11.040 -0.4121  0.5208  1.1999
10370TIP3   OH252600   3.902   0.339  14.427 -0.3122 -0.0480  0.3330
10370TIP3    H152601   3.931   0.430  14.420 -0.1283 -0.1226  0.0746
10370TIP3    H252602   3.833   0.340  14.493 -0.7532  0.3847 -0.1321
10371TIP3   OH252603   3.793   5.763   5.433  0.4473 -0.4904  0.4215
10371TIP3    H152604   3.803   5.835   5.495 -0.3725  1.5894 -1.7150
10371TIP3    H252605   3.700   5.739   5.440  0.3476 -0.2322 -0.0227
10372TIP3   OH252606   5.976   0.929  10.663  0.5860  0.3103  0.2470
10372TIP3    H152607   5.899   0.969  10.703 -1.4661  0.5624 -3.4545
10372TIP3    H252608   6.037   1.002  10.649  0.7058  0.4604  1.4844
10373TIP3   OH252609   2.440   5.811  13.668 -0.4060 -0.1371 -0.0282
10373TIP3    H152610   2.358   5.847  13.637  0.0638 -0.6022 -1.9165
10373TIP3    H252611   2.424   5.717  13.677 -0.7242  0.0612  1.8697
10374TIP3   OH252612   2.041   4.073   3.743  0.0161  0.1071  0.0180
10374TIP3    H152613   1.971   4.103   3.684  0.5536 -0.8323 -1.1214
10374TIP3    H252614   2.122   4.088   3.694  0.4463 -1.0536  0.3577
10375TIP3   OH252615   3.096   0.178  11.395 -0.3344  0.2992  0.0345
10375TIP3    H152616   3.124   0.212  11.311  2.8893  2.8404  1.8945
10375TIP3    H252617   3.055   0.252  11.439  1.5464  0.2862  2.0304
10376TIP3   OH252618   0.140   1.008  12.183 -0.1412 -0.3268 -0.3814
10376TIP3    H152619   0.091   0.981  12.261 -0.2601 -0.1002 -0.3774
10376TIP3    H252620   0.088   0.976  12.110 -0.2305 -0.1981 -0.3742
10377TIP3   OH252621   0.952   1.150  11.958  0.1690  0.0866 -0.0524
10377TIP3    H152622   0.951   1.067  12.006 -0.4875  0.6333  0.9063
10377TIP3    H252623   0.976   1.215  12.024  0.5323  0.6889 -0.7630
10378TIP3   OH252624   5.776   5.113   5.227  0.4774 -0.3102 -0.4699
10378TIP3    H152625   5.752   5.064   5.148 -0.1951 -1.1251  0.2269
10378TIP3    H252626   5.778   5.047   5.296 -0.6272  0.6674  0.5298
10379TIP3   OH252627   0.560   2.275  12.652  0.1848 -0.0101 -0.2102
10379TIP3    H152628   0.652   2.301  12.661  0.8768 -2.3667  0.0833
10379TIP3    H252629   0.562   2.201  12.591 -1.2845 -1.3234  1.2626
10380TIP3   OH252630   2.235   6.447  12.898  0.3625 -0.1008 -0.0091
10380TIP3    H152631   2.255   6.502  12.822  2.1561 -1.5479 -0.6458
10380TIP3    H252632   2.172   6.383  12.865 -0.2981  0.4084  0.2427
10381TIP3   OH252633   1.823   6.276  15.235  0.3011  0.5119  0.2520
10381TIP3    H152634   1.743   6.328  15.233 -0.6648 -0.9071  0.2224
10381TIP3    H252635   1.804   6.207  15.300  1.1140 -0.4183 -0.4780
10382TIP3   OH252636   0.760   3.795  16.779 -0.3486 -0.2420 -0.3445
10382TIP3    H152637   0.790   3.791  16.689  0.2494 -1.0738 -0.1288
10382TIP3    H252638   0.832   3.835  16.827 -0.9145  0.7755 -0.3229
10383TIP3   OH252639   3.027   5.777   3.490  0.0395 -0.0504 -0.5813
10383TIP3    H152640   3.012   5.828   3.410 -0.4086 -2.7467 -2.3369
10383TIP3    H252641   3.111   5.734   3.476  0.7798  0.7377  1.1917
10384TIP3   OH252642   0.473   2.582  16.745  0.2203 -0.2682 -0.1494
10384TIP3    H152643   0.511   2.609  16.662 -0.4172 -1.6705 -0.9424
10384TIP3    H252644   0.470   2.486  16.740 -0.8408 -0.3286  1.0273
10385TIP3   OH252645   5.372   6.612  14.719 -0.0116  0.0298  0.0343
10385TIP3    H152646   5.467   6.619  14.727  0.2862 -2.9528  0.3396
10385TIP3    H252647   5.342   6.587  14.806 -0.4703 -3.0427 -0.8742
10386TIP3   OH252648   5.807   5.416  13.429 -0.3413 -0.0484  0.1161
10386TIP3    H152649   5.829   5.341  13.374  0.0812 -0.5493  0.9517
10386TIP3    H252650   5.733   5.458  13.385  0.7256  0.2601 -1.4527
10387TIP3   OH252651   4.725   1.196   5.257 -0.4122 -0.4515 -0.1302
10387TIP3    H152652   4.635   1.203   5.291 -1.0586  1.5160 -1.9764
10387TIP3    H252653   4.714   1.160   5.169  0.2490  2.0907 -1.3534
10388TIP3   OH252654   2.421   5.746   6.690  0.4954 -0.4132 -0.0942
10388TIP3    H152655   2.479   5.737   6.614 -0.5907 -0.2541 -0.9604
10388TIP3    H252656   2.346   5.796   6.657 -0.6498 -1.5345  0.7223
10389TIP3   OH252657   6.747   3.415  14.591 -0.3113  0.8099 -0.4325
10389TIP3    H152658   6.685   3.426  14.662 -0.6843  0.0901 -0.6479
10389TIP3    H252659   6.819   3.475  14.613  0.4084 -0.6388  1.4582
10390TIP3   OH252660   4.455   2.306   4.737 -0.2471 -0.7826 -0.2802
10390TIP3    H152661   4.370   2.262   4.732 -0.9763  0.6991 -1.3195
10390TIP3    H252662   4.446   2.383   4.682  0.5083  1.5103  2.5736
10391TIP3   OH252663   5.575   1.744  13.465 -0.3380 -0.5899  0.0928
10391TIP3    H152664   5.664   1.747  13.431 -0.5397 -2.2222 -0.6513
10391TIP3    H252665   5.527   1.807  13.411  0.6301  1.4783  1.5093
10392TIP3   OH252666   3.768   2.034  12.082 -0.2527 -0.0494 -0.1143
10392TIP3    H152667   3.688   2.076  12.112 -0.1493 -0.5876  0.9483
10392TIP3    H252668   3.828   2.107  12.064 -0.1596  0.2933  1.4821
10393TIP3   OH252669   6.140   0.296   2.660 -0.6887  0.4058  0.5058
10393TIP3    H152670   6.101   0.374   2.620 -1.0708 -0.0744 -0.0822
10393TIP3    H252671   6.065   0.241   2.682 -0.4315  0.2952  1.1228
10394TIP3   OH252672   6.545   5.039   5.575  0.2534  0.3039 -0.4841
10394TIP3    H152673   6.612   4.973   5.587 -1.2391 -1.1521  0.1261
10394TIP3    H252674   6.525   5.036   5.481  1.2518  1.0041 -0.7375
10395TIP3   OH252675   3.723   0.199   0.578 -0.6287  0.0263  0.4762
10395TIP3    H152676   3.711   0.294   0.581 -2.5884 -0.1304 -0.5921
10395TIP3    H252677   3.677   0.166   0.655  0.4491 -0.0541  1.1049
10396TIP3   OH252678   4.792   1.018  12.069  0.2018  0.0697  0.1814
10396TIP3    H152679   4.710   1.066  12.056 -0.2668 -0.2618  1.7041
10396TIP3    H252680   4.857   1.086  12.085 -0.0033  0.2925  0.0713
10397TIP3   OH252681   0.589   1.026  16.579 -0.0647 -0.6908  0.1237
10397TIP3    H152682   0.605   1.087  16.651  1.3013  0.6323 -1.2314
10397TIP3    H252683   0.676   1.003  16.546 -0.6149  0.8340 -2.7481
10398TIP3   OH252684   0.957   0.889  15.753 -0.1920 -0.3647  0.1870
10398TIP3    H152685   1.016   0.956  15.786 -1.1579 -0.4777  2.3181
10398TIP3    H252686   0.957   0.901  15.658  1.8369  0.7760  0.2769
10399TIP3   OH252687   0.851   5.867  16.763 -0.3636  0.1501  0.3551
10399TIP3    H152688   0.895   5.784  16.745  0.2150  0.6204 -0.5275
10399TIP3    H252689   0.763   5.843  16.791 -0.5288 -0.7529 -0.8398
10400TIP3   OH252690   3.128   5.252  11.521 -0.3320 -0.6098 -0.1011
10400TIP3    H152691   3.162   5.189  11.457 -0.2034 -0.5390 -0.1028
10400TIP3    H252692   3.163   5.222  11.605 -0.0871 -0.4138 -0.1309
10401TIP3   OH252693   1.255   3.086   1.917  0.1094 -0.5297 -0.0728
10401TIP3    H152694   1.167   3.049   1.927 -0.8068  0.7473 -2.6393
10401TIP3    H252695   1.302   3.057   1.995 -2.7463 -0.7321  1.7055
10402TIP3   OH252696   5.311   1.713   3.567 -0.4995 -0.1411 -0.5400
10402TIP3    H152697   5.367   1.683   3.495 -1.4625  1.1038 -1.8752
10402TIP3    H252698   5.344   1.667   3.644  2.4756  0.6362 -1.2152
10403TIP3   OH252699   3.265   0.234  14.466  0.3260 -0.1009  0.2906
10403TIP3    H152700   3.196   0.232  14.533 -0.1637 -0.4279 -0.2147
10403TIP3    H252701   3.294   0.143  14.458 -0.0495 -0.1737 -0.3673
10404TIP3   OH252702   0.698   6.489   3.422 -1.0957 -0.7889  0.1467
10404TIP3    H152703   0.761   6.433   3.378 -3.2803 -1.1601 -2.8569
10404TIP3    H252704   0.696   6.457   3.513  2.1954 -1.3349  0.1436
10405TIP3   OH252705   0.902   5.274   0.688  0.1339 -0.3333  0.1488
10405TIP3    H152706   0.980   5.284   0.633  1.9558  0.4272  2.6886
10405TIP3    H252707   0.841   5.340   0.654  1.7380  1.0889 -0.1389
10406TIP3   OH252708   2.746   6.774  11.393 -0.4446  0.5010  0.2108
10406TIP3    H152709   2.690   6.757  11.317  0.0589  0.1588 -0.0853
10406TIP3    H252710   2.717   6.860  11.425  0.7301  1.6464 -1.6134
10407TIP3   OH252711   5.087   1.930  11.850  0.1035  0.1185  0.4861
10407TIP3    H152712   5.155   1.980  11.895  0.6248 -0.8163  0.7700
10407TIP3    H252713   5.005   1.974  11.874  0.6199  1.6264 -0.3409
10408TIP3   OH252714   0.403   2.290   2.354 -1.0312  0.3453  0.2048
10408TIP3    H152715   0.409   2.211   2.300  0.4005  0.7907 -0.3442
10408TIP3    H252716   0.350   2.264   2.429 -0.4051 -1.2180  0.1430
10409TIP3   OH252717   0.000   4.457  11.573 -0.0056  0.1123 -0.0919
10409TIP3    H152718   0.076   4.421  11.617  0.7563  1.0122 -0.6168
10409TIP3    H252719  -0.049   4.502  11.642 -1.3961 -2.4842  0.7293
10410TIP3   OH252720   6.432   4.724  13.476  0.3363 -0.1220 -0.0154
10410TIP3    H152721   6.340   4.751  13.484  0.2000 -0.2906 -0.9452
10410TIP3    H252722   6.476   4.769  13.548 -0.2195  1.0929 -0.4210
10411TIP3   OH252723   5.268   6.102   2.815 -0.4058  0.1759  0.0581
10411TIP3    H152724   5.300   6.023   2.859 -0.3558 -0.1228 -0.5127
10411TIP3    H252725   5.320   6.173   2.853 -1.4452  0.1355  1.6375
10412TIP3   OH252726   3.854   0.440   5.280  0.4608  0.4839 -0.8793
10412TIP3    H152727   3.920   0.379   5.311  0.8313  0.9473 -0.7496
10412TIP3    H252728   3.821   0.483   5.359 -1.1672 -0.8932 -0.7583
10413TIP3   OH252729   4.639   2.114   6.033 -0.3071  0.1072  0.5167
10413TIP3    H152730   4.626   2.053   5.961  0.9473 -0.6026  0.8454
10413TIP3    H252731   4.697   2.067   6.094 -1.2392  0.7233  1.9335
10414TIP3   OH252732   2.173   6.152   3.093 -0.2314  0.0955 -0.6456
10414TIP3    H152733   2.173   6.121   3.002 -0.2655 -0.5175 -0.4392
10414TIP3    H252734   2.092   6.117   3.130 -0.6464  1.0621 -0.6118
10415TIP3   OH252735   0.146   3.714   4.823 -0.0302 -0.2714 -0.1340
10415TIP3    H152736   0.182   3.766   4.751  2.8108 -1.7994  0.0671
10415TIP3    H252737   0.092   3.648   4.780 -1.6098  1.2099 -0.5381
10416TIP3   OH252738   5.936   6.045  17.089  0.1700 -0.6146 -0.0936
10416TIP3    H152739   5.850   6.044  17.048  0.2574  0.2106 -0.3129
10416TIP3    H252740   5.967   5.955  17.082 -0.4785 -0.8177 -0.4193
10417TIP3   OH252741   4.964   1.312   3.916  0.4011  0.2966 -0.4136
10417TIP3    H152742   5.056   1.301   3.893  0.6959  1.2689  0.2089
10417TIP3    H252743   4.966   1.348   4.005 -0.5518  1.0346 -0.6729
10418TIP3   OH252744   6.148   3.584  15.929  0.1364  0.6425  0.2316
10418TIP3    H152745   6.068   3.581  15.981 -0.2534  0.5118 -0.3666
10418TIP3    H252746   6.218   3.598  15.993  0.0166 -2.2628  1.1537
10419TIP3   OH252747   6.460   3.333  14.355  0.3786 -0.6652  0.4598
10419TIP3    H152748   6.376   3.307  14.393 -0.0825 -0.7893 -0.6089
10419TIP3    H252749   6.514   3.254  14.359 -0.0325 -0.9784 -0.1249
10420TIP3   OH252750   0.318   5.400  15.852 -0.1002  0.4635  0.1527
10420TIP3    H152751   0.370   5.379  15.775 -0.2218  0.5541  0.0457
10420TIP3    H252752   0.242   5.342  15.846 -0.5346  1.0581 -0.2436
10421TIP3   OH252753   6.382   5.943  12.740 -0.2458  0.2558  0.5813
10421TIP3    H152754   6.320   6.013  12.719  0.1817  2.1579  4.7516
10421TIP3    H252755   6.378   5.934  12.835  1.4431 -3.9018  0.4948
10422TIP3   OH252756   0.088   6.092  14.129 -0.0314 -0.3011  0.1265
10422TIP3    H152757   0.021   6.160  14.120  0.2006 -0.1312 -0.3482
10422TIP3    H252758   0.042   6.010  14.112 -0.3692 -0.2943  0.9488
10423TIP3   OH252759   3.945   5.939   2.944 -0.4127  0.4517 -0.0794
10423TIP3    H152760   3.929   5.849   2.915 -1.4346  1.1662 -1.9148
10423TIP3    H252761   3.916   5.941   3.035 -2.8314 -0.4567 -0.7681
10424TIP3   OH252762   4.601   0.104   4.679  0.5010 -0.2609 -0.6463
10424TIP3    H152763   4.547   0.028   4.656  1.1566 -0.9445  0.0431
10424TIP3    H252764   4.600   0.107   4.775  0.7869  0.3859 -0.6539
10425TIP3   OH252765   3.785   1.205   5.776 -0.2200 -0.3885 -0.3421
10425TIP3    H152766   3.716   1.170   5.720  0.3611  0.3679 -1.5812
10425TIP3    H252767   3.752   1.194   5.865 -1.7375 -0.4394 -0.8839
10426TIP3   OH252768   3.567   2.117   0.448  1.1306  0.0725 -0.1411
10426TIP3    H152769   3.573   2.104   0.543  0.9939 -1.5976 -0.3387
10426TIP3    H252770   3.618   2.197   0.432  0.8938  0.5583  1.3656
10427TIP3   OH252771   3.360   5.628   1.274  0.0923  0.8042  0.3894
10427TIP3    H152772   3.347   5.593   1.186  0.9500  1.2873  0.0625
10427TIP3    H252773   3.364   5.723   1.262 -0.2942  0.9063  1.0186
10428TIP3   OH252774   5.925   6.754  16.863 -0.2634  0.3290  0.0476
10428TIP3    H152775   5.851   6.795  16.908  0.7895 -0.2663  2.4895
10428TIP3    H252776   5.892   6.669  16.835 -0.4474 -0.0949  1.4671
10429TIP3   OH252777   1.057   5.047  10.452  0.1913 -0.5575 -0.2427
10429TIP3    H152778   1.008   4.992  10.513  0.3389 -1.7095 -1.1370
10429TIP3    H252779   1.025   5.021  10.366  1.1186 -0.0785 -0.7412
10430TIP3   OH252780   2.012   0.856  14.297  0.0069 -0.0809  0.8150
10430TIP3    H152781   2.096   0.812  14.309  0.0592 -0.1120  0.3575
10430TIP3    H252782   1.999   0.906  14.378  0.4010 -0.1822  0.9416
10431TIP3   OH252783   3.177   2.437   1.818 -0.6874 -0.3257 -0.1070
10431TIP3    H152784   3.106   2.497   1.796 -1.0292 -0.1855  1.2865
10431TIP3    H252785   3.148   2.352   1.786 -1.1495 -0.1282 -0.2179
10432TIP3   OH252786   4.008   2.199   6.199 -0.3275 -0.0657  0.1138
10432TIP3    H152787   4.078   2.199   6.263 -0.6097  0.5470  0.4246
10432TIP3    H252788   3.928   2.206   6.250 -0.5943 -0.2763 -0.2651
10433TIP3   OH252789   1.039   1.445  13.405  0.1478  0.6281  0.1462
10433TIP3    H152790   0.956   1.398  13.392  1.2648 -0.9284 -2.0517
10433TIP3    H252791   1.079   1.402  13.480 -0.0581 -0.1609 -0.1800
10434TIP3   OH252792   5.647   0.986   6.045 -0.3840 -0.4796  0.1957
10434TIP3    H152793   5.636   0.953   5.956 -0.0554 -0.1310  0.0236
10434TIP3    H252794   5.733   1.029   6.044 -0.5651 -0.1083  0.5630
10435TIP3   OH252795   2.678   0.166   1.084 -0.0226 -0.1848 -0.2121
10435TIP3    H152796   2.762   0.152   1.127 -0.8883 -2.3189  0.9475
10435TIP3    H252797   2.614   0.133   1.147 -1.6742  0.6182 -1.4140
10436TIP3   OH252798   1.300   3.190  13.284 -0.5423 -0.0071 -0.5895
10436TIP3    H152799   1.218   3.170  13.240  0.2617 -1.6259 -1.4795
10436TIP3    H252800   1.330   3.105  13.318  0.7713  0.5423 -0.3148
10437TIP3   OH252801   1.810   2.778  14.272 -0.2488  0.1283 -0.1033
10437TIP3    H152802   1.715   2.782  14.283 -0.1469 -1.2037  1.7887
10437TIP3    H252803   1.828   2.686  14.253  0.6847  0.3166 -0.1912
10438TIP3   OH252804   3.630   6.170  13.080  0.0121  0.2861 -0.0687
10438TIP3    H152805   3.680   6.218  13.145  0.4514  0.4765 -0.5377
10438TIP3    H252806   3.583   6.103  13.130  0.8394  0.0141  0.3601
10439TIP3   OH252807   5.906   6.339  11.548 -0.2557 -0.4881  0.4980
10439TIP3    H152808   5.833   6.281  11.525  0.9664 -2.1716  0.6712
10439TIP3    H252809   5.983   6.283  11.541  0.9702  1.1132  0.8321
10440TIP3   OH252810   1.024   4.114   2.967  0.2515 -0.0336  0.0214
10440TIP3    H152811   1.043   4.200   2.930 -1.2573  0.4199  0.2156
10440TIP3    H252812   0.929   4.106   2.961  0.1899 -0.9403  1.6161
10441TIP3   OH252813   2.773   3.778   5.761 -0.2707 -0.3171  0.1263
10441TIP3    H152814   2.813   3.802   5.677 -0.0285  0.3322  0.4220
10441TIP3    H252815   2.834   3.715   5.799 -0.2403 -0.4010 -0.0576
10442TIP3   OH252816   0.505   6.642  14.552 -0.3772 -0.5781  0.5323
10442TIP3    H152817   0.551   6.720  14.583 -2.2461  0.6566  0.4227
10442TIP3    H252818   0.548   6.620  14.470 -1.1485  1.7658 -0.6139
10443TIP3   OH252819   2.546   3.649   5.848 -0.1532 -0.0735 -0.3019
10443TIP3    H152820   2.482   3.719   5.844  0.4508  0.6520  1.6812
10443TIP3    H252821   2.625   3.685   5.808 -1.2129 -1.3963 -3.9519
10444TIP3   OH252822   5.055   6.668  15.433  0.0253  0.2571  0.8151
10444TIP3    H152823   5.018   6.636  15.350  0.0619 -2.6619  1.8163
10444TIP3    H252824   5.082   6.758  15.413  1.9366 -0.9079 -3.0072
10445TIP3   OH252825   6.185   5.172   6.166 -0.5621  0.4909 -0.0114
10445TIP3    H152826   6.140   5.089   6.180 -1.5533  1.2025  1.2233
10445TIP3    H252827   6.115   5.234   6.145  0.0953  1.1466 -0.3105
10446TIP3   OH252828   1.571   3.356   3.429 -0.5451 -0.3722 -0.1762
10446TIP3    H152829   1.601   3.273   3.465 -0.4720  0.1628  1.0496
10446TIP3    H252830   1.599   3.355   3.337  0.7413 -1.0727  0.2075
10447TIP3   OH252831   5.055   6.357   2.995 -0.1630  0.3399 -0.1910
10447TIP3    H152832   5.023   6.443   3.024 -0.9571 -0.2960  0.8594
10447TIP3    H252833   5.040   6.357   2.900  1.0359  1.8398 -0.4289
10448TIP3   OH252834   0.680   2.517  12.239 -0.2686 -0.7165  0.3861
10448TIP3    H152835   0.773   2.539  12.226 -1.0655  1.1089 -3.8178
10448TIP3    H252836   0.662   2.451  12.172 -2.3799  0.5092 -0.3544
10449TIP3   OH252837   5.428   2.463  16.652  0.1410  0.1859  0.1936
10449TIP3    H152838   5.465   2.378  16.676 -1.0741 -0.4963 -0.2485
10449TIP3    H252839   5.462   2.524  16.718  0.5016 -0.7677  0.9065
10450TIP3   OH252840   0.455   0.750  13.990  0.0701  0.4567  0.6479
10450TIP3    H152841   0.534   0.723  13.943  0.6100  0.6336  1.4226
10450TIP3    H252842   0.383   0.706  13.945  0.7406 -0.7760  0.7328
10451TIP3   OH252843   2.378   5.921   1.587  0.6112 -0.0215  0.4399
10451TIP3    H152844   2.471   5.909   1.610  0.4540  0.7690  1.5843
10451TIP3    H252845   2.360   6.012   1.611 -0.7797 -0.5227  1.4336
10452TIP3   OH252846   6.042   5.425  15.761  0.2954  0.2746 -0.2803
10452TIP3    H152847   6.008   5.512  15.742  0.1750  0.0816 -0.9680
10452TIP3    H252848   6.035   5.377  15.678  0.4763 -0.3510  0.0551
10453TIP3   OH252849   6.385   3.873   1.627 -0.0748 -0.0180  0.4134
10453TIP3    H152850   6.309   3.876   1.570 -0.8292  0.7671  1.4317
10453TIP3    H252851   6.376   3.791   1.676 -0.0576 -0.1064  0.2699
10454TIP3   OH252852   3.790   5.769   0.447  0.1303  0.2146 -0.1625
10454TIP3    H152853   3.830   5.853   0.470 -2.5404  1.4768  0.2215
10454TIP3    H252854   3.751   5.737   0.528  1.7069 -1.8575 -0.1217
10455TIP3   OH252855   3.224   3.359   6.187 -0.1220 -0.3693 -0.2435
10455TIP3    H152856   3.292   3.414   6.225  1.1779 -2.3036  0.3983
10455TIP3    H252857   3.181   3.318   6.263  0.1666 -1.5997 -0.7083
10456TIP3   OH252858   1.153   0.484   6.421  0.4877  0.5265  0.2192
10456TIP3    H152859   1.088   0.544   6.456  1.0738  0.9374  0.6246
10456TIP3    H252860   1.176   0.428   6.495  0.2204  0.0378 -0.0586
10457TIP3   OH252861   0.434   6.194  13.305 -0.2513 -0.5121 -0.0465
10457TIP3    H152862   0.473   6.153  13.382 -1.5626 -0.5715  0.6249
10457TIP3    H252863   0.339   6.182  13.317 -0.4745 -0.7050 -1.7821
10458TIP3   OH252864   5.440   2.123   3.051  0.0972  0.1343  0.1622
10458TIP3    H152865   5.490   2.205   3.048 -0.2297  0.3183 -0.3711
10458TIP3    H252866   5.502   2.056   3.025  0.5357  0.1229  1.1904
10459TIP3   OH252867   6.291   2.871  13.735  0.7268 -0.1383  0.3601
10459TIP3    H152868   6.217   2.830  13.689  1.6496 -0.0309 -1.2929
10459TIP3    H252869   6.258   2.887  13.824 -1.9729  1.8736 -0.8812
10460TIP3   OH252870   1.977   2.151  15.037  0.0965  0.3908  0.1666
10460TIP3    H152871   1.964   2.213  14.966 -0.4249 -1.1792 -1.1600
10460TIP3    H252872   1.889   2.134  15.071 -0.0769 -1.2959 -0.9985
10461TIP3   OH252873   4.251   6.547   1.799  0.1266 -0.4692 -0.3781
10461TIP3    H152874   4.258   6.528   1.893  0.7345  2.2568  0.1958
10461TIP3    H252875   4.157   6.542   1.781 -0.0795 -0.1714  0.5700
10462TIP3   OH252876   5.791   6.224   6.623 -0.3289 -0.2546 -0.3344
10462TIP3    H152877   5.717   6.207   6.564 -0.4372 -1.3712  0.0961
10462TIP3    H252878   5.848   6.148   6.612  0.2726  0.1316  0.0728
10463TIP3   OH252879   5.998   2.641   3.947  0.5480 -0.3542 -0.5091
10463TIP3    H152880   6.021   2.708   3.884 -0.2479  0.7826  0.3674
10463TIP3    H252881   6.080   2.595   3.964  1.3410  1.0635 -0.3678
10464TIP3   OH252882   4.783   2.049   5.000  0.6200 -0.5385  0.1594
10464TIP3    H152883   4.836   2.085   5.071 -0.7379 -2.5831  2.3779
10464TIP3    H252884   4.693   2.050   5.034  0.0020 -2.1881 -1.2261
10465TIP3   OH252885   3.595   4.170   3.895  0.6304 -0.5050  0.2226
10465TIP3    H152886   3.543   4.222   3.956 -2.4057 -1.6190 -1.2255
10465TIP3    H252887   3.630   4.233   3.833  0.0193  0.1663  0.5559
10466TIP3   OH252888   5.068   4.042   4.812 -0.0779  0.0789 -0.5414
10466TIP3    H152889   5.089   3.950   4.826 -0.7709 -0.0760 -0.4808
10466TIP3    H252890   4.972   4.045   4.809 -0.0406  0.5840 -1.9584
10467TIP3   OH252891   1.076   6.253   1.280 -0.3097  0.0984 -0.0164
10467TIP3    H152892   1.159   6.300   1.276 -0.4050  0.3509  0.8449
10467TIP3    H252893   1.089   6.184   1.345 -0.3940 -0.6379 -0.7654
10468TIP3   OH252894   0.298   6.697  13.520  0.1815  0.3097  0.0569
10468TIP3    H152895   0.222   6.737  13.563 -1.5302 -0.5649 -1.9770
10468TIP3    H252896   0.320   6.758  13.449  0.5283 -0.0868 -0.1822
10469TIP3   OH252897   5.586   5.288  13.232 -0.0577 -0.0664 -0.6506
10469TIP3    H152898   5.641   5.329  13.166 -0.2467  0.1637 -0.6660
10469TIP3    H252899   5.527   5.231  13.183  0.8234 -1.0971 -0.5609
10470TIP3   OH252900   0.149   5.470   5.946 -0.5311  0.3738  0.2859
10470TIP3    H152901   0.174   5.449   6.037 -1.9377  2.5240  1.2532
10470TIP3    H252902   0.063   5.430   5.936  0.4172 -1.5384 -0.8541
10471TIP3   OH252903   0.352   6.541   3.015 -0.2761 -0.1486 -0.0645
10471TIP3    H152904   0.270   6.537   2.966 -1.6024 -0.8995  2.1029
10471TIP3    H252905   0.327   6.525   3.106  2.1514  0.6816  0.8250
10472TIP3   OH252906   1.497   4.004  13.935  0.5862  0.1222  0.2693
10472TIP3    H152907   1.560   4.070  13.907  0.5867  0.0681  0.1443
10472TIP3    H252908   1.509   3.998  14.030  1.7861 -0.9264  0.0823
10473TIP3   OH252909   4.720   4.287  12.868  0.1200 -0.1322  0.5005
10473TIP3    H152910   4.750   4.315  12.954  0.2890 -1.0931  0.7723
10473TIP3    H252911   4.777   4.213  12.846 -1.0258 -0.9943  0.3311
10474TIP3   OH252912   1.260   2.238  14.855 -0.1869 -1.0287 -0.2031
10474TIP3    H152913   1.285   2.192  14.935  1.1903 -0.4144 -0.2449
10474TIP3    H252914   1.319   2.203  14.788  0.2975  0.1556 -0.4157
10475TIP3   OH252915   4.849   4.541  14.977  0.4890  0.0851  0.2432
10475TIP3    H152916   4.923   4.554  15.037  0.6629 -0.5305  0.1707
10475TIP3    H252917   4.802   4.466  15.013  0.3257  0.0080 -0.1275
10476TIP3   OH252918   2.803   2.314  14.365 -0.5092  0.1253 -0.4311
10476TIP3    H152919   2.835   2.343  14.451 -1.1843  0.6455 -0.3436
10476TIP3    H252920   2.876   2.330  14.305 -0.6718  1.5293 -0.2808
10477TIP3   OH252921   2.722   2.132   4.841  0.3008 -0.2289 -0.0002
10477TIP3    H152922   2.634   2.102   4.865  0.7649 -1.8950 -0.2238
10477TIP3    H252923   2.743   2.201   4.905 -1.9248  1.6709 -1.1837
10478TIP3   OH252924   5.341   3.572  10.713 -0.1741 -0.3809 -0.5654
10478TIP3    H152925   5.346   3.557  10.808 -0.4949 -0.4662 -0.5622
10478TIP3    H252926   5.358   3.486  10.674  1.6420 -0.0315 -0.6338
10479TIP3   OH252927   1.966   1.156  11.880  0.5281  0.3611  0.3771
10479TIP3    H152928   2.035   1.175  11.816  0.4648  0.3597  0.3085
10479TIP3    H252929   1.956   1.061  11.877  0.6971  0.3373  0.5663
10480TIP3   OH252930   6.534   0.740  15.712  0.1232 -0.1794  0.0957
10480TIP3    H152931   6.603   0.805  15.699  0.6242 -0.6739  0.2466
10480TIP3    H252932   6.578   0.655  15.701 -0.7019 -0.4953 -1.0141
10481TIP3   OH252933   2.790   5.702   4.614 -0.4312  0.6142  0.7989
10481TIP3    H152934   2.754   5.621   4.653 -0.8553 -0.6851 -2.0016
10481TIP3    H252935   2.880   5.680   4.591 -0.1434  1.3887  1.1583
10482TIP3   OH252936   0.687   3.476   4.472 -0.0210  0.2136  0.2205
10482TIP3    H152937   0.623   3.439   4.534  0.1329 -1.5468 -0.6280
10482TIP3    H252938   0.771   3.468   4.517  0.0648 -0.8751 -0.1191
10483TIP3   OH252939   2.768   2.732   3.238  0.4268 -0.3430  0.2117
10483TIP3    H152940   2.690   2.677   3.249 -0.5530  0.7035 -1.1406
10483TIP3    H252941   2.823   2.681   3.177 -0.4440  0.0868 -0.9805
10484TIP3   OH252942   6.211   1.405   5.281 -0.2072 -0.0933 -0.1622
10484TIP3    H152943   6.291   1.453   5.301  0.4064 -0.3583 -1.8208
10484TIP3    H252944   6.236   1.344   5.212 -1.7132 -0.5861 -0.3157
10485TIP3   OH252945   0.430   4.101  11.121 -0.3769  0.4752 -0.1241
10485TIP3    H152946   0.425   4.192  11.152 -0.6942  0.8979 -1.3789
10485TIP3    H252947   0.384   4.101  11.037  1.2470 -0.4373 -1.0624
10486TIP3   OH252948   0.480   4.710  16.055  0.3015  0.5236  0.1158
10486TIP3    H152949   0.452   4.670  16.137 -0.1703  0.2035 -0.2034
10486TIP3    H252950   0.562   4.755  16.077 -0.0307  0.7763  0.8552
10487TIP3   OH252951   0.707   2.354  16.199 -0.1838  1.2267  0.4521
10487TIP3    H152952   0.665   2.309  16.126  1.5842  0.5265 -0.1767
10487TIP3    H252953   0.709   2.290  16.270  1.0383  0.7630  0.0232
10488TIP3   OH252954   0.277   3.709  16.859  0.0194  0.2193  0.2077
10488TIP3    H152955   0.351   3.729  16.803 -0.4127  2.1432  0.2634
10488TIP3    H252956   0.203   3.755  16.820 -0.7514 -0.1318  1.1854
10489TIP3   OH252957   6.501   5.432  12.773  0.3197 -0.4030  0.4240
10489TIP3    H152958   6.540   5.425  12.686  0.8563 -0.8471  0.6924
10489TIP3    H252959   6.440   5.506  12.767 -0.2289 -0.9220 -0.5383
10490TIP3   OH252960   3.065   0.472  11.599 -0.2243  0.6008  0.4067
10490TIP3    H152961   3.123   0.478  11.675 -0.2135  2.4002  0.2982
10490TIP3    H252962   2.978   0.460  11.636 -0.1489  0.8897  0.6775
10491TIP3   OH252963   4.641   3.976  14.496 -0.2257  0.0048  0.0564
10491TIP3    H152964   4.566   4.001  14.550 -0.6285 -1.1205  0.0334
10491TIP3    H252965   4.677   4.059  14.465 -1.8524  0.5510 -0.4786
10492TIP3   OH252966   4.809   5.449   5.352 -0.0314  0.1350  0.2052
10492TIP3    H152967   4.785   5.523   5.296  0.4140 -0.8577 -1.3524
10492TIP3    H252968   4.820   5.488   5.439 -1.3563  1.6187 -0.2409
10493TIP3   OH252969   2.175   5.770   5.447  0.2402  0.3263 -0.2672
10493TIP3    H152970   2.113   5.810   5.386 -0.4545  1.6538  1.2468
10493TIP3    H252971   2.178   5.829   5.522 -0.0076 -1.9089  1.6281
10494TIP3   OH252972   2.643   2.943   3.129  0.4146 -0.2756  0.1228
10494TIP3    H152973   2.676   2.870   3.182  0.5694 -1.5995 -1.7218
10494TIP3    H252974   2.555   2.915   3.102  0.3870  0.3203 -0.4187
10495TIP3   OH252975   6.336   6.018   5.087 -0.0874 -0.2557 -0.1103
10495TIP3    H152976   6.388   5.940   5.108  1.3478  0.7755  0.3747
10495TIP3    H252977   6.368   6.044   5.001 -2.5928 -1.7640 -1.6217
10496TIP3   OH252978   5.454   3.187  13.971  0.1722  0.6878  0.6900
10496TIP3    H152979   5.447   3.091  13.977 -0.7718  0.5770 -1.2216
10496TIP3    H252980   5.514   3.211  14.041  0.9662 -1.3820  0.8063
10497TIP3   OH252981   3.757   0.448   5.014 -0.4361  0.2763  0.4595
10497TIP3    H152982   3.721   0.537   5.022  0.2538  0.4712  1.7267
10497TIP3    H252983   3.800   0.433   5.098  0.5097 -0.7977 -0.1995
10498TIP3   OH252984   4.570   3.389  16.012  0.0408  0.0325 -0.1951
10498TIP3    H152985   4.615   3.431  16.087  2.3640  0.1516 -1.5461
10498TIP3    H252986   4.570   3.296  16.034  1.3460 -0.0168 -0.3188
10499TIP3   OH252987   6.561   5.317   5.671 -0.0848  0.3337 -0.0307
10499TIP3    H152988   6.623   5.357   5.610  0.0543 -0.6986 -0.5914
10499TIP3    H252989   6.546   5.229   5.635 -0.9148  0.1344  0.7813
10500TIP3   OH252990   1.258   4.745   1.048 -0.4377  0.3647  0.0169
10500TIP3    H152991   1.282   4.802   0.975  0.0384  0.9247  0.5970
10500TIP3    H252992   1.189   4.792   1.094 -1.2150 -0.2998 -0.4542
10501TIP3   OH252993   0.131   1.549  13.818  0.2238 -0.0058 -0.3075
10501TIP3    H152994   0.174   1.493  13.752  2.1594  1.3821 -0.2975
10501TIP3    H252995   0.129   1.636  13.778 -0.5137  0.4314  0.6462
10502TIP3   OH252996   3.358   2.201  13.661  0.6753  0.9242 -0.2677
10502TIP3    H152997   3.394   2.120  13.699  0.2466  0.5156 -0.7093
10502TIP3    H252998   3.274   2.213  13.706  0.3075  0.6054 -0.8381
10503TIP3   OH252999   3.214   0.118  16.769  0.4575 -0.3263  0.4386
10503TIP3    H153000   3.191   0.052  16.704  1.5658  0.2329 -0.5679
10503TIP3    H253001   3.192   0.201  16.728 -0.6386 -0.0282  1.5703
10504TIP3   OH253002   5.544   6.435   4.641  0.8929  0.2218 -0.1102
10504TIP3    H153003   5.575   6.416   4.553  0.3508  0.4007 -0.3437
10504TIP3    H253004   5.554   6.530   4.650  1.7814  0.0939  0.3495
10505TIP3   OH253005   4.647   0.846   1.361 -0.8759 -0.7671 -0.1402
10505TIP3    H153006   4.689   0.777   1.310 -0.1565 -0.3279 -0.1454
10505TIP3    H253007   4.561   0.858   1.320 -0.2754 -0.3654 -1.2986
10506TIP3   OH253008   2.361   5.575   0.700  0.2544  0.6403 -0.2990
10506TIP3    H153009   2.334   5.654   0.747 -3.0167 -0.5947  0.1967
10506TIP3    H253010   2.374   5.604   0.610 -0.7249  1.8114 -0.0923
10507TIP3   OH253011   4.198   3.929   3.616  0.1618 -0.2082 -0.4879
10507TIP3    H153012   4.126   3.932   3.679  0.5249 -0.4463 -0.0568
10507TIP3    H253013   4.222   4.021   3.603  0.6517 -0.1932  0.3937
10508TIP3   OH253014   6.210   0.192  11.562 -0.2408 -0.4787 -0.1944
10508TIP3    H153015   6.302   0.216  11.573 -0.1162  0.2885 -2.3658
10508TIP3    H253016   6.169   0.271  11.527 -1.4302 -1.2257 -0.5482
10509TIP3   OH253017   6.520   4.573   1.754 -0.0740  0.1569 -0.8330
10509TIP3    H153018   6.605   4.618   1.752  0.0370 -0.0701 -2.0577
10509TIP3    H253019   6.491   4.572   1.663 -0.7141 -1.0456 -0.6445
10510TIP3   OH253020   0.664   2.246   1.340 -0.0905 -0.3684 -0.2554
10510TIP3    H153021   0.579   2.284   1.321 -0.8594 -0.7885  2.0837
10510TIP3    H253022   0.725   2.320   1.335 -0.9358  0.3725  0.1914
10511TIP3   OH253023   0.714   3.074  13.670  0.0402 -0.1197  0.1722
10511TIP3    H153024   0.766   3.117  13.601  0.0319 -0.2033  0.1140
10511TIP3    H253025   0.742   2.983  13.668  0.1357 -0.0935  0.3709
10512TIP3   OH253026   2.068   2.933  16.026  0.0073 -0.0664  0.4201
10512TIP3    H153027   2.147   2.979  16.054  0.1462 -0.3805  0.5392
10512TIP3    H253028   2.098   2.870  15.961 -0.5579  1.9976 -1.9715
10513TIP3   OH253029   2.872   0.617   1.778  0.2401  0.5636  0.2147
10513TIP3    H153030   2.868   0.538   1.831 -0.1085  0.5299  0.1414
10513TIP3    H253031   2.844   0.589   1.691  1.0220  0.5704 -0.0514
10514TIP3   OH253032   5.846   0.999  15.687 -0.0221  0.1762 -0.1357
10514TIP3    H153033   5.827   0.969  15.776  0.0741 -1.0891 -0.5181
10514TIP3    H253034   5.924   1.055  15.697 -1.5279  2.2275  0.9005
10515TIP3   OH253035   1.475   3.837   2.932  0.3889  0.6497 -0.2135
10515TIP3    H153036   1.513   3.903   2.989 -0.9518  0.0431  1.4846
10515TIP3    H253037   1.415   3.886   2.875 -0.6446  0.9445  1.0735
10516TIP3   OH253038   1.844   6.155   5.301  0.2058  0.0200  0.1857
10516TIP3    H153039   1.778   6.175   5.368  0.0182  0.9809 -0.2654
10516TIP3    H253040   1.927   6.179   5.340  0.2739 -1.0048  0.6844
10517TIP3   OH253041   2.287   0.142   6.836 -0.0130 -0.2163 -0.6410
10517TIP3    H153042   2.305   0.198   6.760  0.4117  1.4048  0.6068
10517TIP3    H253043   2.370   0.097   6.853  0.2835  0.4293 -0.3471
10518TIP3   OH253044   5.852   0.495  10.598 -0.4075 -0.0608 -0.2978
10518TIP3    H153045   5.912   0.440  10.650 -1.6462  0.3821  1.7152
10518TIP3    H253046   5.908   0.564  10.563  0.6014 -0.7621 -0.1306
10519TIP3   OH253047   1.505   2.416  14.737 -0.5799  0.3355  0.4106
10519TIP3    H153048   1.424   2.364  14.744 -1.3876  1.5642  0.6100
10519TIP3    H253049   1.494   2.484  14.804  1.1322 -0.1133  1.1887
10520TIP3   OH253050   2.992   3.919   4.502  0.2848 -0.3183 -0.4908
10520TIP3    H153051   2.901   3.892   4.513 -0.1639  0.3495 -2.2085
10520TIP3    H253052   3.037   3.884   4.579 -1.7806  1.0030  1.4454
10521TIP3   OH253053   0.060   1.939  16.304  0.0124 -0.1067 -0.0897
10521TIP3    H153054   0.032   1.985  16.384 -0.9587  1.3301 -1.1908
10521TIP3    H253055   0.155   1.948  16.303  0.4535 -2.9098  2.4641
10522TIP3   OH253056   1.055   3.272  14.551 -0.0717 -0.5361  0.0277
10522TIP3    H153057   1.089   3.230  14.472 -2.4800 -0.6581 -1.0212
10522TIP3    H253058   1.087   3.363  14.544  1.0046 -0.9151 -0.2606
10523TIP3   OH253059   1.838   2.983  15.476 -0.1164 -0.0966 -0.7195
10523TIP3    H153060   1.919   3.031  15.494 -0.9157  1.8033 -1.9060
10523TIP3    H253061   1.867   2.908  15.424  1.0465 -0.3878  0.2889
10524TIP3   OH253062   6.053   0.030   3.849 -0.5720  0.0613 -0.1313
10524TIP3    H153063   6.000  -0.019   3.786 -1.2323  0.5943 -0.0069
10524TIP3    H253064   6.020   0.002   3.935 -2.6102  2.3556 -0.0318
10525TIP3   OH253065   2.113   0.831  14.585  0.1612  0.2815  0.0569
10525TIP3    H153066   2.169   0.754  14.594 -0.3196  0.1725  3.6660
10525TIP3    H253067   2.173   0.905  14.597 -0.0327  0.2648  1.1996
10526TIP3   OH253068   5.834   4.574  11.916  0.3514 -0.0129 -0.2496
10526TIP3    H153069   5.875   4.494  11.949  2.1089  0.1628 -1.8097
10526TIP3    H253070   5.898   4.610  11.855 -1.1549  1.6352 -0.9557
10527TIP3   OH253071   3.279   4.600  13.900  0.2458 -0.0153  0.0963
10527TIP3    H153072   3.344   4.646  13.952 -0.4225  1.0172  0.0418
10527TIP3    H253073   3.322   4.518  13.875  0.7232 -0.3755  1.9247
10528TIP3   OH253074   5.088   5.585  16.303  0.2922  0.5823  0.1209
10528TIP3    H153075   5.037   5.597  16.223 -0.1594 -0.9449  0.1472
10528TIP3    H253076   5.157   5.651  16.298 -0.0985  0.9162 -1.2158
10529TIP3   OH253077   6.683   1.485   6.041 -0.0409  0.0020 -0.2900
10529TIP3    H153078   6.675   1.561   6.099  1.7992 -0.1739  0.2504
10529TIP3    H253079   6.753   1.433   6.080 -0.3181 -1.2668 -1.4369
10530TIP3   OH253080   3.349   0.371   3.260 -0.0574  0.2793  0.6663
10530TIP3    H153081   3.253   0.379   3.262 -0.3441 -1.0471 -2.1551
10530TIP3    H253082   3.376   0.436   3.195  1.0419  0.8542  1.6651
10531TIP3   OH253083   5.580   6.746   2.462  0.1517 -0.5452  0.2211
10531TIP3    H153084   5.497   6.707   2.437 -0.8427  2.0481 -0.9260
10531TIP3    H253085   5.636   6.736   2.385 -0.2118  0.4663 -0.1942
10532TIP3   OH253086   2.067   2.594  16.680 -0.3372  0.0770 -0.0327
10532TIP3    H153087   2.125   2.549  16.741 -1.0619 -1.8132 -0.6610
10532TIP3    H253088   2.122   2.611  16.603 -0.2059 -0.2616 -0.0145
10533TIP3   OH253089   0.249   0.724   4.712 -0.0792  0.4533 -0.2997
10533TIP3    H153090   0.203   0.651   4.752  2.4383 -1.4476 -0.6075
10533TIP3    H253091   0.290   0.687   4.634  0.9684  2.2786 -0.6778
10534TIP3   OH253092   1.189   4.607   4.408 -0.1138 -0.0775  0.2243
10534TIP3    H153093   1.227   4.628   4.494 -0.8694  0.4159  0.4462
10534TIP3    H253094   1.099   4.582   4.427 -0.8018  1.6568 -0.5780
10535TIP3   OH253095   1.294   1.424   2.703  0.4648 -0.2695 -0.0930
10535TIP3    H153096   1.282   1.501   2.758 -2.5547  0.4024 -1.4429
10535TIP3    H253097   1.385   1.399   2.715  1.4296  3.1840  0.8410
10536TIP3   OH253098   0.799   6.030  11.174 -0.2109 -0.7780 -0.2070
10536TIP3    H153099   0.739   6.032  11.100  0.3470 -3.5036 -0.8374
10536TIP3    H253100   0.744   6.051  11.250 -1.7925 -2.2079 -0.8951
10537TIP3   OH253101   0.645   6.376   2.932  0.2287  0.1239  0.1030
10537TIP3    H153102   0.635   6.469   2.953 -1.8116  0.2905 -1.3161
10537TIP3    H253103   0.643   6.332   3.017 -0.2559  1.2736  0.7054
10538TIP3   OH253104   5.536   6.256  13.919  0.1892 -0.1744  0.1187
10538TIP3    H153105   5.566   6.344  13.943  0.0752 -0.5648  1.8517
10538TIP3    H253106   5.560   6.202  13.994  1.4743 -1.9258 -1.4550
10539TIP3   OH253107   5.317   1.848  14.151 -0.0634  0.3472 -0.2277
10539TIP3    H153108   5.359   1.852  14.065 -1.8422  2.2275 -1.1107
10539TIP3    H253109   5.322   1.938  14.184 -0.3998 -0.1107  1.1289
10540TIP3   OH253110   0.787   6.819  11.895  0.0051  0.4740  0.1364
10540TIP3    H153111   0.732   6.777  11.828 -0.2644  0.3641  0.4214
10540TIP3    H253112   0.835   6.746  11.935  0.1641  0.5395  0.0657
10541TIP3   OH253113   0.441   3.697   3.013 -0.0580 -0.4708 -0.0484
10541TIP3    H153114   0.412   3.728   3.099  1.7219  0.0902  0.3882
10541TIP3    H253115   0.448   3.602   3.022  1.5001 -0.2919  0.9081
10542TIP3   OH253116   2.784   4.124   6.923 -0.1943 -0.2005  0.4829
10542TIP3    H153117   2.755   4.062   6.856  0.6043 -0.6307  0.5246
10542TIP3    H253118   2.835   4.071   6.984  0.3993  0.4699  0.5888
10543TIP3   OH253119   0.901   6.801   3.392  0.4043  0.1187 -0.3836
10543TIP3    H153120   0.814   6.767   3.370 -0.6014  2.4494 -0.3254
10543TIP3    H253121   0.961   6.736   3.357 -1.3478 -1.6905 -0.2222
10544TIP3   OH253122   0.550   3.447  11.225 -0.1823  0.9012 -0.2209
10544TIP3    H153123   0.481   3.454  11.159  0.7831  2.0006 -1.1611
10544TIP3    H253124   0.618   3.507  11.194  1.8849 -1.2963 -0.1718
10545TIP3   OH253125   3.271   0.818  14.729 -0.2897 -0.7328  0.2129
10545TIP3    H153126   3.177   0.814  14.744 -0.1894 -0.5671  0.9127
10545TIP3    H253127   3.280   0.819  14.633 -0.9469 -1.8064  0.1278
10546TIP3   OH253128   3.567   1.709  12.569  0.3758  0.1292  0.1710
10546TIP3    H153129   3.661   1.698  12.561  0.3350 -2.5291  1.9511
10546TIP3    H253130   3.553   1.724  12.663 -1.0672 -1.7258  0.3144
10547TIP3   OH253131   5.410   4.351   2.796  0.6501  0.9478  0.2139
10547TIP3    H153132   5.336   4.350   2.735  1.0071 -0.1440 -0.2247
10547TIP3    H253133   5.373   4.321   2.879  0.4315  1.2272  0.2209
10548TIP3   OH253134   1.177   0.146  11.649  0.0795 -0.4441 -0.3902
10548TIP3    H153135   1.085   0.159  11.672 -0.3509 -2.0226 -1.0601
10548TIP3    H253136   1.215   0.104  11.726 -0.1661 -1.2324 -0.6850
10549TIP3   OH253137   4.943   6.328  13.110  0.2609  0.8483 -0.4228
10549TIP3    H153138   4.993   6.327  13.029  0.5200  0.2945 -0.2597
10549TIP3    H253139   4.863   6.280  13.090  0.8559 -0.3435 -0.0266
10550TIP3   OH253140   5.622   6.538   1.204 -0.3505  0.2012 -0.7060
10550TIP3    H153141   5.670   6.569   1.127  0.0885 -1.2620 -1.0663
10550TIP3    H253142   5.688   6.492   1.256 -0.6534  1.1535  0.5474
10551TIP3   OH253143   6.408   6.250   2.376 -0.7055  0.0212  0.0184
10551TIP3    H153144   6.441   6.329   2.419 -1.1394  0.0980  0.2174
10551TIP3    H253145   6.329   6.227   2.425 -0.8723 -0.2357 -0.3622
10552TIP3   OH253146   3.913   5.719   5.094  0.0737 -0.2112  0.3327
10552TIP3    H153147   3.889   5.686   5.007  0.1590  0.0361  0.2176
10552TIP3    H253148   3.954   5.644   5.137 -1.6487 -0.9138  0.8315
10553TIP3   OH253149   3.210   2.983  15.302  0.2738  0.2151  0.0109
10553TIP3    H153150   3.204   3.078  15.299  0.2660  0.1947 -1.1623
10553TIP3    H253151   3.262   2.964  15.380  0.2010  1.1697  0.3019
10554TIP3   OH253152   3.350   4.602  14.615  0.1559  0.5053 -0.2256
10554TIP3    H153153   3.441   4.621  14.591  0.0787  0.1814 -0.7730
10554TIP3    H253154   3.306   4.585  14.532 -0.0978 -0.6878  0.1418
10555TIP3   OH253155   2.342   5.015  12.466 -0.3118 -0.7933  0.2224
10555TIP3    H153156   2.435   4.992  12.475 -0.7382 -2.6134  0.3335
10555TIP3    H253157   2.302   4.983  12.547 -0.8902  1.0236  0.7096
10556TIP3   OH253158   1.774   5.535  16.667 -0.6668  0.0094  0.1812
10556TIP3    H153159   1.850   5.572  16.713 -0.3669 -2.7064  2.1204
10556TIP3    H253160   1.783   5.566  16.577  1.4490  1.6237  0.8490
10557TIP3   OH253161   2.766   0.816  13.232 -0.2786  0.9218 -0.2481
10557TIP3    H153162   2.862   0.816  13.229 -0.2687  2.3777 -0.7255
10557TIP3    H253163   2.744   0.892  13.286 -1.1750  0.5534 -0.0790
10558TIP3   OH253164   2.247   0.353  13.573 -0.3754  0.2904  0.1801
10558TIP3    H153165   2.177   0.415  13.595 -0.6711 -0.6506  2.1298
10558TIP3    H253166   2.328   0.399  13.598 -0.4925  0.3854  0.3847
10559TIP3   OH253167   2.723   5.352  15.295 -0.2497  0.3991  0.0181
10559TIP3    H153168   2.793   5.290  15.273  0.5163  1.5911 -1.0611
10559TIP3    H253169   2.674   5.309  15.364  1.8833 -0.2868  1.2138
10560TIP3   OH253170   4.623   1.532   2.968 -0.0176  0.0130 -0.4069
10560TIP3    H153171   4.617   1.627   2.955 -0.5709  0.2673  1.4526
10560TIP3    H253172   4.620   1.521   3.063 -2.8858 -2.0247 -0.6109
10561TIP3   OH253173   0.504   6.229  14.089  0.4449  0.5179  0.9369
10561TIP3    H153174   0.418   6.229  14.046  1.3508 -1.0964 -1.0577
10561TIP3    H253175   0.484   6.231  14.183 -1.7369  0.8260  0.5157
10562TIP3   OH253176   5.479   4.777   4.174  0.0314  0.7969 -0.1121
10562TIP3    H153177   5.520   4.742   4.252 -1.0914 -0.7583 -0.1616
10562TIP3    H253178   5.524   4.734   4.101  1.3215  2.5142 -0.3700
10563TIP3   OH253179   1.308   2.955   1.019  0.5287  0.3955 -0.0891
10563TIP3    H153180   1.222   2.915   1.029  0.6138  0.5204  1.3816
10563TIP3    H253181   1.331   2.985   1.107  2.2880 -0.0734 -0.3565
10564TIP3   OH253182   5.324   2.799   0.789  0.3944  0.5279 -0.0353
10564TIP3    H153183   5.391   2.866   0.774 -0.3576  1.5557  1.0298
10564TIP3    H253184   5.284   2.785   0.703  1.6961  0.1770 -0.6074
10565TIP3   OH253185   4.403   2.429   5.094  0.3362  0.1124 -0.3501
10565TIP3    H153186   4.432   2.496   5.032  1.8064  0.3015  0.4819
10565TIP3    H253187   4.449   2.350   5.066 -0.1255 -0.1473 -0.3681
10566TIP3   OH253188   0.135   4.616  11.867  0.2372 -0.1852  0.1139
10566TIP3    H153189   0.077   4.674  11.916  0.0929  0.6727 -1.0309
10566TIP3    H253190   0.184   4.675  11.809 -0.6478 -1.2567 -1.8261
10567TIP3   OH253191   3.326   3.590  16.125 -0.1173  0.0775  0.1152
10567TIP3    H153192   3.355   3.549  16.207 -1.1347  0.6252  0.7688
10567TIP3    H253193   3.268   3.525  16.086 -1.0614  0.5235  0.7353
10568TIP3   OH253194   6.214   5.444  13.808  0.0332  0.5768 -0.3321
10568TIP3    H153195   6.186   5.478  13.893  2.8398  0.1440  0.8797
10568TIP3    H253196   6.205   5.349  13.815  0.9699  0.4872 -0.2032
10569TIP3   OH253197   1.215   0.196   0.319 -0.8023  0.4196 -0.3902
10569TIP3    H153198   1.273   0.223   0.390  0.3291 -0.1637 -1.0708
10569TIP3    H253199   1.127   0.210   0.354 -0.2755  1.5949  0.5593
10570TIP3   OH253200   5.532   3.938   4.696 -0.0606 -0.6850 -0.1194
10570TIP3    H153201   5.624   3.952   4.719 -0.3279  0.2881  0.4002
10570TIP3    H253202   5.504   4.021   4.658 -1.3793 -0.1201  1.9543
10571TIP3   OH253203   4.057   0.444  13.724 -0.4475  0.0261 -0.0352
10571TIP3    H153204   4.143   0.411  13.700 -1.5461 -3.2065 -0.0045
10571TIP3    H253205   4.016   0.466  13.640  0.6988  2.7474  0.0064
10572TIP3   OH253206   5.727   4.851  17.010  0.0776 -0.1354  0.0573
10572TIP3    H153207   5.816   4.883  16.994  0.5522 -1.7483 -0.7545
10572TIP3    H253208   5.670   4.924  16.983  1.1196  1.6941  2.4476
10573TIP3   OH253209   1.014   2.346   0.457 -0.5740  0.2705 -0.0718
10573TIP3    H153210   0.976   2.299   0.532 -0.4576 -0.1171 -0.2547
10573TIP3    H253211   0.968   2.310   0.381 -1.3919  1.3549 -0.1203
10574TIP3   OH253212   3.650   2.437  13.791 -0.6970  0.2354 -0.4633
10574TIP3    H153213   3.740   2.449  13.761 -0.8768  0.8516 -0.7796
10574TIP3    H253214   3.609   2.384  13.723 -0.4076 -0.5872 -0.0048
10575TIP3   OH253215   1.206   1.097  13.752  0.4270  0.1939 -0.2121
10575TIP3    H153216   1.191   1.022  13.809  0.6651  0.7965  0.6778
10575TIP3    H253217   1.301   1.099  13.741  0.2950 -0.6468 -1.6701
10576TIP3   OH253218   1.587   4.146   5.946 -0.2906  0.3361 -0.0535
10576TIP3    H153219   1.624   4.233   5.936 -0.7757  0.4545 -0.8782
10576TIP3    H253220   1.495   4.162   5.967 -0.8858  0.0284 -2.2716
10577TIP3   OH253221   3.739   1.062  15.767 -0.1552  0.4873 -0.0623
10577TIP3    H153222   3.713   0.970  15.758  2.4631 -0.3071 -0.3885
10577TIP3    H253223   3.679   1.098  15.831 -1.5140 -1.3377 -0.2371
10578TIP3   OH253224   0.685   0.231   2.779  0.3272  0.1600  0.0314
10578TIP3    H153225   0.688   0.135   2.778 -2.5832 -0.0619  1.6748
10578TIP3    H253226   0.639   0.254   2.698 -0.1862  0.0640  0.2931
10579TIP3   OH253227   4.958   1.708   1.647  0.2038  0.5413 -0.2474
10579TIP3    H153228   4.960   1.716   1.743  0.5265 -0.8219 -0.1134
10579TIP3    H253229   4.896   1.775   1.618 -1.7955 -0.6004  1.1245
10580TIP3   OH253230   2.837   3.936  16.049 -0.3406 -0.2818  0.2207
10580TIP3    H153231   2.765   3.943  16.112 -0.9669  0.7769 -0.5808
10580TIP3    H253232   2.890   4.014  16.065 -0.0541 -0.4232 -0.0351
10581TIP3   OH253233   5.945   3.097  12.474 -0.3932  0.0000  0.0254
10581TIP3    H153234   5.879   3.110  12.543 -0.9768 -1.8298 -0.1407
10581TIP3    H253235   6.019   3.056  12.519  0.0583  0.7044 -0.0674
10582TIP3   OH253236   3.471   2.438  11.208 -0.2282 -0.3575 -0.5892
10582TIP3    H153237   3.500   2.426  11.117 -0.4864 -0.6064 -0.6432
10582TIP3    H253238   3.441   2.351  11.235 -0.3858 -0.2310 -0.3483
10583TIP3   OH253239   5.379   6.520  11.782 -0.0575  0.5331 -0.2854
10583TIP3    H153240   5.393   6.611  11.807  1.3502  0.5820 -1.2087
10583TIP3    H253241   5.320   6.524  11.707 -2.3950  0.4850  1.3902
10584TIP3   OH253242   2.592   5.525  16.530 -0.5470  0.2922  0.7785
10584TIP3    H153243   2.646   5.516  16.452 -0.2696  0.1372  0.9875
10584TIP3    H253244   2.609   5.446  16.581 -0.0896  0.7633  1.3826
10585TIP3   OH253245   5.343   0.935   4.708  0.6684  0.6692  0.6142
10585TIP3    H153246   5.417   0.886   4.744  0.6998 -1.2110 -1.7569
10585TIP3    H253247   5.356   0.932   4.613 -3.1112 -1.0569 -0.0403
10586TIP3   OH253248   2.389   4.718  12.378  0.4314 -0.0821 -0.0792
10586TIP3    H153249   2.428   4.630  12.378 -1.5552 -1.0130  0.2365
10586TIP3    H253250   2.333   4.720  12.455 -0.2518  1.1446 -0.5762
10587TIP3   OH253251   0.329   6.448  11.357  0.3405  0.4117  0.1436
10587TIP3    H153252   0.272   6.400  11.297 -1.2790  0.8118  1.2827
10587TIP3    H253253   0.313   6.541  11.336  2.1876  0.5504 -0.9119
10588TIP3   OH253254   6.823   6.269   1.815  0.4295 -0.3858 -0.3656
10588TIP3    H153255   6.840   6.176   1.833  1.9110 -0.1923 -0.5921
10588TIP3    H253256   6.826   6.310   1.901 -0.8846 -0.6186 -0.1888
10589TIP3   OH253257   6.017   1.013   1.413 -0.3792 -0.2370  0.0093
10589TIP3    H153258   5.999   1.020   1.507 -0.8793 -0.0077 -0.0994
10589TIP3    H253259   5.982   1.094   1.376 -2.4860 -1.4101 -0.7184
10590TIP3   OH253260   5.856   4.148   2.653 -0.3950 -0.3636 -0.2606
10590TIP3    H153261   5.780   4.200   2.627  1.2822  1.4260 -1.9083
10590TIP3    H253262   5.900   4.128   2.570  1.0610 -1.1711  0.6731
10591TIP3   OH253263   2.817   4.391  13.558 -0.4767  0.6089 -0.2813
10591TIP3    H153264   2.911   4.401  13.572 -0.8898  0.8521  3.6131
10591TIP3    H253265   2.810   4.334  13.482  2.8005  0.6386 -0.7684
10592TIP3   OH253266   3.711   1.398  12.601  0.0117  0.2580 -0.2528
10592TIP3    H153267   3.743   1.482  12.633  0.0649 -0.5224  1.9062
10592TIP3    H253268   3.631   1.382  12.652  0.4379 -1.3515 -0.0367
10593TIP3   OH253269   4.983   2.693   3.681 -0.0120 -0.0691  1.0104
10593TIP3    H153270   4.954   2.603   3.670  1.4129 -0.4985  0.6475
10593TIP3    H253271   4.966   2.712   3.774 -2.1381 -0.0189  0.6533
10594TIP3   OH253272   6.427   4.642   5.046  0.2669 -0.1797  0.1952
10594TIP3    H153273   6.441   4.550   5.025 -0.1928 -0.0755 -0.6183
10594TIP3    H253274   6.468   4.690   4.973 -1.1045  0.2002 -0.3594
10595TIP3   OH253275   0.019   4.419   5.327 -0.6764 -0.1513  0.1526
10595TIP3    H153276  -0.016   4.478   5.394 -0.1255  1.6646 -1.0649
10595TIP3    H253277   0.022   4.333   5.369 -1.4237  0.6976  2.0520
10596TIP3   OH253278   1.867   3.806   2.147 -0.7823  0.3475  0.6317
10596TIP3    H153279   1.944   3.848   2.186  0.7173  0.3873 -2.1407
10596TIP3    H253280   1.870   3.716   2.179 -0.4436  0.7194  1.7004
10597TIP3   OH253281   3.467   6.765  11.070  0.2840 -0.1871 -0.2516
10597TIP3    H153282   3.418   6.692  11.034 -0.5246 -1.1511  2.5530
10597TIP3    H253283   3.510   6.729  11.148  1.5213  1.8365  0.0786
10598TIP3   OH253284   3.592   0.143   0.324  0.4537  0.0260 -0.3364
10598TIP3    H153285   3.640   0.157   0.406  1.0817  0.9160 -0.8379
10598TIP3    H253286   3.655   0.101   0.266 -0.1814 -1.1870 -0.1757
10599TIP3   OH253287   1.132   5.156   1.425  0.2395 -0.7891  0.2633
10599TIP3    H153288   1.082   5.146   1.344  0.4246 -1.6411  0.2431
10599TIP3    H253289   1.183   5.076   1.432  0.1956 -0.7515  1.2460
10600TIP3   OH253290   3.560   1.904   2.356  0.0562  0.5372  0.4907
10600TIP3    H153291   3.645   1.947   2.361  0.5533 -0.1904 -1.1572
10600TIP3    H253292   3.573   1.818   2.396  0.4247 -0.0080 -0.7497
10601TIP3   OH253293   0.311   3.419   3.265 -0.2541 -0.0336  0.4742
10601TIP3    H153294   0.271   3.465   3.339 -0.3135 -0.0638  0.4609
10601TIP3    H253295   0.395   3.463   3.252 -0.6264  0.5475  0.0015
10602TIP3   OH253296   0.150   2.036  11.482 -0.0422  0.0154 -0.1297
10602TIP3    H153297   0.069   2.079  11.454  1.4311  1.5665 -2.3600
10602TIP3    H253298   0.130   1.942  11.475 -1.7596  0.3473 -0.1973
10603TIP3   OH253299   5.650   3.496  14.773 -0.3790 -0.0462 -0.0275
10603TIP3    H153300   5.566   3.455  14.751 -1.4807  0.8013  2.3535
10603TIP3    H253301   5.712   3.423  14.775 -1.3372 -0.9018 -0.4425
10604TIP3   OH253302   4.905   4.074   0.415  0.0921  0.4911  0.7220
10604TIP3    H153303   4.840   4.119   0.469  0.2320 -0.3391  1.6023
10604TIP3    H253304   4.989   4.094   0.457  0.1600 -0.5367  1.0787
10605TIP3   OH253305   1.434   4.537   0.383 -0.2227  0.0942 -0.4696
10605TIP3    H153306   1.387   4.619   0.398 -1.2083 -0.8476  2.1222
10605TIP3    H253307   1.407   4.509   0.296 -1.6047  1.4207 -0.5055
10606TIP3   OH253308   2.985   4.393   2.371 -0.0811  0.1457  0.0420
10606TIP3    H153309   2.971   4.309   2.414  0.9235  0.3811  0.8888
10606TIP3    H253310   3.054   4.376   2.306 -0.2400  0.2030 -0.1431
10607TIP3   OH253311   3.099   5.304  17.112  0.7518 -0.1518 -0.3292
10607TIP3    H153312   3.004   5.300  17.119  0.6087  1.6623 -0.9111
10607TIP3    H253313   3.117   5.381  17.059  2.5025 -1.3330 -1.6040
10608TIP3   OH253314   6.199   4.969   5.322  0.0625 -0.0592  0.3909
10608TIP3    H153315   6.143   5.000   5.251  1.3708  2.1410  0.2139
10608TIP3    H253316   6.262   4.911   5.279 -0.3786 -0.3243  0.1008
10609TIP3   OH253317   6.504   0.347  15.209  0.7425  0.3617 -0.5096
10609TIP3    H153318   6.503   0.252  15.219 -0.1175  0.2540 -1.3832
10609TIP3    H253319   6.564   0.362  15.135  1.2523  0.5406 -0.0633
10610TIP3   OH253320   3.392   2.055  14.981  0.8671  0.1378 -0.3801
10610TIP3    H153321   3.457   2.057  14.910  0.9803  0.4121 -0.2706
10610TIP3    H253322   3.404   1.969  15.022 -1.2183 -1.3281 -2.5425
10611TIP3   OH253323   4.533   1.077  15.168  0.0987 -0.4925  0.1056
10611TIP3    H153324   4.523   1.097  15.261 -1.3173  0.9286 -0.3150
10611TIP3    H253325   4.544   0.982  15.165 -0.3272 -0.6219  1.6877
10612TIP3   OH253326   6.481   0.877   1.534  0.2668  0.6582 -0.3180
10612TIP3    H153327   6.414   0.812   1.553  0.1062  1.0905  0.6770
10612TIP3    H253328   6.507   0.860   1.444  0.8661 -1.3476  0.1912
10613TIP3   OH253329   1.599   4.086  16.577  0.0598 -0.0582  0.1813
10613TIP3    H153330   1.554   4.141  16.512 -0.0686 -0.9307 -0.4798
10613TIP3    H253331   1.528   4.045  16.626  0.1423 -0.6468 -0.1899
10614TIP3   OH253332   2.155   4.987   2.210 -0.2734 -0.1512 -0.4487
10614TIP3    H153333   2.136   5.033   2.128 -1.6324 -0.2791 -0.2265
10614TIP3    H253334   2.244   4.954   2.198 -0.1807  0.4371 -1.5872
10615TIP3   OH253335   2.076   0.122   2.821 -0.1797 -0.1754 -0.5698
10615TIP3    H153336   2.085   0.050   2.758 -1.3561 -0.6900 -0.1811
10615TIP3    H253337   2.039   0.194   2.769 -1.4781 -0.7099 -0.4179
10616TIP3   OH253338   0.104   0.885  16.415 -0.6045  0.0583  0.2570
10616TIP3    H153339   0.157   0.874  16.494 -0.3064  0.4349  0.1119
10616TIP3    H253340   0.105   0.979  16.398  1.2485 -0.2126 -1.5106
10617TIP3   OH253341   1.268   2.913   5.558  0.1908 -0.1122 -0.4929
10617TIP3    H153342   1.362   2.926   5.551  0.3337 -1.1828 -0.6330
10617TIP3    H253343   1.233   2.953   5.478  0.7208 -1.4660 -1.4336
10618TIP3   OH253344   4.447   0.434   5.810 -0.2622 -0.0502 -0.6037
10618TIP3    H153345   4.499   0.479   5.877 -0.3365  1.4095 -1.4803
10618TIP3    H253346   4.362   0.420   5.851 -1.1390  3.0452 -1.0944
10619TIP3   OH253347   6.757   5.663   3.293  0.6832  0.3388  0.0583
10619TIP3    H153348   6.805   5.580   3.292 -0.2531 -0.2284  0.5546
10619TIP3    H253349   6.774   5.701   3.207  0.4200 -0.7904 -0.5260
10620TIP3   OH253350   6.034   3.882  15.520 -0.0929  1.0998  0.0023
10620TIP3    H153351   6.104   3.939  15.488  0.5428  0.3072 -0.0386
10620TIP3    H253352   6.000   3.840  15.441  0.9523 -0.2653  0.2390
10621TIP3   OH253353   2.881   2.126  14.620  0.6497 -0.3740 -0.5511
10621TIP3    H153354   2.871   2.221  14.632  0.4801 -0.2272 -1.7248
10621TIP3    H253355   2.966   2.117  14.576  0.4401 -0.7324 -0.8802
10622TIP3   OH253356   5.402   0.844  16.674  0.1446  0.2706  0.0804
10622TIP3    H153357   5.329   0.786  16.697  0.2175 -0.2413 -0.9129
10622TIP3    H253358   5.380   0.878  16.587 -0.3980  2.5979  1.0540
10623TIP3   OH253359   0.434   4.463   4.403  0.7629  0.3640 -0.0558
10623TIP3    H153360   0.426   4.543   4.349 -0.2274 -0.9785 -2.0375
10623TIP3    H253361   0.418   4.392   4.341 -0.5156 -1.3034  2.0828
10624TIP3   OH253362   4.872   0.818   3.019  0.4065 -0.6457  0.3440
10624TIP3    H153363   4.951   0.765   3.010  0.0680 -1.2700  0.9716
10624TIP3    H253364   4.903   0.905   3.043  0.9337 -0.6941 -0.1356
10625TIP3   OH253365   2.775   3.590   3.669 -0.4620  0.4102 -0.3595
10625TIP3    H153366   2.815   3.676   3.664  0.7071 -0.1011 -0.1955
10625TIP3    H253367   2.810   3.543   3.593 -0.4335 -0.1739  0.0105
10626TIP3   OH253368   3.236   4.764  16.883  0.3288 -0.0072 -0.9186
10626TIP3    H153369   3.187   4.795  16.959  1.2524  2.3890 -1.2022
10626TIP3    H253370   3.234   4.669  16.890 -1.5532  0.0844  0.8290
10627TIP3   OH253371   6.755   4.924   6.198  0.2596 -0.0373 -0.4181
10627TIP3    H153372   6.694   4.907   6.126  1.7946 -0.1063 -1.7637
10627TIP3    H253373   6.746   4.848   6.255 -2.1204  0.7247  0.3645
10628TIP3   OH253374   5.487   3.336  12.665 -0.2922  0.1360  0.0867
10628TIP3    H153375   5.410   3.305  12.713 -1.5824  1.1398 -1.2212
10628TIP3    H253376   5.485   3.286  12.583  0.7903 -0.2342  0.2824
10629TIP3   OH253377   4.437   2.164   5.757  0.0035 -0.3291 -0.1145
10629TIP3    H153378   4.509   2.132   5.702  1.6657  1.8556  0.6619
10629TIP3    H253379   4.387   2.222   5.700 -1.2061 -1.7786 -0.6273
10630TIP3   OH253380   2.994   2.444   1.507  0.1520  0.1208 -0.0200
10630TIP3    H153381   3.038   2.506   1.565 -0.6212 -0.4148  1.1737
10630TIP3    H253382   3.028   2.359   1.534 -0.0887 -0.1175 -0.4673
10631TIP3   OH253383   5.810   6.057   3.753  0.0078  0.7489  0.2363
10631TIP3    H153384   5.715   6.061   3.751 -0.0477  0.5708  1.4442
10631TIP3    H253385   5.835   6.011   3.673 -0.8749  1.3259 -0.3874
10632TIP3   OH253386   2.220   0.338   0.157  0.0113 -0.5309  0.5036
10632TIP3    H153387   2.243   0.342   0.064  0.4592 -0.0271  0.6295
10632TIP3    H253388   2.129   0.366   0.161  0.1410 -0.0624  0.2660
10633TIP3   OH253389   3.418   0.126   5.738 -0.2737 -0.5267 -0.5113
10633TIP3    H153390   3.401   0.062   5.669 -0.5093 -0.1538 -0.8013
10633TIP3    H253391   3.474   0.192   5.696  1.3961 -1.4049  0.2442
10634TIP3   OH253392   2.356   4.835   1.180 -0.2839  0.0707 -0.3193
10634TIP3    H153393   2.277   4.780   1.184  0.6534 -1.2641  1.5102
10634TIP3    H253394   2.365   4.870   1.269  0.1330  1.8159 -1.0009
10635TIP3   OH253395   1.802   6.259  15.915 -0.7740  0.0483  0.3689
10635TIP3    H153396   1.769   6.195  15.979  1.4057 -0.9437  0.6241
10635TIP3    H253397   1.724   6.299  15.878 -2.1979 -1.6454  1.3647
10636TIP3   OH253398   0.085   4.363  11.868 -0.0111 -0.1670  0.3505
10636TIP3    H153399   0.168   4.353  11.821  0.0744 -1.6670  0.7758
10636TIP3    H253400   0.084   4.454  11.896  0.4004  0.4982 -1.6686
10637TIP3   OH253401   5.504   0.078  15.858 -0.1494 -0.2662  0.1262
10637TIP3    H153402   5.420   0.034  15.867  0.4075 -1.4538 -0.2310
10637TIP3    H253403   5.548   0.031  15.787  1.7535 -1.2226  1.8461
10638TIP3   OH253404   5.774   1.769  16.266  0.3235  0.7091 -0.3773
10638TIP3    H153405   5.782   1.684  16.223  0.6234 -0.9952  2.7620
10638TIP3    H253406   5.681   1.788  16.264 -0.0717 -0.9002  0.9111
10639TIP3   OH253407   1.591   5.680  15.211 -0.2073 -0.0636 -0.7300
10639TIP3    H153408   1.497   5.696  15.205 -0.4322 -0.6513  0.6990
10639TIP3    H253409   1.631   5.765  15.197 -1.0750  0.6564  0.8695
10640TIP3   OH253410   5.486   2.061  15.512  0.6675  0.2128 -0.4402
10640TIP3    H153411   5.419   2.125  15.490  0.2531 -0.6935 -1.9831
10640TIP3    H253412   5.543   2.058  15.435  0.4544 -1.5055 -0.5771
10641TIP3   OH253413   2.918   6.592   4.898 -0.0354  0.1814  0.0321
10641TIP3    H153414   2.868   6.572   4.977  1.5761  1.0981  1.3580
10641TIP3    H253415   2.935   6.686   4.903  3.1207 -0.2881  0.5444
10642TIP3   OH253416   3.549   5.143   2.200  0.4246  0.7284  0.0163
10642TIP3    H153417   3.627   5.104   2.241  0.7705  0.4184 -0.9164
10642TIP3    H253418   3.477   5.085   2.224  0.6463  0.4762  0.0669
10643TIP3   OH253419   3.297   0.905   5.860 -0.0601 -0.1188 -0.2975
10643TIP3    H153420   3.346   0.868   5.933  0.5776 -1.1182 -1.2167
10643TIP3    H253421   3.238   0.835   5.832 -1.1226  0.6351 -0.0417
10644TIP3   OH253422   6.415   0.510  13.115 -0.2564 -0.0591  0.0059
10644TIP3    H153423   6.475   0.577  13.083 -1.0760 -0.4471 -2.5145
10644TIP3    H253424   6.337   0.559  13.143  0.2728  0.2412  1.0049
10645TIP3   OH253425   3.727   0.305  13.209 -0.5006 -0.3033 -0.7034
10645TIP3    H153426   3.675   0.289  13.288 -0.0973 -0.5010 -0.4750
10645TIP3    H253427   3.671   0.359  13.154 -0.1513  1.3153  0.4530
10646TIP3   OH253428   1.854   0.062  12.181 -0.4085  0.0778  0.9755
10646TIP3    H153429   1.867   0.153  12.155  0.4340 -0.0208  1.0120
10646TIP3    H253430   1.812   0.021  12.106  0.9852  0.0564  0.1749
10647TIP3   OH253431   3.144   0.061  13.037  0.2689 -0.0442 -0.8718
10647TIP3    H153432   3.097   0.131  13.084  0.5558  0.0247 -0.6853
10647TIP3    H253433   3.082  -0.012  13.035  0.7208 -0.5233  0.8118
10648TIP3   OH253434   2.684   0.347  12.723 -0.5199  0.1928  0.8370
10648TIP3    H153435   2.630   0.390  12.789 -0.7247 -1.7887  2.0459
10648TIP3    H253436   2.631   0.273  12.693  0.2611  0.0710 -0.3379
10649TIP3   OH253437   4.612   2.061  15.915  0.4429 -0.3772 -0.6260
10649TIP3    H153438   4.570   2.132  15.964 -0.7404 -1.3954 -0.1029
10649TIP3    H253439   4.629   2.099  15.828 -1.0515  0.2729 -0.6725
10650TIP3   OH253440   0.088   4.379  12.961  0.4658  0.1198 -0.2458
10650TIP3    H153441   0.064   4.469  12.983 -0.7018 -0.6205  1.7599
10650TIP3    H253442   0.175   4.367  12.998 -0.6588 -0.4721  2.5214
10651TIP3   OH253443   4.779   1.864   0.409  0.2986  0.4244 -0.1766
10651TIP3    H153444   4.775   1.845   0.315 -1.9376 -1.1674  0.1505
10651TIP3    H253445   4.834   1.942   0.415 -0.6382  1.4448 -2.9457
10652TIP3   OH253446   2.458   3.753   3.947 -0.0729 -0.0235  0.1393
10652TIP3    H153447   2.399   3.708   4.008 -0.1498 -0.9943 -0.6250
10652TIP3    H253448   2.541   3.707   3.956  0.4225  0.9773  0.7971
10653TIP3   OH253449   6.421   4.497  16.198 -0.0477  0.1122  0.1489
10653TIP3    H153450   6.441   4.404  16.187 -1.0962 -0.0728 -0.3204
10653TIP3    H253451   6.478   4.526  16.269 -0.7787 -1.2590  1.3581
10654TIP3   OH253452   0.551   2.132   5.260  0.0654 -0.1499 -0.2386
10654TIP3    H153453   0.487   2.076   5.304 -0.3181 -0.0303 -0.6441
10654TIP3    H253454   0.570   2.087   5.178 -0.6119  0.5458 -0.7933
10655TIP3   OH253455   2.629   1.536  12.927 -0.1062  1.0565  0.1469
10655TIP3    H153456   2.647   1.482  12.850  0.5589  2.5612 -0.7974
10655TIP3    H253457   2.590   1.616  12.892 -0.0076  1.6838  1.3961
10656TIP3   OH253458   0.557   3.082   3.216  0.1071 -0.0089  0.5431
10656TIP3    H153459   0.579   3.152   3.154  2.9785  0.7779  2.2714
10656TIP3    H253460   0.473   3.048   3.184  0.0210  2.2460 -2.0553
10657TIP3   OH253461   1.611   2.769  10.599 -0.2517 -0.5748 -0.4681
10657TIP3    H153462   1.572   2.731  10.521 -1.8913  1.0538 -0.5190
10657TIP3    H253463   1.599   2.864  10.588 -0.4844 -0.2984  1.7069
10658TIP3   OH253464   4.752   5.122  13.279 -0.3784 -0.4498  0.0268
10658TIP3    H153465   4.769   5.216  13.282 -1.2328 -0.1394 -2.4243
10658TIP3    H253466   4.755   5.094  13.370 -4.0449  2.6919  1.3796
10659TIP3   OH253467   0.452   1.440   2.173 -0.0183 -0.0905 -0.5467
10659TIP3    H153468   0.524   1.443   2.236  0.1339 -1.4082 -0.6260
10659TIP3    H253469   0.390   1.377   2.209 -0.8936  0.6305 -0.7495
10660TIP3   OH253470   2.049   5.434   6.043 -0.6561  0.4128 -0.2426
10660TIP3    H153471   2.024   5.482   5.964 -0.5599 -0.7065 -0.9754
10660TIP3    H253472   2.063   5.344   6.013 -2.3873 -0.4634  1.3315
10661TIP3   OH253473   5.249   6.503   1.399  0.0847 -0.3880  0.2109
10661TIP3    H153474   5.307   6.565   1.355  1.8012 -0.2969  2.3827
10661TIP3    H253475   5.161   6.528   1.371  0.7964  2.2459  0.0453
10662TIP3   OH253476   3.829   1.276   0.352  0.5792  0.2047 -0.0888
10662TIP3    H153477   3.889   1.220   0.304 -0.4604 -1.0437 -0.0034
10662TIP3    H253478   3.801   1.341   0.288  1.3723  0.2925 -0.3569
10663TIP3   OH253479   4.136   4.461  16.994 -0.4200 -0.3095  0.1139
10663TIP3    H153480   4.086   4.465  16.912 -0.1614  1.6143  0.0230
10663TIP3    H253481   4.220   4.502  16.974  0.9609 -2.7285  0.5050
10664TIP3   OH253482   2.197   6.232  12.183 -0.4483  0.0813 -0.6644
10664TIP3    H153483   2.274   6.283  12.207  0.1566 -1.6483  1.3090
10664TIP3    H253484   2.192   6.163  12.248 -4.1369  0.5225 -0.2620
10665TIP3   OH253485   6.097   2.879  12.545 -0.3850 -0.3588 -0.0928
10665TIP3    H153486   6.166   2.820  12.577  0.4845  0.2429 -0.8257
10665TIP3    H253487   6.100   2.870  12.450 -0.6131  0.4599 -0.1847
10666TIP3   OH253488   2.899   4.980  13.982  0.0707 -0.2579  0.3073
10666TIP3    H153489   2.963   4.910  13.968  1.5799  1.1535 -0.1525
10666TIP3    H253490   2.943   5.042  14.041 -0.0424  1.7157 -1.5514
10667TIP3   OH253491   0.262   5.508   2.545 -0.1224 -0.2181  0.0292
10667TIP3    H153492   0.294   5.584   2.498  0.0220 -0.6072 -0.5142
10667TIP3    H253493   0.167   5.517   2.545 -0.0663  0.6817  1.2111
10668TIP3   OH253494   1.145   4.130  13.868  0.2949  0.4547 -0.2902
10668TIP3    H153495   1.151   4.037  13.887 -0.1622  0.6818  1.0192
10668TIP3    H253496   1.061   4.140  13.824 -0.2577  0.4238  0.7349
10669TIP3   OH253497   5.339   1.904  15.174 -0.4653  0.1372 -0.0610
10669TIP3    H153498   5.424   1.911  15.219 -0.0507 -0.4770 -0.7263
10669TIP3    H253499   5.277   1.885  15.243  0.1270 -0.5701  0.2869
10670TIP3   OH253500   0.750   1.952  11.351 -1.0136 -0.0725 -0.0388
10670TIP3    H153501   0.665   1.991  11.371 -0.8239  0.9729 -1.1210
10670TIP3    H253502   0.756   1.955  11.256 -0.1042 -0.8888 -0.0236
10671TIP3   OH253503   0.582   3.942  17.035 -0.1375  0.2800  0.2423
10671TIP3    H153504   0.628   3.997  17.098  0.8932 -0.3670  0.0849
10671TIP3    H253505   0.573   3.997  16.957  1.2068  0.1432 -0.0380
10672TIP3   OH253506   5.194   3.811  14.205  0.7859 -0.6011 -0.3016
10672TIP3    H153507   5.202   3.906  14.205 -2.7174 -0.1677  0.2388
10672TIP3    H253508   5.231   3.783  14.289  1.6414  0.2686 -0.3725
10673TIP3   OH253509   1.696   5.774  14.046  0.5815 -0.1129  0.2590
10673TIP3    H153510   1.754   5.704  14.016 -0.1498 -0.7226  0.2516
10673TIP3    H253511   1.706   5.843  13.981 -0.2712 -1.0407 -0.8836
10674TIP3   OH253512   1.375   5.615  16.062 -0.4426 -0.0375 -0.3253
10674TIP3    H153513   1.400   5.695  16.015 -2.5836  1.6458  1.2314
10674TIP3    H253514   1.341   5.557  15.994  0.1377  0.7767 -1.3460
10675TIP3   OH253515   6.491   5.823  12.366 -0.2762  0.2336 -0.1455
10675TIP3    H153516   6.580   5.794  12.345 -0.3157  0.0588 -0.0749
10675TIP3    H253517   6.503   5.905  12.413 -0.1928  0.7619 -1.0507
10676TIP3   OH253518   4.472   5.226   1.210  0.4689 -0.4138 -0.6378
10676TIP3    H153519   4.466   5.268   1.296  1.1990  0.5634 -1.0421
10676TIP3    H253520   4.405   5.157   1.212  0.9504 -0.8740  0.9590
10677TIP3   OH253521   5.017   4.135  14.330 -0.3696 -0.1389  0.0410
10677TIP3    H153522   4.954   4.073  14.294  0.3569 -1.2626  0.6538
10677TIP3    H253523   4.981   4.159  14.415  0.0747 -0.8980  0.4579
10678TIP3   OH253524   1.968   1.092   4.975 -0.3579  0.2286  0.0498
10678TIP3    H153525   2.003   1.159   4.916 -0.9290  0.2152 -0.3066
10678TIP3    H253526   2.002   1.010   4.940  0.0201  0.2934  0.2571
10679TIP3   OH253527   1.029   4.435  13.948 -0.0969  0.9067  0.0648
10679TIP3    H153528   1.085   4.358  13.959  0.7985  1.4845 -0.4261
10679TIP3    H253529   0.960   4.406  13.888  1.4526  1.0833 -1.8795
10680TIP3   OH253530   2.522   3.768  15.934 -0.1485 -0.0856  0.1211
10680TIP3    H153531   2.567   3.833  15.880  0.2223 -1.7342 -1.6232
10680TIP3    H253532   2.429   3.784  15.917 -0.0590 -0.0898 -0.3736
10681TIP3   OH253533   6.661   4.485  15.697  0.1436  0.0601 -0.7945
10681TIP3    H153534   6.690   4.394  15.693 -0.2909 -0.1571  0.3997
10681TIP3    H253535   6.592   4.485  15.764  0.6459  1.4005 -0.2426
10682TIP3   OH253536   3.088   1.485   5.082 -0.4366  0.0043  0.1170
10682TIP3    H153537   3.160   1.543   5.060  0.3747 -1.1388 -0.3324
10682TIP3    H253538   3.124   1.397   5.074 -1.4379 -0.5704  1.4255
10683TIP3   OH253539   6.354   0.961   4.033 -0.0297  0.0157 -0.2923
10683TIP3    H153540   6.378   0.999   3.949  1.2774 -0.7589 -0.2889
10683TIP3    H253541   6.286   1.019   4.067 -1.8221 -0.5780 -2.6219
10684TIP3   OH253542   1.591   1.784  16.019  0.2481 -0.4913  0.0192
10684TIP3    H153543   1.613   1.782  16.112 -1.1972  0.1180  0.4042
10684TIP3    H253544   1.535   1.707  16.007  1.7166 -1.4846 -0.7219
10685TIP3   OH253545   2.150   2.062   0.886  0.1039 -1.0433 -0.0873
10685TIP3    H153546   2.189   2.019   0.810  2.2777  0.5483  0.0191
10685TIP3    H253547   2.102   1.993   0.931  0.7960 -2.5768 -1.5906
10686TIP3   OH253548   1.218   5.990  16.417  0.2488  0.2904  0.0985
10686TIP3    H153549   1.200   6.049  16.344 -0.2532  0.6339  0.4979
10686TIP3    H253550   1.246   5.909  16.375  0.4644  0.6487 -0.4666
10687TIP3   OH253551   0.218   6.139  16.064  0.1908 -0.2484  0.0112
10687TIP3    H153552   0.301   6.151  16.110  0.0441  0.9173 -0.0057
10687TIP3    H253553   0.243   6.119  15.974  0.4595 -1.4170  0.3224
10688TIP3   OH253554   6.814   1.024   4.742  0.4722 -0.1049 -0.2056
10688TIP3    H153555   6.798   1.046   4.834  0.8758  0.8155 -0.3430
10688TIP3    H253556   6.789   0.932   4.735  0.9655 -0.3509  0.9552
10689TIP3   OH253557   0.678   4.742  15.369  0.2588  0.2158 -0.4312
10689TIP3    H153558   0.681   4.692  15.450 -0.1416 -0.1602 -0.6443
10689TIP3    H253559   0.612   4.809  15.384  0.4253  0.3605 -0.3319
10690TIP3   OH253560   2.431   1.379   5.625 -0.5224  0.0781  0.3631
10690TIP3    H153561   2.413   1.363   5.718  1.3519  2.0491  1.1605
10690TIP3    H253562   2.459   1.470   5.622  0.8643 -0.3522 -1.9047
10691TIP3   OH253563   5.532   2.551   2.533  0.2500  0.1515  0.6038
10691TIP3    H153564   5.520   2.619   2.467  0.4082 -0.1747  0.2307
10691TIP3    H253565   5.564   2.598   2.610 -0.3917  0.6001  0.6072
10692TIP3   OH253566   6.412   2.175  12.584  0.3192 -0.4892 -0.4127
10692TIP3    H153567   6.424   2.088  12.546  1.7676 -0.2222 -0.6332
10692TIP3    H253568   6.461   2.172  12.666 -0.2709 -0.1171 -0.0452
10693TIP3   OH253569   4.750   5.938  16.493  0.4314 -0.0188 -0.0452
10693TIP3    H153570   4.698   5.994  16.435 -1.6649 -2.5858 -0.8225
10693TIP3    H253571   4.834   5.929  16.447 -0.0781  0.4962 -1.1198
10694TIP3   OH253572   2.233   6.351  17.077  0.1746 -0.1522  0.3598
10694TIP3    H153573   2.138   6.360  17.081  0.4435  3.1926  2.8164
10694TIP3    H253574   2.262   6.426  17.026  1.5747 -0.1084  1.1776
10695TIP3   OH253575   6.749   2.431   5.535 -0.3515 -0.3502 -0.0046
10695TIP3    H153576   6.693   2.438   5.612 -2.2835  0.6082 -1.4089
10695TIP3    H253577   6.822   2.491   5.553  1.0688 -2.6056  2.4236
10696TIP3   OH253578   3.372   6.509   2.537  0.2879 -0.4734  0.1437
10696TIP3    H153579   3.391   6.509   2.443 -0.0041 -0.2377  0.0801
10696TIP3    H253580   3.422   6.436   2.572  1.2349  0.0845 -0.0292
10697TIP3   OH253581   0.773   6.672   2.354  0.4311  0.5869  0.6134
10697TIP3    H153582   0.825   6.746   2.322 -0.4604  0.8633 -0.2129
10697TIP3    H253583   0.720   6.644   2.280 -0.6344  0.3322  1.4314
10698TIP3   OH253584   0.745   3.682  15.541  0.0910 -0.1852  0.2718
10698TIP3    H153585   0.721   3.775  15.539 -0.9594 -0.4483 -0.9535
10698TIP3    H253586   0.666   3.638  15.573  1.0834 -0.5665  2.4006
10699TIP3   OH253587   3.531   5.669   5.391 -0.5720 -0.1471  0.1766
10699TIP3    H153588   3.502   5.728   5.322  0.4007 -0.1120 -0.2135
10699TIP3    H253589   3.451   5.625   5.420 -1.0624  0.1962 -0.6291
10700TIP3   OH253590   2.970   6.755  14.774  0.1023  0.2425  0.7598
10700TIP3    H153591   2.897   6.749  14.835  0.2286 -0.4385  0.8522
10700TIP3    H253592   2.931   6.784  14.692 -0.5032 -1.3778  0.4405
10701TIP3   OH253593   5.380   3.998  16.799 -0.0842 -0.6230  0.0403
10701TIP3    H153594   5.468   3.983  16.832 -0.5927 -0.8914  1.3409
10701TIP3    H253595   5.392   4.050  16.720  1.3457 -2.0977 -0.7668
10702TIP3   OH253596   5.286   6.053   5.791  0.3381 -0.0308 -0.0619
10702TIP3    H153597   5.207   6.046   5.738  0.0132  1.4605  0.1818
10702TIP3    H253598   5.356   6.020   5.734 -0.5837 -2.6491  0.1826
10703TIP3   OH253599   4.521   4.957   4.816 -0.2528 -0.0272  0.1001
10703TIP3    H153600   4.483   5.008   4.888 -0.8638  0.9719 -0.8849
10703TIP3    H253601   4.454   4.960   4.747  0.6803 -0.1914 -0.8376
10704TIP3   OH253602   3.238   6.596  13.446  0.4998  0.0344 -0.3193
10704TIP3    H153603   3.194   6.551  13.518  0.7259 -0.8773 -0.7350
10704TIP3    H253604   3.251   6.528  13.380 -1.0922  1.1668 -1.8814
10705TIP3   OH253605   5.185   6.085  11.710 -0.6817  0.1423  0.3033
10705TIP3    H153606   5.158   6.147  11.641 -2.3313 -1.0297 -0.1818
10705TIP3    H253607   5.147   6.121  11.790  0.5868  1.1027  0.4984
10706TIP3   OH253608   6.418   0.383  14.272 -1.0040 -0.4301 -0.7860
10706TIP3    H153609   6.463   0.362  14.354 -1.0207  1.4697 -0.2478
10706TIP3    H253610   6.428   0.478  14.262 -1.7058 -0.5003 -2.5767
10707TIP3   OH253611   3.525   6.286   1.052 -0.3263  0.5063  0.1802
10707TIP3    H153612   3.525   6.223   0.979  2.3045  2.0199 -1.2884
10707TIP3    H253613   3.585   6.248   1.116  0.1058  0.7914 -0.0474
10708TIP3   OH253614   1.163   6.158  15.791 -0.4017 -0.0165 -0.0027
10708TIP3    H153615   1.196   6.144  15.702 -0.4813 -0.6529  0.0633
10708TIP3    H253616   1.068   6.149  15.783 -0.3305 -1.3916  0.3610
10709TIP3   OH253617   3.531   6.318   0.077  0.3650 -0.0096  0.3448
10709TIP3    H153618   3.552   6.359  -0.006 -1.3211 -1.8003 -1.0552
10709TIP3    H253619   3.553   6.226   0.065 -0.5137 -0.4225  1.6559
10710TIP3   OH253620   5.804   5.792  11.626  0.0393  0.0236  0.1619
10710TIP3    H153621   5.725   5.816  11.579 -0.3036  0.6768  1.0478
10710TIP3    H253622   5.867   5.768  11.558 -0.1295  1.8438 -0.6928
10711TIP3   OH253623   4.728   3.940  14.935 -0.0506  0.2371 -0.0724
10711TIP3    H153624   4.811   3.927  14.888 -0.9451  1.4379 -2.1205
10711TIP3    H253625   4.672   3.869  14.904 -0.1918  0.1457  0.3826
10712TIP3   OH253626   2.520   4.576  16.401  0.0503 -0.3297 -0.4612
10712TIP3    H153627   2.587   4.523  16.443 -1.0413 -1.2600  0.1642
10712TIP3    H253628   2.476   4.620  16.474  0.0318  0.3394 -0.8732
10713TIP3   OH253629   6.430   1.429  16.182  0.2477 -0.1862 -0.7392
10713TIP3    H153630   6.407   1.453  16.093  2.3480  0.4389 -1.1661
10713TIP3    H253631   6.514   1.386  16.175  2.2180  2.8874  1.1699
10714TIP3   OH253632   5.605   1.280   6.358 -0.3532  0.5757  0.4088
10714TIP3    H153633   5.604   1.193   6.398 -1.4372 -0.8617 -2.4360
10714TIP3    H253634   5.536   1.328   6.403 -0.2366 -0.2893  1.5443
10715TIP3   OH253635   3.552   2.580   4.316 -0.1584 -0.2318 -0.4923
10715TIP3    H153636   3.481   2.524   4.286  0.1451 -0.7634 -0.2496
10715TIP3    H253637   3.562   2.558   4.409  1.0416 -0.9827 -0.7756
10716TIP3   OH253638   2.613   5.479  15.920  0.5531 -0.1885 -0.5089
10716TIP3    H153639   2.706   5.498  15.934  0.4906 -0.7666  0.8541
10716TIP3    H253640   2.567   5.551  15.962  0.3802 -0.9014  0.5682
10717TIP3   OH253641   5.423   0.429  11.506 -0.0780 -0.6533 -0.0239
10717TIP3    H153642   5.492   0.363  11.502 -0.6330 -1.2575  0.2469
10717TIP3    H253643   5.462   0.502  11.555  0.8729 -0.3544 -1.1883
10718TIP3   OH253644   4.521   6.274   2.797 -0.0989 -0.1603 -0.0634
10718TIP3    H153645   4.454   6.257   2.864  0.8405 -0.7112  0.7763
10718TIP3    H253646   4.574   6.344   2.834  0.1447 -0.1389 -0.4507
10719TIP3   OH253647   2.178   4.978  11.761 -0.6832  0.1945 -0.0438
10719TIP3    H153648   2.157   5.026  11.842  1.4034  0.8477  0.1902
10719TIP3    H253649   2.144   4.890  11.776 -0.2913  0.2765  1.6293
10720TIP3   OH253650   0.817   2.009  12.936  0.2814  0.4616  0.0661
10720TIP3    H153651   0.781   2.002  13.024 -0.6698  0.5199 -0.3134
10720TIP3    H253652   0.841   1.920  12.912  2.7360  0.7203  1.2668
10721TIP3   OH253653   1.979   5.343   2.962  0.3364 -0.0453  0.2630
10721TIP3    H153654   1.973   5.423   2.910  1.2242  0.0891  0.3529
10721TIP3    H253655   1.999   5.373   3.050 -1.1311 -0.2781  0.7033
10722TIP3   OH253656   6.683   0.743  12.019 -0.2550  0.3866 -0.5829
10722TIP3    H153657   6.706   0.679  12.086 -0.9350 -0.5935 -1.2557
10722TIP3    H253658   6.658   0.691  11.943  2.6495  1.4145 -2.4203
10723TIP3   OH253659   2.432   3.017   0.442  0.4104 -0.0731  0.2533
10723TIP3    H153660   2.461   3.081   0.508  0.8040 -0.4582  0.4566
10723TIP3    H253661   2.463   3.053   0.359 -0.0139  0.3731  0.2810
10724TIP3   OH253662   3.019   2.066  11.106 -0.0681 -0.0811 -0.2901
10724TIP3    H153663   2.947   2.070  11.043  0.0550 -0.2414 -0.4419
10724TIP3    H253664   3.086   2.123  11.070  0.3045 -0.7570 -0.6930
10725TIP3   OH253665   3.187   4.567  12.556  0.2473  0.3380 -0.3285
10725TIP3    H153666   3.196   4.659  12.533  0.7618  0.2627 -0.4282
10725TIP3    H253667   3.195   4.565  12.651 -2.0565  0.6714 -0.0567
10726TIP3   OH253668   2.956   2.465  12.027 -0.0450  0.2784 -0.6164
10726TIP3    H153669   2.904   2.387  12.044 -0.0737  0.6921  1.5145
10726TIP3    H253670   2.969   2.505  12.113  0.3832  2.3669 -1.5679
10727TIP3   OH253671   0.804   0.706   4.192  0.2446 -0.1865 -0.3965
10727TIP3    H153672   0.832   0.791   4.156  0.7785 -0.4953 -0.7123
10727TIP3    H253673   0.755   0.665   4.121 -0.9950  0.3192  0.1276
10728TIP3   OH253674   1.107   3.248   3.205 -0.0201 -0.4054 -0.5405
10728TIP3    H153675   1.100   3.210   3.118 -0.6284 -1.5473 -0.0131
10728TIP3    H253676   1.155   3.330   3.192 -2.2639  0.7404 -2.3243
10729TIP3   OH253677   3.752   6.444  16.135 -0.0989 -0.1767  0.5810
10729TIP3    H153678   3.663   6.471  16.114  0.5502  0.8687 -1.0678
10729TIP3    H253679   3.767   6.366  16.081  0.4914  0.5795 -0.3669
10730TIP3   OH253680   6.672   1.908   4.347 -0.2293 -0.2931  0.2570
10730TIP3    H153681   6.647   1.992   4.309 -0.0438  0.3080  1.4208
10730TIP3    H253682   6.732   1.869   4.284  0.7026  1.0406  0.2825
10731TIP3   OH253683   1.889   0.628  15.491  0.2850  0.2457 -0.0555
10731TIP3    H153684   1.901   0.667  15.404  0.4347  0.5589  0.1055
10731TIP3    H253685   1.808   0.578  15.484 -0.8417  1.9533  0.2228
10732TIP3   OH253686   1.497   0.558   5.980  0.0476 -0.5243  0.2644
10732TIP3    H153687   1.406   0.581   5.964  0.2300 -0.5514 -0.8790
10732TIP3    H253688   1.508   0.472   5.940  0.7379 -0.2395 -0.1752
10733TIP3   OH253689   3.620   4.839   2.100 -0.1308  0.0875  0.1676
10733TIP3    H153690   3.650   4.768   2.043  0.0752 -0.3226  0.7759
10733TIP3    H253691   3.549   4.880   2.051  1.1352  0.8186 -1.1201
10734TIP3   OH253692   4.378   1.169   5.071 -0.4588  0.3715 -0.4488
10734TIP3    H153693   4.447   1.118   5.113 -1.1072 -0.5708 -0.5031
10734TIP3    H253694   4.298   1.119   5.086 -1.1649  1.5111 -0.2774
10735TIP3   OH253695   0.605   6.527  14.325  0.1839  0.1780 -0.0281
10735TIP3    H153696   0.531   6.466  14.320 -1.6690  2.0343  2.4527
10735TIP3    H253697   0.678   6.474  14.357 -0.6374 -1.2642 -0.4637
10736TIP3   OH253698   6.185   4.036   6.140 -0.2023 -0.6632  0.7180
10736TIP3    H153699   6.187   4.130   6.126  1.4895 -0.8551 -0.7827
10736TIP3    H253700   6.142   4.001   6.062  1.4277 -1.2401  0.0223
10737TIP3   OH253701   2.521   1.882  10.748  0.5549 -0.4989  0.7958
10737TIP3    H153702   2.507   1.958  10.692  0.8776  0.2438  1.6998
10737TIP3    H253703   2.593   1.834  10.707 -0.1621 -0.7508 -0.2040
10738TIP3   OH253704   0.809   4.421  12.076 -0.0676 -0.1245  0.0414
10738TIP3    H153705   0.771   4.486  12.018 -0.0098  0.5200  0.7061
10738TIP3    H253706   0.904   4.433  12.067 -0.0427 -0.5915 -0.3542
10739TIP3   OH253707   2.721   5.691  11.196 -0.3592 -0.1637  0.2249
10739TIP3    H153708   2.794   5.709  11.137  0.6430 -2.0618  0.8133
10739TIP3    H253709   2.653   5.655  11.139 -0.3383  0.3269 -0.1203
10740TIP3   OH253710   1.520   0.406  14.093 -0.0385 -0.1246  0.8221
10740TIP3    H153711   1.531   0.471  14.163 -3.9994  0.4772  1.0795
10740TIP3    H253712   1.510   0.457  14.014 -0.9824 -0.4923  0.6888
10741TIP3   OH253713   5.409   0.813  16.302 -0.3389  0.0911  0.2067
10741TIP3    H153714   5.461   0.868  16.362  0.3707  1.0504 -1.2377
10741TIP3    H253715   5.318   0.840  16.318  0.0640  2.8859 -1.4981
10742TIP3   OH253716   6.440   6.179  13.186  0.3342 -0.3546 -1.1412
10742TIP3    H153717   6.514   6.171  13.125  1.3320  2.1578 -0.4160
10742TIP3    H253718   6.480   6.207  13.268 -1.4017  1.3761 -0.7992
10743TIP3   OH253719   0.732   1.345   2.769 -0.3243  0.0278 -0.3738
10743TIP3    H153720   0.729   1.321   2.676  0.2505  1.5204 -0.8150
10743TIP3    H253721   0.825   1.362   2.785 -0.1866 -1.6722  0.9086
10744TIP3   OH253722   1.876   0.869  17.022  0.2388 -0.3933 -0.3227
10744TIP3    H153723   1.968   0.860  17.048  0.0856 -1.6984 -0.1529
10744TIP3    H253724   1.838   0.927  17.088  0.9221  0.0651 -0.3313
10745TIP3   OH253725   4.043   0.330   2.180 -0.3396  0.1825  0.4187
10745TIP3    H153726   4.134   0.300   2.183 -0.1876  0.2556 -1.6802
10745TIP3    H253727   3.992   0.252   2.201  0.1820  0.5292  3.3176
10746TIP3   OH253728   2.590   1.835   6.125 -0.3989 -0.6307  0.3666
10746TIP3    H153729   2.620   1.759   6.075  0.8749 -0.0785  0.2442
10746TIP3    H253730   2.599   1.908   6.064  0.4418 -0.0662  1.1392
10747TIP3   OH253731   5.820   4.477  15.985  0.3553  0.1905  0.5600
10747TIP3    H153732   5.820   4.512  15.896  1.8781 -0.1734  0.3841
10747TIP3    H253733   5.826   4.382  15.973  0.3548  0.1284  1.0370
10748TIP3   OH253734   1.385   0.332   1.898 -0.0998 -0.4795  0.3233
10748TIP3    H153735   1.318   0.265   1.910  0.9478 -1.8503 -1.2055
10748TIP3    H253736   1.344   0.396   1.839 -1.2339  0.5033  2.0779
10749TIP3   OH253737   1.445   1.612  16.941 -0.1265  0.3435 -0.7303
10749TIP3    H153738   1.413   1.573  17.022 -1.2913  1.5938 -0.5487
10749TIP3    H253739   1.487   1.694  16.969 -0.1346  0.5567 -1.3273
10750TIP3   OH253740   2.928   6.657   0.915 -0.5113  0.0880  0.2302
10750TIP3    H153741   2.864   6.708   0.866 -0.5026 -0.5310 -0.4448
10750TIP3    H253742   3.006   6.656   0.860 -0.7314 -1.2083 -0.0972
10751TIP3   OH253743   3.711   6.150   1.221 -0.2037 -0.3096 -0.5864
10751TIP3    H153744   3.644   6.163   1.289  1.1107 -0.8492  0.8655
10751TIP3    H253745   3.793   6.178   1.262  0.4782  0.4497 -2.3689
10752TIP3   OH253746   1.804   1.932   1.500 -0.1227  0.4925  0.3618
10752TIP3    H153747   1.760   1.847   1.498 -1.5374  1.0884  2.5214
10752TIP3    H253748   1.767   1.979   1.425 -0.6650 -0.1873  0.1930
10753TIP3   OH253749   5.629   1.482  14.713  0.0425 -0.1778 -0.1086
10753TIP3    H153750   5.587   1.451  14.794 -0.0603  0.1403 -0.0386
10753TIP3    H253751   5.702   1.421  14.700 -1.1001 -1.4291 -0.8546
10754TIP3   OH253752   0.468   2.736   1.208  0.0535  0.1518 -0.0244
10754TIP3    H153753   0.373   2.738   1.219  0.0261 -1.4676  0.2892
10754TIP3    H253754   0.481   2.702   1.120  0.3656  2.0462 -0.7597
10755TIP3   OH253755   4.120   6.073  15.942 -0.1143 -0.2371 -0.4289
10755TIP3    H153756   4.099   6.097  16.032  0.0421  0.6943 -0.6385
10755TIP3    H253757   4.061   6.126  15.888  1.5981  1.2247 -0.9697
10756TIP3   OH253758   2.819   3.652  11.019 -0.1383  0.1063  0.0505
10756TIP3    H153759   2.746   3.707  10.989  0.2012  0.9808  0.7580
10756TIP3    H253760   2.855   3.615  10.940 -0.5439  0.7123 -0.4332
10757TIP3   OH253761   2.459   5.874   5.298 -0.1407 -0.0917 -0.3757
10757TIP3    H153762   2.404   5.865   5.220 -0.1327 -1.3671 -0.2671
10757TIP3    H253763   2.533   5.816   5.281  0.3043  0.3027  0.2090
10758TIP3   OH253764   3.304   1.777  11.452 -0.2838 -0.2273  0.1049
10758TIP3    H153765   3.263   1.757  11.367 -0.7406  0.6312  0.1181
10758TIP3    H253766   3.239   1.749  11.517  0.7547 -2.5531  0.2811
10759TIP3   OH253767   0.835   0.544  16.839 -0.0928  0.5886  0.4073
10759TIP3    H153768   0.745   0.574  16.833 -0.0889  0.3288 -1.5797
10759TIP3    H253769   0.872   0.561  16.753  1.3617 -0.5342  0.7630
10760TIP3   OH253770   5.895   0.137   6.304  0.0188  0.1371 -0.2041
10760TIP3    H153771   5.830   0.149   6.234 -0.6982 -0.5377  0.3261
10760TIP3    H253772   5.893   0.043   6.323  1.0155  0.1347 -0.0321
10761TIP3   OH253773   5.007   2.049  15.065 -0.1909  0.2298 -0.7473
10761TIP3    H153774   4.970   2.137  15.059 -0.1312  0.4176  1.0090
10761TIP3    H253775   5.097   2.063  15.095  0.3583 -0.3760 -2.0296
10762TIP3   OH253776   2.377   3.627   0.816 -0.2278  0.2169  0.1420
10762TIP3    H153777   2.290   3.587   0.822 -0.3646  0.5671  0.4832
10762TIP3    H253778   2.437   3.552   0.813 -0.6124 -0.0639 -1.4633
10763TIP3   OH253779   4.791   2.362   4.351 -0.1771 -0.5735 -0.0345
10763TIP3    H153780   4.738   2.312   4.413 -0.5384  0.5422  0.5839
10763TIP3    H253781   4.881   2.338   4.371 -0.3941 -2.5199 -1.1197
10764TIP3   OH253782   6.281   4.040  16.289 -0.1351  0.0891 -0.0113
10764TIP3    H153783   6.361   3.999  16.323  0.3927  1.2161  0.1712
10764TIP3    H253784   6.210   3.999  16.338  0.4100 -0.2534  0.5100
10765TIP3   OH253785   0.333   2.884  14.883 -0.4764 -0.3442  0.3178
10765TIP3    H153786   0.419   2.918  14.906  0.3101 -1.5289 -0.7506
10765TIP3    H253787   0.328   2.799  14.926 -0.0821 -1.3751 -1.5631
10766TIP3   OH253788   0.033   2.770   4.191 -0.3829  0.1979  0.3804
10766TIP3    H153789   0.004   2.815   4.111 -0.3924  0.8878  0.7610
10766TIP3    H253790   0.035   2.678   4.167  1.6739  0.5473 -1.0873
10767TIP3   OH253791   4.235   4.972  10.669  0.6328 -0.2370 -0.3280
10767TIP3    H153792   4.256   4.917  10.593  0.6340 -0.5968 -0.0736
10767TIP3    H253793   4.319   4.990  10.710  0.5518 -0.8977  0.1601
10768TIP3   OH253794   3.372   5.019  11.421 -0.0580 -0.4931 -0.0359
10768TIP3    H153795   3.291   5.042  11.375  0.3396 -0.3626 -0.6971
10768TIP3    H253796   3.415   5.103  11.437 -0.0801 -0.5575  0.3601
10769TIP3   OH253797   1.487   4.861  15.034 -0.7033 -0.0273 -0.1263
10769TIP3    H153798   1.526   4.791  15.087 -1.3077  0.3707  0.8671
10769TIP3    H253799   1.393   4.853  15.048 -0.7956  0.8334 -0.1861
10770TIP3   OH253800   3.566   3.481  12.420  0.5507 -0.0660 -0.7424
10770TIP3    H153801   3.496   3.540  12.447  0.3334 -0.8364  0.4560
10770TIP3    H253802   3.610   3.458  12.501 -0.4083 -2.8374 -0.9014
10771TIP3   OH253803   4.754   1.535  16.371  0.6724  0.0158  0.5525
10771TIP3    H153804   4.839   1.545  16.327  0.2127  1.6232 -0.0525
10771TIP3    H253805   4.710   1.619  16.356 -0.9840 -0.7485  0.9685
10772TIP3   OH253806   6.817   3.899   3.845 -0.1860 -0.0423  0.0651
10772TIP3    H153807   6.778   3.976   3.886 -1.6068  0.6546 -2.3303
10772TIP3    H253808   6.746   3.834   3.844 -0.1497 -0.0929 -1.0417
10773TIP3   OH253809   0.984   2.440   2.535 -0.1029 -0.1863  0.0502
10773TIP3    H153810   0.985   2.462   2.442  0.0980 -0.3251  0.0194
10773TIP3    H253811   0.907   2.485   2.569 -0.6649 -0.8406 -0.3514
10774TIP3   OH253812   1.438   0.640  12.959 -0.2294  0.0943 -0.6106
10774TIP3    H153813   1.489   0.713  12.925  2.9126 -0.9951  1.2915
10774TIP3    H253814   1.480   0.562  12.924 -1.0850 -0.8713  0.4134
10775TIP3   OH253815   6.146   3.526  16.751  0.0421  0.5397 -0.4494
10775TIP3    H153816   6.074   3.496  16.696 -1.8370  1.2931  1.4615
10775TIP3    H253817   6.136   3.621  16.753  1.6223  0.7385 -0.8045
10776TIP3   OH253818   0.057   3.775  16.472 -0.2562  0.6258  0.2595
10776TIP3    H153819   0.060   3.855  16.418 -1.0667  1.3759  1.2726
10776TIP3    H253820  -0.013   3.723  16.432 -0.8997  1.2085  0.5883
10777TIP3   OH253821   2.050   5.737   0.390  0.3144  0.1242 -0.0051
10777TIP3    H153822   1.997   5.673   0.437  1.0950 -0.5252  0.0046
10777TIP3    H253823   2.137   5.698   0.386  0.2559  0.0869 -2.1007
10778TIP3   OH253824   5.256   3.418   2.418 -0.3280 -0.0659  0.0495
10778TIP3    H153825   5.185   3.355   2.421  0.2659 -0.7869 -0.5895
10778TIP3    H253826   5.310   3.390   2.344 -0.2113  1.3696 -0.4317
10779TIP3   OH253827   0.211   2.849  14.636 -0.2371 -0.4045 -0.3319
10779TIP3    H153828   0.265   2.877  14.710  0.9116  1.7045 -1.8530
10779TIP3    H253829   0.225   2.755  14.630  0.8604 -0.3724  1.1797
10780TIP3   OH253830   2.109   4.462   1.945  0.3395  0.2729 -0.1750
10780TIP3    H153831   2.101   4.555   1.966 -1.6464  0.2933 -0.8672
10780TIP3    H253832   2.032   4.442   1.892 -0.1842 -2.1562  1.3269
10781TIP3   OH253833   4.632   1.439  11.849 -0.0397  0.3138 -0.2088
10781TIP3    H153834   4.555   1.406  11.803  1.3717 -1.3648 -1.4895
10781TIP3    H253835   4.653   1.520  11.804 -1.3356  1.0865  0.5061
10782TIP3   OH253836   4.520   2.763   4.000  0.0368  0.0623  0.3225
10782TIP3    H153837   4.509   2.817   4.078  0.3662  0.8530 -0.1663
10782TIP3    H253838   4.562   2.821   3.937  0.1225 -0.6839 -0.3161
10783TIP3   OH253839   1.871   4.864   3.567 -0.4130  0.0583  0.8974
10783TIP3    H153840   1.887   4.808   3.492 -1.0959 -1.1563  1.6208
10783TIP3    H253841   1.958   4.892   3.596 -0.0902 -0.3054  0.2938
10784TIP3   OH253842   2.794   3.167  14.399  0.1398 -0.1455  0.5119
10784TIP3    H153843   2.820   3.241  14.454 -1.0161  0.9775 -0.3971
10784TIP3    H253844   2.863   3.161  14.333  0.5332 -0.2656  0.9289
10785TIP3   OH253845   3.944   5.913   3.230 -0.0225  0.3259 -0.1392
10785TIP3    H153846   3.880   5.852   3.267 -0.9095  1.5469  0.4111
10785TIP3    H253847   4.029   5.874   3.250 -0.4326  0.8223  3.1354
10786TIP3   OH253848   6.337   5.865   1.829 -0.9944  0.1874 -0.7558
10786TIP3    H153849   6.353   5.851   1.922  2.1907 -2.8093 -1.5335
10786TIP3    H253850   6.383   5.947   1.809  1.4317 -0.9202 -0.1761
10787TIP3   OH253851   0.852   1.958   3.664 -0.5168  0.0138  0.1440
10787TIP3    H153852   0.932   1.993   3.625 -0.3149 -0.8405 -0.2246
10787TIP3    H253853   0.781   1.991   3.609 -0.3452 -0.0214 -0.0967
10788TIP3   OH253854   1.000   1.747   1.372 -0.4904  0.1047  0.0209
10788TIP3    H153855   1.044   1.742   1.457  1.5506  2.5898 -0.7436
10788TIP3    H253856   0.907   1.753   1.393 -0.1662 -0.9401  1.9732
10789TIP3   OH253857   1.028   2.476   0.163 -0.1083  0.3625  0.2285
10789TIP3    H153858   1.053   2.406   0.103 -1.3228  0.6776 -0.6871
10789TIP3    H253859   1.106   2.492   0.216  0.1805 -1.7032  0.4955
10790TIP3   OH253860   2.946   0.871  16.023 -0.5878  0.9876  0.0669
10790TIP3    H153861   3.039   0.849  16.019 -1.2518 -3.1231  2.0866
10790TIP3    H253862   2.944   0.967  16.020  3.8253  1.3830  1.7936
10791TIP3   OH253863   2.914   6.536   9.946 -0.6561 -0.3093  0.2713
10791TIP3    H153864   2.869   6.557   9.864 -0.2525  1.3511  0.4451
10791TIP3    H253865   2.845   6.508  10.005 -1.0084 -1.0945 -0.4869
10792TIP3   OH253866   3.288   6.334   1.511 -0.2640  0.0339 -0.4385
10792TIP3    H153867   3.272   6.246   1.475  0.4296  0.3975 -1.7102
10792TIP3    H253868   3.235   6.392   1.456 -0.9613  0.3993  0.5926
10793TIP3   OH253869   0.227   4.689  16.664  0.0533 -0.1821 -0.6000
10793TIP3    H153870   0.242   4.598  16.689  0.8466 -0.0381 -0.5443
10793TIP3    H253871   0.308   4.717  16.622 -0.0903  0.5834 -0.3895
10794TIP3   OH253872   6.078   1.072  15.188 -0.1372  0.0238  0.4944
10794TIP3    H153873   6.029   1.068  15.270 -1.1692  0.7905 -0.0494
10794TIP3    H253874   6.102   1.164  15.179 -0.0490 -0.0497 -0.0638
10795TIP3   OH253875   0.309   6.100  12.645  0.4961  0.3879  0.3962
10795TIP3    H153876   0.236   6.136  12.696  1.4595  1.7799  0.8798
10795TIP3    H253877   0.378   6.083  12.710  1.2792  0.9539 -0.2581
10796TIP3   OH253878   1.512   0.450  12.800 -0.1167  0.3604 -0.0278
10796TIP3    H153879   1.540   0.478  12.713  0.1763  0.5396  0.1214
10796TIP3    H253880   1.589   0.407  12.837  0.0827  1.1579  0.5156
10797TIP3   OH253881   3.445   6.403  10.656  0.6575  0.2349  0.6544
10797TIP3    H153882   3.445   6.309  10.637  0.1281  0.2102  0.7497
10797TIP3    H253883   3.506   6.441  10.592 -0.2968  0.0208 -0.4192
10798TIP3   OH253884   1.815   2.821   6.083 -0.0678 -0.2937 -0.6744
10798TIP3    H153885   1.798   2.772   6.164  0.6445  1.0406  0.3193
10798TIP3    H253886   1.869   2.762   6.031  0.3207 -0.7892  0.2600
10799TIP3   OH253887   5.181   0.286  12.072  0.5324  0.8572  0.4751
10799TIP3    H153888   5.141   0.203  12.046 -0.7943  1.0508  1.7523
10799TIP3    H253889   5.223   0.319  11.992 -1.0761  0.1598 -0.7094
10800TIP3   OH253890   4.832   4.455  14.445 -0.7811  0.0003  0.4821
10800TIP3    H153891   4.852   4.492  14.531 -1.0701  1.3335 -0.0011
10800TIP3    H253892   4.757   4.398  14.460 -1.3930  0.9228  0.9586
10801TIP3   OH253893   3.373   4.443  13.603 -0.5833  0.7278  0.1639
10801TIP3    H153894   3.439   4.425  13.536 -0.5862 -0.6382  0.4965
10801TIP3    H253895   3.418   4.428  13.686 -0.5223  2.5985  0.4974
10802TIP3   OH253896   6.525   4.511  15.947  0.3261  0.4242  0.0795
10802TIP3    H153897   6.579   4.590  15.942 -0.1251  0.6845 -0.9080
10802TIP3    H253898   6.495   4.509  16.038  1.5618  0.5484  0.5138
10803TIP3   OH253899   0.744   5.197   1.173  0.2454  0.2474 -0.4221
10803TIP3    H153900   0.661   5.150   1.180 -0.3680  0.8818 -2.6040
10803TIP3    H253901   0.741   5.261   1.244  0.1997 -1.5989  1.3257
10804TIP3   OH253902   0.705   1.321   4.763  0.4035  0.0545  0.1667
10804TIP3    H153903   0.681   1.307   4.854  2.5738  3.8570  1.5638
10804TIP3    H253904   0.624   1.346   4.720 -0.1936  1.1145  1.8236
10805TIP3   OH253905   3.590   4.231  16.972  0.4990  0.2082  0.6233
10805TIP3    H153906   3.633   4.302  17.021 -0.8248  1.9340 -0.5717
10805TIP3    H253907   3.532   4.276  16.910  1.0548 -1.8920 -1.5829
10806TIP3   OH253908   5.665   0.658  12.444 -0.2581  0.5761 -0.4334
10806TIP3    H153909   5.741   0.602  12.458 -0.1697  0.7092 -0.3774
10806TIP3    H253910   5.650   0.654  12.349 -1.3567 -0.9634 -0.2142
10807TIP3   OH253911   6.154   6.702   4.572 -0.0289  0.4017  0.7798
10807TIP3    H153912   6.226   6.710   4.635 -0.3371  3.1710  0.8660
10807TIP3    H253913   6.078   6.681   4.626  0.2371 -0.1370  0.9596
10808TIP3   OH253914   6.734   1.659  12.050  0.0488 -0.4299 -0.4705
10808TIP3    H153915   6.800   1.612  12.101  0.5967 -0.1837 -0.9551
10808TIP3    H253916   6.761   1.649  11.959 -0.2581  0.1733 -0.6356
10809TIP3   OH253917   5.639   1.987  15.023 -0.1985 -0.0944 -0.5486
10809TIP3    H153918   5.708   2.016  14.964 -0.4963  1.8477 -0.0073
10809TIP3    H253919   5.560   1.984  14.969  0.1978 -2.0462 -1.1008
10810TIP3   OH253920   2.061   5.881   6.221 -0.6079  0.0864 -0.0806
10810TIP3    H153921   2.063   5.841   6.309 -0.7162  0.4221  0.0761
10810TIP3    H253922   1.991   5.947   6.226 -0.7009  0.0185 -0.4599
10811TIP3   OH253923   3.101   6.613   2.674 -0.2222 -0.2944 -0.0154
10811TIP3    H153924   3.104   6.606   2.769 -0.9317 -0.7048 -0.0134
10811TIP3    H253925   3.180   6.568   2.644 -1.0699 -2.1005  0.3028
10812TIP3   OH253926   5.939   1.716   5.015  0.3305  0.3377 -0.6488
10812TIP3    H153927   5.845   1.698   5.025  0.4148  1.0393  2.3546
10812TIP3    H253928   5.943   1.780   4.944 -1.7492  1.9957  0.5951
10813TIP3   OH253929   4.331   0.540   4.356  0.1508 -0.6273 -0.7300
10813TIP3    H153930   4.352   0.626   4.318  1.1866 -1.0255 -1.0833
10813TIP3    H253931   4.303   0.487   4.281  1.2554 -1.1227 -0.8095
10814TIP3   OH253932   1.843   4.820  15.241  0.2987 -0.0731 -0.2321
10814TIP3    H153933   1.874   4.810  15.331 -0.4010  0.3899  0.0776
10814TIP3    H253934   1.748   4.809  15.248  0.1828  0.5065 -0.8263
10815TIP3   OH253935   3.453   6.296  12.920 -0.1647 -0.4145  0.3443
10815TIP3    H153936   3.478   6.388  12.923 -0.2315 -0.4197  1.5650
10815TIP3    H253937   3.530   6.249  12.951 -0.4784 -0.6835  0.7269
10816TIP3   OH253938   6.232   6.430   2.708 -0.1788  0.2629 -0.0527
10816TIP3    H153939   6.140   6.441   2.731 -0.1947  1.5697 -0.6314
10816TIP3    H253940   6.233   6.359   2.644 -0.7287 -0.0315  0.2615
10817TIP3   OH253941   5.865   4.799   1.712 -0.0866  0.0142  0.0957
10817TIP3    H153942   5.834   4.850   1.637 -0.9205  1.0687  1.1224
10817TIP3    H253943   5.802   4.727   1.719  1.3266 -1.4684 -1.6062
10818TIP3   OH253944   6.418   0.776   4.751 -0.4285  0.7920 -0.1656
10818TIP3    H153945   6.511   0.763   4.767 -0.1426  3.1313  0.5287
10818TIP3    H253946   6.413   0.809   4.661 -0.1262  3.7833  0.7942
10819TIP3   OH253947   4.370   2.100   2.802  0.6209  0.2145 -0.4219
10819TIP3    H153948   4.320   2.046   2.864  1.0259 -0.2371 -0.4867
10819TIP3    H253949   4.380   2.184   2.847  1.3888 -0.2789  0.3757
10820TIP3   OH253950   4.855   2.652   1.289 -1.0683  0.5243  0.5721
10820TIP3    H153951   4.791   2.582   1.303 -0.8852  0.4778  1.1830
10820TIP3    H253952   4.807   2.732   1.308 -1.6334  0.6822 -1.2808
10821TIP3   OH253953   3.155   2.410  12.515  0.0397  0.4721  0.5365
10821TIP3    H153954   3.192   2.378  12.432  0.2596  0.5962  0.5844
10821TIP3    H253955   3.226   2.398  12.578  0.6530  2.3717  0.2675
10822TIP3   OH253956   5.298   6.260   1.259  0.4268 -0.2851 -0.2636
10822TIP3    H153957   5.205   6.250   1.281 -0.3980 -1.3241 -3.5648
10822TIP3    H253958   5.304   6.349   1.224  0.4921 -0.4736 -0.7356
10823TIP3   OH253959   1.070   4.113  12.988 -0.4213  0.1679 -0.2465
10823TIP3    H153960   1.133   4.183  12.969  0.1365 -0.2614  0.0095
10823TIP3    H253961   1.106   4.069  13.065 -1.1450  0.0468  0.0268
10824TIP3   OH253962   0.181   1.572  11.304  0.2355 -0.7774 -0.3784
10824TIP3    H153963   0.143   1.538  11.223  1.6357  1.0411 -1.8747
10824TIP3    H253964   0.276   1.559  11.293  0.6377  1.5681 -0.0986
10825TIP3   OH253965   3.737   1.288   1.810  0.1868  0.0060  0.3486
10825TIP3    H153966   3.642   1.300   1.805 -0.2021 -2.9418 -1.8402
10825TIP3    H253967   3.772   1.377   1.807 -2.4326  1.1820 -3.4615
10826TIP3   OH253968   5.160   0.682  13.443 -0.0268 -0.0527 -0.4724
10826TIP3    H153969   5.140   0.714  13.355 -0.4388 -0.3513 -0.4880
10826TIP3    H253970   5.175   0.762  13.494 -1.2853  0.1938 -0.4555
10827TIP3   OH253971   0.562   0.329  12.142  0.1054 -1.0963  0.1912
10827TIP3    H153972   0.509   0.401  12.108  0.0301 -1.4580 -0.4639
10827TIP3    H253973   0.608   0.367  12.217  2.9565  0.7738 -2.2621
10828TIP3   OH253974   2.608   3.393   5.445 -0.3232  0.0370  0.0857
10828TIP3    H153975   2.582   3.320   5.500 -0.3519 -1.6959 -2.1015
10828TIP3    H253976   2.685   3.430   5.488  1.2276 -2.8739  0.0128
10829TIP3   OH253977   3.149   0.280  11.132  0.3013 -0.9891 -0.1126
10829TIP3    H153978   3.103   0.350  11.179 -1.9946 -1.1354 -1.9582
10829TIP3    H253979   3.240   0.308  11.133 -0.3242  1.3323  0.4334
10830TIP3   OH253980   1.420   5.870  13.230 -0.2703 -0.1386 -0.1768
10830TIP3    H153981   1.470   5.940  13.188  0.4113 -0.2491  0.4235
10830TIP3    H253982   1.421   5.799  13.166 -0.2681  0.1116 -0.4590
10831TIP3   OH253983   5.054   0.714  14.384  0.0717  0.7994 -0.6001
10831TIP3    H153984   5.046   0.745  14.294 -0.8697 -1.2026 -1.2530
10831TIP3    H253985   5.128   0.653  14.381 -1.3102 -0.9655 -0.5841
10832TIP3   OH253986   1.584   4.648   4.542 -0.7608 -0.3499  0.0187
10832TIP3    H153987   1.561   4.740   4.554  0.3960 -0.0682  0.2766
10832TIP3    H253988   1.604   4.640   4.449  1.5751  0.3187  0.3755
10833TIP3   OH253989   1.113   2.222  13.369 -0.1915  0.0194  0.2552
10833TIP3    H153990   1.106   2.132  13.401 -0.6437 -0.3194 -0.7640
10833TIP3    H253991   1.185   2.260  13.419 -0.0805 -0.8718  0.7842
10834TIP3   OH253992   5.554   0.518  15.463 -0.2391  0.1410  0.0244
10834TIP3    H153993   5.516   0.590  15.513  1.5856  1.4391 -0.3640
10834TIP3    H253994   5.628   0.488  15.515 -1.6173 -2.3353  0.7555
10835TIP3   OH253995   3.391   3.503   4.002 -0.2215  0.1857 -0.6937
10835TIP3    H153996   3.375   3.548   3.919  1.2306  0.2545 -0.9654
10835TIP3    H253997   3.355   3.562   4.069 -1.0108  0.3314 -1.2350
10836TIP3   OH253998   0.163   6.655  15.895 -0.1477  0.7101  0.2195
10836TIP3    H153999   0.171   6.687  15.805 -1.7648  0.2256 -0.1322
10836TIP3    H254000   0.078   6.611  15.897  0.7146 -0.9749  1.4833
10837TIP3   OH254001   5.116   4.670  11.568  0.0055  0.1068  0.5531
10837TIP3    H154002   5.117   4.765  11.565  1.6421  0.1098 -1.4647
10837TIP3    H254003   5.207   4.645  11.587 -0.3306 -1.0409  0.7512
10838TIP3   OH254004   5.593   2.719  15.587 -0.8063  0.2286  0.5067
10838TIP3    H154005   5.597   2.627  15.613  0.5817 -0.1697 -0.9199
10838TIP3    H254006   5.669   2.759  15.629 -0.2597  0.2466 -0.4698
10839TIP3   OH254007   6.812   0.392  11.917 -0.2577  0.2946 -0.1515
10839TIP3    H154008   6.718   0.373  11.917 -0.0538 -0.7737 -0.6943
10839TIP3    H254009   6.818   0.483  11.888 -1.2024  0.8757  1.3498
10840TIP3   OH254010   6.037   1.267   2.202 -0.1218  0.5962 -0.5549
10840TIP3    H154011   6.044   1.203   2.131 -0.2796  0.4616 -0.4523
10840TIP3    H254012   6.127   1.280   2.232 -0.2776 -1.5981  1.1775
10841TIP3   OH254013   5.459   3.321  14.664 -0.6087  0.1462 -0.0239
10841TIP3    H154014   5.473   3.227  14.659 -0.0810  0.2259 -0.1149
10841TIP3    H254015   5.456   3.340  14.758  1.2356  0.3058  0.0324
10842TIP3   OH254016   5.878   0.631   3.914  0.6122  0.1681  0.0594
10842TIP3    H154017   5.962   0.677   3.910  1.0831 -0.7343 -1.0195
10842TIP3    H254018   5.888   0.568   3.986  1.4039 -0.8934 -0.9331
10843TIP3   OH254019   4.602   0.765  15.137  0.1871 -0.0971  0.2804
10843TIP3    H154020   4.672   0.744  15.198 -0.3136 -1.2210  0.5062
10843TIP3    H254021   4.643   0.762  15.050  0.3873 -0.9738  0.3926
10844TIP3   OH254022   1.485   0.959  14.944 -0.5186  0.9057  0.1755
10844TIP3    H154023   1.538   1.006  15.008 -1.0468  0.2441  1.1200
10844TIP3    H254024   1.428   0.903  14.997 -0.8525  0.2279 -0.8824
10845TIP3   OH254025   3.556   2.772  14.837 -0.1189  0.4032 -0.7040
10845TIP3    H154026   3.630   2.798  14.782 -0.1714  0.6881 -0.6401
10845TIP3    H254027   3.569   2.679  14.852  0.3908  0.5175 -0.4437
10846TIP3   OH254028   2.213   3.672   4.113  0.5944  0.7818 -0.2421
10846TIP3    H154029   2.187   3.725   4.188 -1.3648 -3.4056  2.4472
10846TIP3    H254030   2.145   3.686   4.048 -0.7476  0.4549  1.0466
10847TIP3   OH254031   0.119   0.875  15.359  0.1473 -0.7791 -0.0907
10847TIP3    H154032   0.195   0.858  15.304  1.0532 -1.6545  1.3906
10847TIP3    H254033   0.149   0.859  15.448 -1.0946  1.2295  0.7606
10848TIP3   OH254034   0.470   1.236  15.324  0.0915 -0.4564 -0.1410
10848TIP3    H154035   0.407   1.166  15.306  0.2557 -0.4977 -0.5840
10848TIP3    H254036   0.454   1.261  15.415 -0.0909 -0.9467 -0.0355
10849TIP3   OH254037   0.012   6.648  14.953  0.6384  0.2558 -0.2866
10849TIP3    H154038   0.083   6.704  14.983  2.0858 -1.7733  0.2958
10849TIP3    H254039  -0.003   6.587  15.025 -1.3589  0.2607 -0.6197
10850TIP3   OH254040   4.432   3.715  16.128 -0.5666  0.1630 -0.0363
10850TIP3    H154041   4.452   3.670  16.046 -0.4904 -2.4426  1.3101
10850TIP3    H254042   4.507   3.697  16.184 -0.8503  1.4729  0.8057
10851TIP3   OH254043   4.137   1.801   0.186  0.2409 -0.4467  0.4086
10851TIP3    H154044   4.094   1.738   0.244  1.2409 -0.0286  1.6467
10851TIP3    H254045   4.220   1.760   0.163 -0.6114 -1.1115 -1.7197
10852TIP3   OH254046   1.079   0.095   2.876 -0.5845  0.5807 -0.0553
10852TIP3    H154047   1.022   0.090   2.952  0.3082  0.7574  0.6479
10852TIP3    H254048   1.093   0.189   2.863 -1.2859  0.5748 -0.8627
10853TIP3   OH254049   0.702   4.573   6.038  0.0660  0.0719 -0.2305
10853TIP3    H154050   0.718   4.651   6.090  0.9612 -0.7055  0.7176
10853TIP3    H254051   0.761   4.507   6.075 -1.9206 -1.5764  0.1802
10854TIP3   OH254052   0.281   1.167   1.696  0.2667  0.7786 -0.1174
10854TIP3    H154053   0.213   1.115   1.655 -1.0690  2.0414  0.4321
10854TIP3    H254054   0.311   1.226   1.628 -1.1202  2.0661  0.3460
10855TIP3   OH254055   0.753   4.007   5.744 -0.3590  0.3321 -0.7853
10855TIP3    H154056   0.812   3.996   5.669 -0.0442 -0.1672 -0.4711
10855TIP3    H254057   0.811   4.019   5.818 -0.6764  1.9318 -0.7702
10856TIP3   OH254058   3.921   6.205  16.607 -0.0235 -0.4348  0.0084
10856TIP3    H154059   4.013   6.208  16.633 -0.2695  0.0095  0.8325
10856TIP3    H254060   3.924   6.200  16.511  0.8545 -0.5815  0.0339
10857TIP3   OH254061   2.544   5.405  15.656 -0.1792  0.1641 -0.4825
10857TIP3    H154062   2.533   5.485  15.605 -0.7758 -0.7241 -1.8263
10857TIP3    H254063   2.539   5.433  15.747  1.7282  1.9472 -0.8341
10858TIP3   OH254064   6.725   3.532  13.461 -0.3144  0.1576 -0.1993
10858TIP3    H154065   6.809   3.573  13.443 -0.8404  1.4531  0.1229
10858TIP3    H254066   6.746   3.455  13.515  0.6003  1.0050  0.6893
10859TIP3   OH254067   3.685   4.041  13.252 -0.3706  0.1798  0.4538
10859TIP3    H154068   3.609   4.041  13.195 -0.1481 -3.6169 -0.1286
10859TIP3    H254069   3.758   4.016  13.195  0.5970  0.0908  1.6875
10860TIP3   OH254070   6.267   2.643   2.595  0.3600  0.2052  0.4078
10860TIP3    H154071   6.300   2.730   2.574  1.9840  0.0708  2.0863
10860TIP3    H254072   6.173   2.647   2.577  0.6603  1.8095 -0.9776
10861TIP3   OH254073   3.818   0.897   3.933 -0.1438  0.3515  0.7860
10861TIP3    H154074   3.742   0.939   3.894 -0.0728  1.2586  1.6049
10861TIP3    H254075   3.832   0.819   3.879 -0.7707  0.9320 -0.2486
10862TIP3   OH254076   4.035   2.764  15.430  0.7854 -0.5690 -0.3877
10862TIP3    H154077   3.954   2.720  15.457  2.6450 -3.0292  1.6165
10862TIP3    H254078   4.044   2.742  15.337 -1.1993  0.4732 -0.8879
10863TIP3   OH254079   6.252   0.665   3.667  0.4204 -0.5391  0.4157
10863TIP3    H154080   6.333   0.687   3.621 -0.1862 -0.0132 -0.4490
10863TIP3    H254081   6.182   0.693   3.607 -0.4249  0.8457  1.9405
10864TIP3   OH254082   2.349   1.340   5.187  0.5059 -0.3064 -0.1968
10864TIP3    H154083   2.282   1.393   5.144  0.2603 -1.1891 -0.9201
10864TIP3    H254084   2.406   1.310   5.117  1.9183  0.7541  0.4551
10865TIP3   OH254085   3.085   5.106   2.543 -0.4258  0.0053  0.2194
10865TIP3    H154086   3.100   5.183   2.488  0.6669 -0.0581  0.4053
10865TIP3    H254087   3.021   5.055   2.494  0.2192  0.1472 -0.8221
10866TIP3   OH254088   6.341   1.086  16.036 -0.0762 -0.0304 -0.5389
10866TIP3    H154089   6.290   1.008  16.014 -0.5935 -0.1048  0.8438
10866TIP3    H254090   6.287   1.134  16.098  1.7078 -0.3606  1.3728
10867TIP3   OH254091   3.465   1.337  12.737  0.4794  0.1868  0.2500
10867TIP3    H154092   3.401   1.266  12.729  0.0356  0.5367  0.6804
10867TIP3    H254093   3.439   1.401  12.672  0.2712  0.4190  0.5588
10868TIP3   OH254094   2.221   0.664   1.146  0.0133  0.1994  0.1473
10868TIP3    H154095   2.230   0.752   1.182  1.1482  0.2482 -0.2195
10868TIP3    H254096   2.242   0.674   1.053 -1.3575 -0.1995 -0.2194
10869TIP3   OH254097   2.979   3.045  16.879  0.4225  0.2066  0.0798
10869TIP3    H154098   2.934   3.016  16.959  0.3682 -0.1666 -0.0871
10869TIP3    H254099   3.072   3.039  16.900  0.4322 -0.7688 -0.1877
10870TIP3   OH254100   1.377   5.628  10.541 -0.1787 -0.1975  0.3564
10870TIP3    H154101   1.393   5.565  10.471  1.3520 -0.0253  0.5076
10870TIP3    H254102   1.404   5.582  10.621  0.4846  0.4722  0.5234
10871TIP3   OH254103   0.740   4.644   2.545  0.0302 -0.5132 -0.8284
10871TIP3    H154104   0.670   4.580   2.530  1.0125 -1.8705  0.2019
10871TIP3    H254105   0.718   4.684   2.629  0.8876 -1.5173 -0.1067
10872TIP3   OH254106   2.781   0.314  11.985 -0.3498 -0.0246  0.5801
10872TIP3    H154107   2.831   0.390  12.013  0.5439 -0.6953  0.8257
10872TIP3    H254108   2.834   0.239  12.011 -1.2751 -0.7418  0.4501
10873TIP3   OH254109   4.927   3.697  14.238 -0.3378 -0.1952  0.1399
10873TIP3    H154110   4.880   3.766  14.191 -1.3899  0.2284  1.7373
10873TIP3    H254111   5.019   3.709  14.213 -0.2678  2.7286  1.4301
10874TIP3   OH254112   1.508   1.003   4.886 -0.3223 -0.4089  0.2632
10874TIP3    H154113   1.579   0.961   4.934 -2.3923 -2.0278  2.1293
10874TIP3    H254114   1.524   0.980   4.795  2.1859  0.3677  0.4264
10875TIP3   OH254115   5.593   6.166   2.732 -0.1383  0.5220 -0.1163
10875TIP3    H154116   5.584   6.095   2.669 -3.4547  0.1380  0.6066
10875TIP3    H254117   5.687   6.171   2.749  0.3910 -2.5877 -1.4036
10876TIP3   OH254118   4.831   1.680   4.546  0.7542 -0.1702  0.4520
10876TIP3    H154119   4.802   1.738   4.616 -0.8176  0.4198 -0.6286
10876TIP3    H254120   4.766   1.609   4.545  0.7518 -0.1666 -0.4060
10877TIP3   OH254121   4.428   2.937   2.902  0.5336  0.4833  0.4746
10877TIP3    H154122   4.445   3.028   2.881 -0.7176  0.4437 -0.8331
10877TIP3    H254123   4.333   2.929   2.902  0.6236 -0.9103  0.1521
10878TIP3   OH254124   6.416   4.926  16.239  0.2928 -0.5048  0.0598
10878TIP3    H154125   6.344   4.863  16.230  0.5396 -0.5970 -1.5286
10878TIP3    H254126   6.485   4.891  16.184  1.5648 -0.3745  1.5149
10879TIP3   OH254127   4.423   5.330   1.471  0.2716  0.0752  0.1206
10879TIP3    H154128   4.373   5.252   1.496 -0.6458 -0.0447 -1.8868
10879TIP3    H254129   4.384   5.400   1.524 -1.2022 -0.2475 -0.4839
10880TIP3   OH254130   2.392   2.317  12.855 -0.2744  0.1534  0.2141
10880TIP3    H154131   2.324   2.263  12.896  1.1691 -1.0399  1.1866
10880TIP3    H254132   2.408   2.275  12.771 -2.0934  1.6348 -0.9394
10881TIP3   OH254133   6.549   1.653   3.468  0.1928 -0.1555 -0.0513
10881TIP3    H154134   6.466   1.607   3.459  0.9585 -1.4049 -1.0315
10881TIP3    H254135   6.615   1.588   3.447  1.4167  0.9381  0.2644
10882TIP3   OH254136   4.279   5.031   3.157 -0.7408  0.3243 -0.0316
10882TIP3    H154137   4.348   4.964   3.158 -1.2640 -0.2492 -0.9123
10882TIP3    H254138   4.285   5.073   3.242 -2.1310 -2.5938  1.6475
10883TIP3   OH254139   3.572   5.311  15.827  0.5858  0.7067 -0.3254
10883TIP3    H154140   3.523   5.325  15.908 -0.5587 -2.3549 -0.3752
10883TIP3    H254141   3.656   5.274  15.855  0.7283  0.8960 -0.4936
10884TIP3   OH254142   1.228   3.492  15.914 -0.4171  0.1100  0.3846
10884TIP3    H154143   1.215   3.425  15.847  1.3672 -0.6001  0.7035
10884TIP3    H254144   1.239   3.443  15.995  0.7896  0.7773  0.6371
10885TIP3   OH254145   6.482   2.469  13.516  0.2526 -0.2903 -0.0662
10885TIP3    H154146   6.386   2.477  13.520  0.0025 -2.0394 -1.2602
10885TIP3    H254147   6.506   2.519  13.438  0.4436  0.9313  0.7590
10886TIP3   OH254148   5.897   4.758   0.644  0.7217  0.5120  0.0295
10886TIP3    H154149   5.839   4.797   0.578  0.0821  1.5086  1.1341
10886TIP3    H254150   5.843   4.689   0.684 -0.2180  2.1891  1.8494
10887TIP3   OH254151   2.726   1.459   1.251  0.4116 -0.3537  0.4551
10887TIP3    H154152   2.774   1.529   1.296 -2.4851  1.0894  1.5044
10887TIP3    H254153   2.679   1.505   1.181  0.1639 -1.6438 -0.2444
10888TIP3   OH254154   4.794   3.729  11.217 -0.4021 -0.0232 -0.0285
10888TIP3    H154155   4.717   3.757  11.167 -1.1077  0.2341  1.1545
10888TIP3    H254156   4.818   3.807  11.267 -0.6131 -0.6853  1.1240
10889TIP3   OH254157   3.108   0.765   1.058 -0.0131 -1.0388  0.1283
10889TIP3    H154158   3.068   0.779   0.972  1.4569 -0.0666 -0.4421
10889TIP3    H254159   3.137   0.674   1.057  0.9797 -0.7385 -0.8759
10890TIP3   OH254160   3.507   6.645  15.912 -0.0557  0.5034  0.1519
10890TIP3    H154161   3.524   6.668  16.003 -0.1478  0.2459  0.2333
10890TIP3    H254162   3.420   6.606  15.913 -0.4919  1.4177 -0.1931
10891TIP3   OH254163   5.380   6.688   3.864 -0.2405 -0.3425 -0.8040
10891TIP3    H154164   5.306   6.636   3.831 -1.3579  1.5115 -1.3966
10891TIP3    H254165   5.389   6.759   3.800  0.1068  1.1447  0.8268
10892TIP3   OH254166   1.106   3.904  14.173 -0.0527 -0.3419  0.1631
10892TIP3    H154167   1.102   3.818  14.214  2.3827 -0.9429 -0.6865
10892TIP3    H254168   1.060   3.893  14.089  0.9957 -1.1044 -0.3334
10893TIP3   OH254169   1.199   4.846  12.636  0.4220 -0.2263  0.3236
10893TIP3    H154170   1.131   4.783  12.659  0.5719 -0.2385  0.7335
10893TIP3    H254171   1.153   4.930  12.630  0.1275 -0.4443 -0.7167
10894TIP3   OH254172   4.991   2.645  11.546  0.3892  0.6658  0.0240
10894TIP3    H154173   4.899   2.619  11.548  0.6704 -0.3589  0.0407
10894TIP3    H254174   5.029   2.610  11.627  0.7561  1.2651  0.1270
10895TIP3   OH254175   4.144   4.233   2.161 -0.5169  0.3404 -0.2369
10895TIP3    H154176   4.060   4.228   2.205 -0.2512 -1.5249  0.1542
10895TIP3    H254177   4.162   4.143   2.134  1.6137  0.5782  0.1926
10896TIP3   OH254178   4.157   2.982   1.638 -0.2675 -0.2761  0.3780
10896TIP3    H154179   4.089   2.940   1.585  0.1855 -0.7698  0.1787
10896TIP3    H254180   4.223   3.008   1.574 -0.8297  1.3385  0.4159
10897TIP3   OH254181   4.747   3.253   0.563 -0.2682  0.2303  0.3170
10897TIP3    H154182   4.696   3.234   0.642 -0.7504 -0.0738 -0.0605
10897TIP3    H254183   4.768   3.168   0.525  0.1384  0.3678  0.2265
10898TIP3   OH254184   0.160   4.807  16.274 -0.2025 -0.1406 -0.7464
10898TIP3    H154185   0.241   4.858  16.272  0.1291 -0.6650 -0.7046
10898TIP3    H254186   0.176   4.740  16.341 -0.0561 -1.2811 -1.9030
10899TIP3   OH254187   4.927   4.994  13.885  0.2857  0.2965  0.2829
10899TIP3    H154188   4.914   5.074  13.937 -1.0208  0.8614 -0.8464
10899TIP3    H254189   4.839   4.972  13.853  0.8385 -0.8334 -0.5100
10900TIP3   OH254190   0.145   3.954  13.043  0.5469 -0.6061 -0.3353
10900TIP3    H154191   0.161   3.887  12.976 -0.2603 -1.8978  0.7007
10900TIP3    H254192   0.078   4.011  13.005  1.6891  0.0319 -1.4815
10901TIP3   OH254193   2.716   3.317   4.186 -0.8972 -0.1703 -0.1486
10901TIP3    H154194   2.779   3.387   4.196  0.6759 -1.5503  0.0228
10901TIP3    H254195   2.694   3.317   4.093  0.2974 -0.4332 -0.4427
10902TIP3   OH254196   2.217   4.923  15.500  0.0514  0.4745  0.3896
10902TIP3    H154197   2.296   4.875  15.525 -0.5476 -0.8517 -0.2142
10902TIP3    H254198   2.150   4.856  15.488 -1.1214  1.5596  0.6412
10903TIP3   OH254199   3.414   2.677   2.476  0.6164  0.0928  0.0740
10903TIP3    H154200   3.427   2.642   2.564  1.8201  0.8971  0.2484
10903TIP3    H254201   3.391   2.601   2.422  0.2137 -0.4601  0.9998
10904TIP3   OH254202   3.851   0.458  12.378 -0.6533 -0.8678  0.1023
10904TIP3    H154203   3.801   0.526  12.424 -0.5806 -0.5025 -0.3547
10904TIP3    H254204   3.873   0.395  12.446  1.0052  0.5503  0.9837
10905TIP3   OH254205   0.834   2.845   0.116 -0.5322  0.0083 -0.3295
10905TIP3    H154206   0.918   2.891   0.105  0.1924 -0.6468  1.7896
10905TIP3    H254207   0.769   2.905   0.082  0.7662  0.7218 -1.6451
10906TIP3   OH254208   4.664   4.735  15.009 -0.4977 -0.2347  0.5849
10906TIP3    H154209   4.735   4.672  14.998  0.6449  1.0597  0.3547
10906TIP3    H254210   4.606   4.718  14.935  0.8770  0.3289 -0.6701
10907TIP3   OH254211   4.737   0.070   1.521 -0.1330  0.3905  0.1901
10907TIP3    H154212   4.777   0.037   1.602 -0.4220  1.4488  0.7914
10907TIP3    H254213   4.761   0.163   1.519  0.2280  0.2826 -1.1739
10908TIP3   OH254214   3.727   4.342  10.855  0.1565  0.7829  0.1341
10908TIP3    H154215   3.751   4.433  10.875 -0.5828  0.8488  0.7810
10908TIP3    H254216   3.647   4.350  10.802  0.6152  0.5282 -0.6140
10909TIP3   OH254217   6.777   5.043  11.857 -0.3234 -0.9205 -0.1886
10909TIP3    H154218   6.855   5.088  11.890 -0.1590 -1.2685 -0.1045
10909TIP3    H254219   6.804   5.006  11.773 -0.0687 -1.9819  0.3457
10910TIP3   OH254220   2.523   3.321  15.216 -0.1955  0.2665  0.2766
10910TIP3    H154221   2.518   3.230  15.187 -1.8807 -0.2660  2.0221
10910TIP3    H254222   2.449   3.331  15.276  0.7777  2.4057  1.2222
10911TIP3   OH254223   6.129   4.271  15.503  0.1297  0.1599 -0.9421
10911TIP3    H154224   6.071   4.228  15.440  2.0212  0.3737 -2.9218
10911TIP3    H254225   6.134   4.210  15.576 -2.1606 -0.0762 -0.9177
10912TIP3   OH254226   5.596   4.326  15.591 -0.2047  0.0003  0.0099
10912TIP3    H154227   5.592   4.281  15.507 -4.7364 -2.2836  1.1591
10912TIP3    H254228   5.665   4.281  15.640  2.7261  1.5740 -2.3452
10913TIP3   OH254229   0.047   6.295  15.045 -0.4195 -0.3715  0.3109
10913TIP3    H154230   0.016   6.218  15.093 -1.6664 -0.0448  0.0686
10913TIP3    H254231  -0.023   6.360  15.056 -0.4390 -0.0562 -1.3917
10914TIP3   OH254232   2.579   0.257   4.528 -0.6013 -0.3722  0.3371
10914TIP3    H154233   2.673   0.245   4.539 -0.9956 -1.1895  4.3725
10914TIP3    H254234   2.569   0.349   4.502  1.3125  1.1164  4.0681
10915TIP3   OH254235   4.755   4.421  15.430 -0.2331 -0.4670  0.4559
10915TIP3    H154236   4.691   4.383  15.371 -0.8282  0.0797  0.7431
10915TIP3    H254237   4.756   4.362  15.506 -0.0818 -0.7012  0.2763
10916TIP3   OH254238   5.027   5.639  10.672 -0.3297 -0.1703  0.0815
10916TIP3    H154239   4.958   5.683  10.722  0.3874  0.3336  0.6396
10916TIP3    H254240   5.108   5.669  10.711  0.2559  0.1592 -1.3442
10917TIP3   OH254241   4.668   0.656   2.715  0.4493 -0.4565 -0.3843
10917TIP3    H154242   4.592   0.640   2.659  0.6090  1.8523 -1.3567
10917TIP3    H254243   4.635   0.712   2.785  1.0875 -0.0695 -0.3877
10918TIP3   OH254244   5.723   4.511  11.354 -0.1453 -0.0057  0.2402
10918TIP3    H154245   5.763   4.461  11.425  0.8759 -1.0718 -1.0424
10918TIP3    H254246   5.797   4.537  11.299 -0.9473  0.5263 -0.6084
10919TIP3   OH254247   4.494   1.544   1.646 -1.1166  0.0576 -0.1517
10919TIP3    H154248   4.550   1.501   1.711  0.4582 -0.3618 -1.7193
10919TIP3    H254249   4.446   1.472   1.604 -2.8794  0.4102  1.1471
10920TIP3   OH254250   0.241   1.327   5.953 -0.1849 -0.2780 -0.3772
10920TIP3    H154251   0.183   1.401   5.970  1.4087  1.0945 -0.6082
10920TIP3    H254252   0.184   1.251   5.955 -1.7190  0.8248  1.0261
10921TIP3   OH254253   1.194   2.587  17.075  0.5643 -0.0378 -0.4079
10921TIP3    H154254   1.103   2.615  17.087 -0.3995 -2.9535 -0.2115
10921TIP3    H254255   1.198   2.556  16.985  0.1579 -3.5084  0.6061
10922TIP3   OH254256   0.275   5.698  11.280  0.3708 -0.0004  0.8038
10922TIP3    H154257   0.211   5.678  11.348  0.0766  0.0035  0.5284
10922TIP3    H254258   0.248   5.646  11.205 -0.4791  1.4760  0.0404
10923TIP3   OH254259   2.171   6.820   1.306  0.2377 -0.3976 -0.5243
10923TIP3    H154260   2.090   6.820   1.357  2.0466 -0.0909  2.6333
10923TIP3    H254261   2.191   6.913   1.292  1.0615 -0.3826  0.5999
10924TIP3   OH254262   5.193   4.168  14.755  0.0937  0.1925  0.3381
10924TIP3    H154263   5.126   4.108  14.788 -1.5073  2.1417  0.8429
10924TIP3    H254264   5.202   4.144  14.663 -0.7748 -0.5925  0.4374
10925TIP3   OH254265   1.851   3.056  13.358 -0.6082  0.2034 -0.0340
10925TIP3    H154266   1.898   2.981  13.395 -0.0223  0.1311 -0.8987
10925TIP3    H254267   1.884   3.063  13.268  0.8529  2.7298  0.6106
10926TIP3   OH254268   5.858   4.434   2.834 -0.1663 -0.0115 -0.4145
10926TIP3    H154269   5.871   4.353   2.882  0.3451  0.1227 -0.3183
10926TIP3    H254270   5.818   4.494   2.898  0.7684  0.2557 -0.0546
10927TIP3   OH254271   5.437   4.180   3.606 -0.9506 -0.6712 -0.2210
10927TIP3    H154272   5.443   4.273   3.585 -0.2420 -0.2628  1.6082
10927TIP3    H254273   5.408   4.178   3.698 -0.2463 -2.2270  0.0001
10928TIP3   OH254274   3.190   6.684   4.306  0.3256  0.3400 -0.5334
10928TIP3    H154275   3.214   6.662   4.396  0.5716  0.0621 -0.6667
10928TIP3    H254276   3.094   6.683   4.307  0.3275 -0.2073 -0.4036
10929TIP3   OH254277   3.877   2.174  11.005  0.3895 -0.2461 -0.3333
10929TIP3    H154278   3.824   2.113  11.056 -0.0925 -0.4752 -1.0983
10929TIP3    H254279   3.947   2.201  11.065 -0.0559 -0.6577  0.3801
10930TIP3   OH254280   3.416   2.111   1.537 -0.5643  0.1234 -0.4208
10930TIP3    H154281   3.349   2.130   1.603 -0.2611 -0.2014 -0.0176
10930TIP3    H254282   3.368   2.109   1.454 -1.3125 -1.5524  0.0164
10931TIP3   OH254283   5.106   3.280  15.937 -0.0907  0.6817  0.0505
10931TIP3    H154284   5.036   3.215  15.947  0.4047  0.1845  0.3362
10931TIP3    H254285   5.186   3.232  15.959  0.4047  1.0932 -0.8009
10932TIP3   OH254286   3.859   1.172  14.070  0.8346  0.3692 -0.4108
10932TIP3    H154287   3.923   1.103  14.086 -0.7513 -1.5588 -1.9104
10932TIP3    H254288   3.909   1.241  14.026  2.7194  0.8508  2.2644
10933TIP3   OH254289   3.029   1.896   6.657 -0.1403 -0.3444  0.0292
10933TIP3    H154290   2.939   1.906   6.688 -0.4849 -1.1903 -0.6357
10933TIP3    H254291   3.069   1.982   6.670 -0.3438 -0.5612  2.4622
10934TIP3   OH254292   0.548   3.716  13.509 -0.1977  0.4755  0.3148
10934TIP3    H154293   0.622   3.763  13.549 -0.5441  1.7001 -0.4137
10934TIP3    H254294   0.545   3.632  13.554  1.5835  0.4421  0.4254
10935TIP3   OH254295   1.803   5.092  15.973 -0.2700  0.0660  0.4325
10935TIP3    H154296   1.795   5.100  16.068  1.5352  2.0403  0.4787
10935TIP3    H254297   1.878   5.146  15.950 -1.4561  0.7277 -2.2912
10936TIP3   OH254298   3.525   0.294   5.539 -1.1417  0.0352 -0.4843
10936TIP3    H154299   3.587   0.366   5.539  0.5183 -1.2328  1.9588
10936TIP3    H254300   3.479   0.301   5.456 -0.4217  3.3105 -0.7392
10937TIP3   OH254301   0.727   0.976  11.184 -0.4552 -0.2746 -0.3400
10937TIP3    H154302   0.767   0.991  11.270 -1.2540 -0.6122  0.1048
10937TIP3    H254303   0.799   0.986  11.122 -0.0408  0.8588  0.2945
10938TIP3   OH254304   2.519   2.238  13.151 -0.4611 -0.4246  0.0854
10938TIP3    H154305   2.494   2.295  13.078 -2.8543  0.6808  1.6211
10938TIP3    H254306   2.456   2.166  13.148  0.9982 -1.7406 -0.3636
10939TIP3   OH254307   5.605   3.552  16.424  0.0131  0.2356  0.0828
10939TIP3    H154308   5.529   3.604  16.397 -0.9228 -0.6877  0.8323
10939TIP3    H254309   5.608   3.480  16.361 -2.4205 -2.1515  2.4095
10940TIP3   OH254310   6.087   6.810   4.820  0.5418 -0.1547 -0.4662
10940TIP3    H154311   6.117   6.814   4.911  3.4638 -0.2084 -1.3104
10940TIP3    H254312   6.103   6.898   4.786 -1.6268  0.2000 -0.6815
10941TIP3   OH254313   3.961   4.843   5.671  0.5341 -0.0227  0.6975
10941TIP3    H154314   3.957   4.932   5.636  0.8693 -0.6906 -1.1176
10941TIP3    H254315   4.049   4.835   5.707  0.7067  0.2025  0.3291
10942TIP3   OH254316   4.554   2.015   3.166 -0.6623  0.0773 -0.8688
10942TIP3    H154317   4.568   1.999   3.073 -0.1989  0.9173 -0.9584
10942TIP3    H254318   4.602   2.096   3.183 -1.0512  0.1274  0.0211
10943TIP3   OH254319   2.690   4.781   2.218  0.0875 -0.1291  0.0892
10943TIP3    H154320   2.676   4.692   2.251  1.0628  0.1341  1.2937
10943TIP3    H254321   2.687   4.836   2.296 -0.2887  0.8833 -0.6174
10944TIP3   OH254322   2.129   3.093  12.550 -0.0443 -0.4118 -0.4884
10944TIP3    H154323   2.174   3.106  12.634  0.6635  1.3108 -1.0868
10944TIP3    H254324   2.149   3.003  12.526  1.3134 -0.3543  0.3114
10945TIP3   OH254325   4.984   2.403  16.059 -0.2011  0.0871 -0.3422
10945TIP3    H154326   4.966   2.450  15.978 -0.7835 -0.4057 -0.5110
10945TIP3    H254327   4.952   2.314  16.043  0.3280 -0.2073  0.1796
10946TIP3   OH254328   6.233   4.061  14.068  0.4242  0.4888 -0.6186
10946TIP3    H154329   6.153   4.077  14.119 -1.0630 -2.2046 -1.9119
10946TIP3    H254330   6.304   4.071  14.131 -0.9435  2.3246  0.7289
10947TIP3   OH254331   2.755   0.948   6.399  0.1820 -0.2793  0.0138
10947TIP3    H154332   2.842   0.987   6.390 -0.6542  2.5399  2.4569
10947TIP3    H254333   2.771   0.861   6.436  1.9751  0.1621  0.3655
10948TIP3   OH254334   2.327   1.887   2.742  0.2476 -0.1718 -0.3558
10948TIP3    H154335   2.323   1.792   2.741  0.4317 -0.2211  1.0003
10948TIP3    H254336   2.377   1.911   2.665 -0.6557 -1.1112 -1.2631
10949TIP3   OH254337   2.799   1.621   3.108  0.0900  0.1195 -0.1168
10949TIP3    H154338   2.763   1.604   3.195 -0.7845 -0.3026 -0.5478
10949TIP3    H254339   2.724   1.615   3.049  0.7240  0.0769 -0.9419
10950TIP3   OH254340   0.186   0.645   0.752  0.3272 -0.1047 -0.8444
10950TIP3    H154341   0.280   0.660   0.742  0.1672  1.6201 -0.2050
10950TIP3    H254342   0.148   0.733   0.754 -1.4055 -0.7602 -1.8954
10951TIP3   OH254343   3.008   0.174   3.817  0.0295  0.0096  0.1148
10951TIP3    H154344   2.913   0.180   3.829  0.1255  2.9721  0.2099
10951TIP3    H254345   3.021   0.176   3.723  0.0128  1.9345  0.1186
10952TIP3   OH254346   2.900   6.724   2.306 -0.3559  0.2186 -0.0571
10952TIP3    H154347   2.890   6.783   2.231  0.1808  0.6184  0.1752
10952TIP3    H254348   2.956   6.773   2.367 -0.8509 -0.0675  0.6335
10953TIP3   OH254349   2.710   3.917   4.499  0.2898  0.0610  0.0203
10953TIP3    H154350   2.731   3.847   4.438  0.2380  0.3381 -0.3165
10953TIP3    H254351   2.625   3.893   4.535  0.1612  0.0707 -0.2746
10954TIP3   OH254352   3.516   5.772   1.528 -0.2394 -0.2449 -0.5881
10954TIP3    H154353   3.459   5.826   1.473 -0.3684  0.0755 -0.1400
10954TIP3    H254354   3.589   5.749   1.471 -0.6557 -0.3944 -1.0742
10955TIP3   OH254355   2.019   4.104  16.313  0.2671 -0.0085  0.2266
10955TIP3    H154356   2.098   4.150  16.342 -0.4552  0.7867  1.0106
10955TIP3    H254357   1.979   4.071  16.393  0.5858 -1.7587 -0.2960
10956TIP3   OH254358   3.985   4.763   4.566 -0.7183 -0.1565  0.0217
10956TIP3    H154359   3.954   4.769   4.656 -0.1095  0.1222  0.2167
10956TIP3    H254360   3.993   4.669   4.549  0.2039 -0.1971  0.6227
10957TIP3   OH254361   0.567   0.308   4.337  0.3418  0.3660 -0.8923
10957TIP3    H154362   0.550   0.304   4.431  1.0632 -0.5758 -0.7867
10957TIP3    H254363   0.497   0.363   4.302 -0.7440 -0.4196 -0.0040
10958TIP3   OH254364   2.662   0.560  13.162 -0.0828 -0.6243  0.2603
10958TIP3    H154365   2.621   0.594  13.082 -1.4426 -1.3697  0.6207
10958TIP3    H254366   2.696   0.638  13.206  1.1028 -0.2257 -1.2256
10959TIP3   OH254367   4.977   5.922   6.901 -0.3090  0.2907 -0.5706
10959TIP3    H154368   5.004   6.013   6.888 -0.3231  0.4279  0.3070
10959TIP3    H254369   4.909   5.908   6.835 -1.9300  1.6304  0.7077
10960TIP3   OH254370   3.617   2.982   0.368 -0.5248 -0.0225 -0.0362
10960TIP3    H154371   3.571   3.018   0.444 -0.2864 -0.3677  0.2725
10960TIP3    H254372   3.653   2.899   0.398  0.8258  0.5072 -0.0752
10961TIP3   OH254373   4.491   1.773   2.901 -0.4383  0.5307 -0.2400
10961TIP3    H154374   4.400   1.796   2.923 -0.4082  0.8960 -0.4888
10961TIP3    H254375   4.527   1.853   2.864  0.1712  0.5618  0.4095
10962TIP3   OH254376   0.196   4.302  14.470  0.2506  0.2747  0.4764
10962TIP3    H154377   0.254   4.227  14.461 -1.1363 -0.7802  0.1118
10962TIP3    H254378   0.161   4.316  14.382  0.7496  1.5842  0.4598
10963TIP3   OH254379   2.100   2.973   1.807  0.1635  0.0714 -0.0721
10963TIP3    H154380   2.038   2.950   1.737  0.1202  0.6129 -0.2108
10963TIP3    H254381   2.054   2.949   1.888  1.1525 -2.9095 -0.2766
10964TIP3   OH254382   2.655   2.957   0.693 -0.0619 -0.5007 -0.2536
10964TIP3    H154383   2.596   2.883   0.702 -1.2034  0.6293  2.2847
10964TIP3    H254384   2.691   2.971   0.780  0.6512  1.5240 -0.8113
10965TIP3   OH254385   1.544   5.874   2.251  0.5788 -0.7529 -0.1908
10965TIP3    H154386   1.541   5.796   2.306 -3.5851  0.7827  2.2189
10965TIP3    H254387   1.499   5.849   2.170  1.3014 -1.3968 -0.4023
10966TIP3   OH254388   3.696   1.627   5.265 -1.2411  0.4437 -0.8127
10966TIP3    H154389   3.697   1.695   5.333 -0.1844  0.1212 -0.4812
10966TIP3    H254390   3.673   1.547   5.312 -1.5861  0.4095 -1.0385
10967TIP3   OH254391   3.510   2.544   2.676 -0.2486 -0.1270 -0.2098
10967TIP3    H154392   3.496   2.469   2.734 -0.3747  0.6419  0.7727
10967TIP3    H254393   3.584   2.517   2.620 -0.6430 -1.1862 -0.2483
10968TIP3   OH254394   3.821   5.381  15.151  0.3627 -0.2043  0.1268
10968TIP3    H154395   3.805   5.430  15.231  0.8769 -2.2818  1.5761
10968TIP3    H254396   3.892   5.428  15.107  0.5480  0.5713  1.2379
10969TIP3   OH254397   6.389   4.440   2.290 -0.2577  0.2902 -0.0099
10969TIP3    H154398   6.448   4.453   2.215 -3.0047  0.2540 -2.3285
10969TIP3    H254399   6.417   4.357   2.328  2.2113  1.0745  0.0937
10970TIP3   OH254400   3.587   1.068   2.439 -0.4685  0.2479  0.6294
10970TIP3    H154401   3.679   1.064   2.413 -1.3859 -1.3559 -2.9594
10970TIP3    H254402   3.557   1.154   2.409 -0.5634  0.0300  0.0954
10971TIP3   OH254403   5.939   6.471  11.146  0.1275  0.2186  0.8798
10971TIP3    H154404   6.016   6.440  11.193  0.8620 -1.4039 -1.2353
10971TIP3    H254405   5.973   6.532  11.080 -0.5476  0.5355  0.8166
10972TIP3   OH254406   6.388   0.421   3.039 -0.0600 -0.0937  0.0177
10972TIP3    H154407   6.425   0.335   3.020 -0.2759  0.2913 -2.5869
10972TIP3    H254408   6.461   0.473   3.071  0.6296 -0.6270 -0.6413
10973TIP3   OH254409   4.329   0.446  14.872  0.1939 -0.0017  0.9415
10973TIP3    H154410   4.309   0.372  14.816  1.1539  0.2673  0.2206
10973TIP3    H254411   4.382   0.410  14.943  0.7968  0.0219  0.5025
10974TIP3   OH254412   3.188   4.067   2.293  0.3444 -0.3390 -0.6062
10974TIP3    H154413   3.226   4.144   2.249 -0.5454  0.7543  0.4551
10974TIP3    H254414   3.188   4.090   2.386  0.4929 -1.8457 -0.2095
10975TIP3   OH254415   1.253   1.540   5.649  0.2481  0.5482 -0.5643
10975TIP3    H154416   1.251   1.590   5.568  0.2751 -0.4952 -1.2325
10975TIP3    H254417   1.181   1.477   5.641 -1.8198  2.4558  1.6132
10976TIP3   OH254418   3.060   0.515  15.925 -0.5200 -0.3782  0.3201
10976TIP3    H154419   3.109   0.585  15.881 -0.0294  0.0111  1.4601
10976TIP3    H254420   3.090   0.518  16.016  2.2284 -4.4044 -0.2207
10977TIP3   OH254421   2.335   4.624   2.261  0.3226  0.1318  0.1682
10977TIP3    H154422   2.249   4.641   2.224  0.6764 -1.3744 -1.5076
10977TIP3    H254423   2.396   4.665   2.200  0.8295  0.4406  0.8699
10978TIP3   OH254424   2.546   3.783  17.141 -0.4181 -0.1729 -0.6045
10978TIP3    H154425   2.610   3.720  17.176  0.4220 -0.4971 -2.5992
10978TIP3    H254426   2.574   3.867  17.177  1.6486 -0.1900 -1.9579
10979TIP3   OH254427   5.429   4.657  13.090 -0.0771 -0.0623  0.2933
10979TIP3    H154428   5.381   4.640  13.009 -0.9259 -0.4551  0.8672
10979TIP3    H254429   5.412   4.581  13.145  0.1153  0.4029  1.0149
10980TIP3   OH254430   5.118   6.333  16.200 -0.7824  0.0300 -0.2045
10980TIP3    H154431   5.064   6.355  16.124  0.4141  0.2992 -1.0109
10980TIP3    H254432   5.192   6.394  16.194  0.2208 -1.1261  0.1777
10981TIP3   OH254433   3.312   2.671  12.128 -0.0091  0.3095  0.4066
10981TIP3    H154434   3.400   2.706  12.138 -0.0021  1.1484 -2.0109
10981TIP3    H254435   3.324   2.578  12.109  0.3009  0.2468  0.9059
10982TIP3   OH254436   0.575   5.911   6.683  0.2312  0.0605 -0.4157
10982TIP3    H154437   0.590   5.854   6.759  1.8817 -0.4046 -1.0383
10982TIP3    H254438   0.497   5.874   6.641 -0.1671 -0.2267  0.5457
10983TIP3   OH254439   6.726   1.411  13.644 -0.3670  0.4338 -0.0357
10983TIP3    H154440   6.778   1.474  13.695  0.3494 -1.8911  2.3410
10983TIP3    H254441   6.655   1.386  13.702 -0.5424 -1.0287 -0.8393
10984TIP3   OH254442   1.755   1.732  13.868  0.3084  0.1294 -0.2202
10984TIP3    H154443   1.831   1.772  13.826  1.8200 -1.4915  0.8728
10984TIP3    H254444   1.708   1.806  13.907  0.3733  1.3470 -2.2791
10985TIP3   OH254445   5.183   0.998  16.116 -0.1888  0.6070  0.4600
10985TIP3    H154446   5.096   1.003  16.155 -0.8140 -0.5656 -0.6638
10985TIP3    H254447   5.190   1.077  16.062 -1.3518 -0.1387 -0.8736
10986TIP3   OH254448   5.016   0.475  13.559  0.0140 -0.2254 -0.3363
10986TIP3    H154449   5.027   0.492  13.653  0.0845 -3.1846  0.2899
10986TIP3    H254450   5.088   0.521  13.517  1.4684 -0.8524  1.3558
10987TIP3   OH254451   2.921   6.244   3.398  0.2102  0.7542  0.1217
10987TIP3    H154452   3.016   6.231   3.400  0.2218 -0.7712 -3.1804
10987TIP3    H254453   2.886   6.178   3.459  1.2088 -0.4191 -0.5350
10988TIP3   OH254454   3.395   0.593  12.515 -0.0089 -0.0770 -0.1836
10988TIP3    H154455   3.390   0.638  12.599  0.4529 -0.7083  0.1841
10988TIP3    H254456   3.437   0.657  12.457  1.3636 -0.2880  0.5345
10989TIP3   OH254457   1.701   6.075  15.385 -0.3853 -0.1372 -0.0015
10989TIP3    H154458   1.731   6.002  15.440 -2.2427 -0.7409  0.2874
10989TIP3    H254459   1.637   6.035  15.326 -2.2719  1.4083  0.8844
10990TIP3   OH254460   6.715   3.440  16.757 -0.0768  0.8766  0.6681
10990TIP3    H154461   6.746   3.380  16.825 -0.9973 -0.1560  0.1895
10990TIP3    H254462   6.793   3.491  16.734  0.1398  1.6853  2.9103
10991TIP3   OH254463   5.881   4.349  13.177 -0.0147 -0.7362 -0.6305
10991TIP3    H154464   5.891   4.358  13.083  0.9483  0.4930 -0.4431
10991TIP3    H254465   5.865   4.439  13.208  0.0473 -1.0695  0.4047
10992TIP3   OH254466   2.329   6.170  11.438 -0.0717  0.2713  0.1890
10992TIP3    H154467   2.380   6.172  11.357 -2.0459  1.4294 -1.0772
10992TIP3    H254468   2.393   6.191  11.506  1.3104  0.9310 -1.2452
10993TIP3   OH254469   2.539   1.126   6.515  0.7652  0.3505  0.2322
10993TIP3    H154470   2.527   1.117   6.420 -2.0621 -1.9037  0.6524
10993TIP3    H254471   2.598   1.053   6.538 -1.2895 -1.3247  0.5109
10994TIP3   OH254472   1.053   4.688   0.807 -0.2983 -0.7461 -0.2714
10994TIP3    H154473   1.108   4.766   0.813 -1.9864  0.4367  0.4800
10994TIP3    H254474   0.998   4.703   0.730 -0.8157 -1.0558  0.0319
10995TIP3   OH254475   4.406   0.061  16.705 -0.4962  0.0693 -0.4272
10995TIP3    H154476   4.456   0.118  16.646 -0.5438  0.4518 -0.1039
10995TIP3    H254477   4.371   0.120  16.772 -0.8018 -0.2984 -0.2583
10996TIP3   OH254478   6.063   3.027   1.356  0.7038  0.1480  0.0633
10996TIP3    H154479   6.088   2.942   1.394  1.6029  0.6096  0.5338
10996TIP3    H254480   6.020   3.073   1.428  0.7049  0.3031 -0.0363
10997TIP3   OH254481   2.428   4.830   3.298 -0.7492 -0.3733 -0.9022
10997TIP3    H154482   2.514   4.850   3.334 -1.4550  0.1388  0.5779
10997TIP3    H254483   2.436   4.847   3.204  0.8954 -0.8381 -0.8663
10998TIP3   OH254484   0.356   1.022   1.124  0.2287 -0.1830 -0.1582
10998TIP3    H154485   0.269   1.000   1.090  0.4505 -1.7633  0.2349
10998TIP3    H254486   0.407   1.043   1.047 -0.1510 -0.5343 -0.5128
10999TIP3   OH254487   1.710   2.461  14.026  0.0286 -0.4562 -0.1753
10999TIP3    H154488   1.648   2.532  14.041  0.1153 -0.5800  0.8497
10999TIP3    H254489   1.685   2.394  14.089 -0.7734 -1.8411 -1.8893
11000TIP3   OH254490   1.740   4.423  17.208 -1.1199  0.4851 -0.0943
11000TIP3    H154491   1.757   4.429  17.114 -0.2903  0.2872  0.0319
11000TIP3    H254492   1.749   4.512  17.240 -0.8793  0.4714 -0.1219
11001TIP3   OH254493   5.747   1.688  15.360  0.8601  0.1859  0.9247
11001TIP3    H154494   5.718   1.598  15.376  0.4310  0.1266 -0.1703
11001TIP3    H254495   5.775   1.689  15.269 -1.8351  1.8401 -0.0007
11002TIP3   OH254496   0.361   5.553  16.581  0.9817 -0.3729  0.0047
11002TIP3    H154497   0.324   5.616  16.519  2.0445  1.3817  1.0724
11002TIP3    H254498   0.364   5.470  16.532 -1.1661  0.1651 -1.2006
11003TIP3   OH254499   6.662   5.192  16.919 -0.6041 -0.5723 -0.3364
11003TIP3    H154500   6.697   5.235  16.841  0.3136 -0.4825  0.1116
11003TIP3    H254501   6.608   5.258  16.962  0.6492  0.0861  0.2490
11004TIP3   OH254502   0.848   0.596  15.716 -0.5270  1.0179  0.0999
11004TIP3    H154503   0.906   0.664  15.684  0.6013  0.8091  1.6485
11004TIP3    H254504   0.796   0.638  15.784 -2.5221  1.3052 -1.5017
11005TIP3   OH254505   6.093   3.579  11.389 -0.3654  0.0368 -0.3466
11005TIP3    H154506   6.008   3.608  11.356 -0.1914  0.2081 -0.6416
11005TIP3    H254507   6.072   3.529  11.468 -0.7285  0.2225 -0.3256
11006TIP3   OH254508   2.577   3.437  11.474  0.2169  0.0327 -0.2266
11006TIP3    H154509   2.513   3.443  11.545  1.5522  0.6040  0.9685
11006TIP3    H254510   2.552   3.508  11.414 -1.4861 -1.0438 -0.8576
11007TIP3   OH254511   0.381   3.298  13.001 -0.1542 -0.3874  0.2196
11007TIP3    H154512   0.373   3.345  13.084 -1.8214 -3.3001  1.8598
11007TIP3    H254513   0.313   3.338  12.945  0.4380  1.0499  0.4726
11008TIP3   OH254514   5.489   1.061  12.709 -0.2664 -0.0221 -0.2445
11008TIP3    H154515   5.406   1.033  12.672 -1.2778  0.3286  1.6382
11008TIP3    H254516   5.555   1.006  12.665 -1.2891  0.5409 -2.6676
11009TIP3   OH254517   4.422   4.707   5.488  0.2908 -0.1493 -0.3684
11009TIP3    H154518   4.451   4.659   5.411 -0.2776 -1.1364  0.0162
11009TIP3    H254519   4.479   4.785   5.491  0.3461 -0.1179 -1.7393
11010TIP3   OH254520   1.662   6.365   1.692 -0.1815  0.6687 -0.0346
11010TIP3    H154521   1.757   6.372   1.683 -0.0295 -1.1206 -0.1054
11010TIP3    H254522   1.650   6.316   1.774 -0.9235 -1.7130 -1.4962
11011TIP3   OH254523   3.049   1.584  16.538  0.2043 -0.5269  0.3744
11011TIP3    H154524   3.075   1.503  16.496 -1.9313 -0.9351 -0.2766
11011TIP3    H254525   2.965   1.607  16.498 -0.3793  0.7644  2.1630
11012TIP3   OH254526   5.245   5.791   0.376  0.0829  0.7368  0.2774
11012TIP3    H154527   5.182   5.824   0.312 -0.8418 -2.0332 -0.3544
11012TIP3    H254528   5.321   5.764   0.323 -1.3591 -3.2038 -0.0676
11013TIP3   OH254529   2.793   6.380   5.919  0.1923 -0.4696  0.5104
11013TIP3    H154530   2.887   6.379   5.937  0.1273 -0.2539  0.8662
11013TIP3    H254531   2.753   6.341   5.996  0.1269 -2.5731 -0.5204
11014TIP3   OH254532   5.010   5.938  11.477  0.6917  0.1632  0.1579
11014TIP3    H154533   5.024   5.981  11.392  1.7950  1.9487  1.1914
11014TIP3    H254534   5.082   5.875  11.485 -0.5257 -1.4787 -1.0420
11015TIP3   OH254535   3.515   6.799  13.558 -0.2093  0.2781 -0.5675
11015TIP3    H154536   3.422   6.810  13.539 -0.0473  1.8438 -0.6373
11015TIP3    H254537   3.520   6.786  13.652 -0.4786  0.4731 -0.5269
11016TIP3   OH254538   0.598   5.261   5.519 -0.0903 -0.7146 -0.1199
11016TIP3    H154539   0.634   5.275   5.432 -1.3323  0.3717 -0.4801
11016TIP3    H254540   0.583   5.349   5.553 -1.7570 -1.1257  0.2775
11017TIP3   OH254541   0.906   2.050   1.609 -0.3654 -0.0453 -0.6457
11017TIP3    H154542   0.900   2.027   1.517 -3.1002 -1.7157 -0.1577
11017TIP3    H254543   0.826   2.099   1.627  0.5637  1.0755  0.6563
11018TIP3   OH254544   6.426   1.722   4.049  0.2319 -0.7092  0.0480
11018TIP3    H154545   6.387   1.689   4.130  1.0947  0.2961  0.9090
11018TIP3    H254546   6.517   1.694   4.054  0.4044 -0.2308 -0.3264
11019TIP3   OH254547   2.837   4.868  15.146 -0.4547  0.4815 -0.1347
11019TIP3    H154548   2.754   4.901  15.180  0.5623  1.4674  1.4971
11019TIP3    H254549   2.904   4.923  15.186  1.0366 -0.5164 -1.1229
11020TIP3   OH254550   4.270   3.168   4.497  0.1379  0.3752 -0.8209
11020TIP3    H154551   4.352   3.144   4.454  0.1099  0.8407 -1.1439
11020TIP3    H254552   4.220   3.087   4.501 -0.0832  0.4320 -2.1650
11021TIP3   OH254553   4.327   2.177  15.242 -0.0239  0.4747 -0.7199
11021TIP3    H154554   4.407   2.153  15.289  0.1575  0.7272 -0.8935
11021TIP3    H254555   4.301   2.098  15.196 -0.5688  0.0339  0.3271
11022TIP3   OH254556   5.411   2.752   5.057  0.2654  0.3228  0.0276
11022TIP3    H154557   5.355   2.830   5.063 -0.7494 -0.4567  1.1041
11022TIP3    H254558   5.440   2.735   5.146  0.0456 -0.8251 -0.0960
11023TIP3   OH254559   5.731   6.613   4.972 -0.4415  0.1109  0.2343
11023TIP3    H154560   5.748   6.650   4.885  0.4417  0.0510  0.3693
11023TIP3    H254561   5.670   6.675   5.013  1.8740  2.1198  0.8830
11024TIP3   OH254562   2.854   2.967   1.662  0.2882 -0.2566  0.4302
11024TIP3    H154563   2.763   2.949   1.684  0.4855 -0.0680  1.4476
11024TIP3    H254564   2.889   3.013   1.738  1.0368  0.3366 -0.2439
11025TIP3   OH254565   2.936   5.957   2.655 -0.2914 -0.3285  0.3596
11025TIP3    H154566   2.968   5.885   2.709 -0.0088 -0.1193  0.4674
11025TIP3    H254567   3.013   6.009   2.634 -0.5241  0.0525  0.4361
11026TIP3   OH254568   1.102   3.941   5.750  0.5514  0.4610  0.1659
11026TIP3    H154569   1.148   3.858   5.766  1.3154  0.9239  0.4242
11026TIP3    H254570   1.170   4.000   5.718  0.1035  1.1252  0.4261
11027TIP3   OH254571   0.587   6.428   1.437 -0.2070  0.5569  0.1995
11027TIP3    H154572   0.559   6.338   1.449 -1.2895  0.8468 -0.0478
11027TIP3    H254573   0.672   6.421   1.393 -0.2157 -0.3313  0.3060
11028TIP3   OH254574   0.109   3.999   2.287 -0.1541 -0.4741  0.0772
11028TIP3    H154575   0.069   3.917   2.259  0.7322 -0.6010 -0.8414
11028TIP3    H254576   0.200   3.993   2.259 -0.0297  0.7495  0.1618
11029TIP3   OH254577   4.567   0.933  12.569 -0.0750 -0.5044  0.0325
11029TIP3    H154578   4.588   0.988  12.645 -2.2177 -0.1849  0.4568
11029TIP3    H254579   4.600   0.983  12.494 -0.9716  0.8704  0.4985
11030TIP3   OH254580   0.312   3.784   6.398 -0.1557  0.0975 -0.0960
11030TIP3    H154581   0.230   3.808   6.355 -1.6350 -2.5733  1.0097
11030TIP3    H254582   0.315   3.688   6.393  2.1299  0.0194  1.2870
11031TIP3   OH254583   0.043   3.962  12.177  0.4706 -0.3886 -0.3452
11031TIP3    H154584   0.012   4.032  12.235  0.5380 -0.3610 -0.3421
11031TIP3    H254585   0.107   3.914  12.229 -1.4836 -2.1232  0.6179
11032TIP3   OH254586   2.193   2.384  14.499  0.0403 -0.0342  0.4128
11032TIP3    H154587   2.230   2.411  14.583 -0.6390  1.7256  0.1947
11032TIP3    H254588   2.262   2.401  14.435  0.2262 -0.4809  0.4933
11033TIP3   OH254589   5.367   2.031   0.442 -0.4083  0.2274 -0.4898
11033TIP3    H154590   5.444   2.026   0.385  0.7197 -0.0483  0.9999
11033TIP3    H254591   5.400   2.072   0.522 -2.1455  1.4006 -0.3369
11034TIP3   OH254592   6.638   0.678   5.424 -0.2304 -0.5488  0.2884
11034TIP3    H154593   6.670   0.733   5.496 -1.0659  1.8507 -1.0502
11034TIP3    H254594   6.703   0.608   5.417  1.8616  1.1755  1.0569
11035TIP3   OH254595   3.859   6.440  10.185  0.1715 -0.1346  0.3984
11035TIP3    H154596   3.945   6.482  10.186  0.5927 -0.9832  0.2268
11035TIP3    H254597   3.800   6.507  10.220  0.9971  0.2400  1.1107
11036TIP3   OH254598   2.614   3.529  12.931 -0.1716 -0.1959  0.1288
11036TIP3    H154599   2.569   3.573  12.859  0.1487 -1.9958 -1.2824
11036TIP3    H254600   2.703   3.565  12.929  0.3251 -1.3576 -1.5381
11037TIP3   OH254601   0.365   3.550   0.309 -0.1681  0.0736  0.3028
11037TIP3    H154602   0.382   3.571   0.217 -0.2619 -1.6240 -0.1321
11037TIP3    H254603   0.429   3.482   0.330 -0.8183 -0.2781  1.1827
11038TIP3   OH254604   2.984   0.621   1.319  0.0772  0.0357  0.1407
11038TIP3    H154605   2.911   0.634   1.259  1.4109 -0.6214 -1.7180
11038TIP3    H254606   3.043   0.694   1.303  0.6769 -0.3998  0.2997
11039TIP3   OH254607   1.852   5.971  14.700 -0.0851  0.1304  0.1180
11039TIP3    H154608   1.758   5.986  14.685 -0.0176  0.6543  0.2244
11039TIP3    H254609   1.885   5.944  14.614 -0.3987 -0.3939  0.1583
11040TIP3   OH254610   4.181   1.575  13.879  0.0429  0.1735  0.2540
11040TIP3    H154611   4.241   1.507  13.911 -1.3080 -1.7908 -1.1624
11040TIP3    H254612   4.111   1.577  13.944 -1.3387 -1.9004 -1.0490
11041TIP3   OH254613   6.632   3.324   2.638  0.1565 -0.2740 -0.1689
11041TIP3    H154614   6.566   3.283   2.582  1.3435 -0.2604 -1.6331
11041TIP3    H254615   6.711   3.272   2.624  0.9617  0.8609  0.0402
11042TIP3   OH254616   4.739   3.186  16.302  0.4830 -0.6099  0.0585
11042TIP3    H154617   4.745   3.105  16.353  0.4668 -1.1779 -0.8173
11042TIP3    H254618   4.695   3.160  16.221 -2.6378  0.9200  1.0763
11043TIP3   OH254619   1.795   6.649   3.971 -0.3218  0.4079 -0.3338
11043TIP3    H154620   1.817   6.712   3.903 -1.2784 -1.7905 -2.8432
11043TIP3    H254621   1.822   6.565   3.935  0.4056 -0.7470  2.6515
11044TIP3   OH254622   5.610   4.166  14.551  0.0118 -0.0459 -0.1952
11044TIP3    H154623   5.596   4.073  14.564 -0.2974  0.1468  0.9697
11044TIP3    H254624   5.704   4.174  14.533  0.4914 -0.3879  1.8986
11045TIP3   OH254625   3.783   3.432   1.249 -0.1850 -0.4701 -0.1880
11045TIP3    H154626   3.719   3.382   1.198  0.4769  0.0851 -1.5995
11045TIP3    H254627   3.868   3.398   1.221  0.2094  0.0799  0.3141
11046TIP3   OH254628   3.628   6.745  17.011 -0.1300 -0.2600  0.0023
11046TIP3    H154629   3.580   6.786  16.940 -0.3908  0.2424  0.4566
11046TIP3    H254630   3.698   6.808  17.032  1.9308 -1.7761 -1.8704
11047TIP3   OH254631   2.708   1.853  10.937 -0.1382  0.8111 -0.0059
11047TIP3    H154632   2.766   1.928  10.922 -0.2601  0.9864  0.4171
11047TIP3    H254633   2.627   1.876  10.892 -0.0005  0.7132 -0.3073
11048TIP3   OH254634   6.494   1.673  15.723 -0.1701 -0.9921 -0.3823
11048TIP3    H154635   6.551   1.750  15.729 -1.7300  0.1241  1.1927
11048TIP3    H254636   6.541   1.605  15.771  0.6716 -0.6502 -0.7024
11049TIP3   OH254637   6.255   4.192   3.744  0.0978  0.0009 -0.2819
11049TIP3    H154638   6.275   4.099   3.737 -1.6470 -0.3709 -0.8679
11049TIP3    H254639   6.340   4.236   3.738  1.1321 -1.5906  1.5967
11050TIP3   OH254640   6.322   5.464   5.561  0.5656 -0.4195  0.3747
11050TIP3    H154641   6.260   5.405   5.518 -0.0898 -0.7299  1.6885
11050TIP3    H254642   6.400   5.410   5.574  1.0422 -0.1086 -1.0377
11051TIP3   OH254643   0.925   6.111  10.813  0.5499 -0.5126  0.7655
11051TIP3    H154644   0.999   6.167  10.787  0.3324 -0.5592  0.0149
11051TIP3    H254645   0.915   6.127  10.907  0.4236  0.8088  0.5520
11052TIP3   OH254646   1.087   2.613   4.985  0.2269 -0.1435 -0.7387
11052TIP3    H154647   1.017   2.585   5.045 -0.9721  1.3102 -1.4024
11052TIP3    H254648   1.085   2.549   4.915  0.4260 -0.8320 -0.1313
11053TIP3   OH254649   1.257   0.350  15.118 -0.0222  0.1996 -0.2953
11053TIP3    H154650   1.167   0.378  15.104 -0.1093  0.4754  0.7757
11053TIP3    H254651   1.301   0.427  15.154  0.4801 -0.1358 -0.1783
11054TIP3   OH254652   5.364   3.404   4.046 -0.0292 -0.1362  0.3629
11054TIP3    H154653   5.439   3.401   3.986  0.1766  1.1424  0.5127
11054TIP3    H254654   5.393   3.461   4.118 -0.6786 -0.7086  1.1066
11055TIP3   OH254655   6.238   6.025   0.008 -0.1085  0.1216 -0.0675
11055TIP3    H154656   6.162   6.027  -0.050 -0.2171 -1.4594 -0.0156
11055TIP3    H254657   6.307   6.069  -0.041 -0.7093  0.4672 -0.6195
11056TIP3   OH254658   4.696   1.483   1.841  0.0787  0.5579 -0.4430
11056TIP3    H154659   4.705   1.387   1.845  2.2617  0.6038 -2.0711
11056TIP3    H254660   4.737   1.514   1.922  0.5458  0.1276 -0.5052
11057TIP3   OH254661   4.245   3.950   1.149  0.4445 -0.0964 -0.3020
11057TIP3    H154662   4.322   3.920   1.198  1.1766 -0.1080 -1.4170
11057TIP3    H254663   4.208   4.021   1.202  1.4382  0.1503  0.0728
11058TIP3   OH254664   4.828   3.150  11.649  0.2072  0.1781 -0.2336
11058TIP3    H154665   4.813   3.241  11.620  2.5234  0.5535 -0.4747
11058TIP3    H254666   4.902   3.121  11.596 -1.7716 -2.6485 -1.6879
11059TIP3   OH254667   4.962   0.821   2.692  0.0692 -0.3063 -0.6364
11059TIP3    H154668   5.048   0.794   2.725 -0.6256 -2.2668 -0.2724
11059TIP3    H254669   4.901   0.763   2.737 -1.1942 -1.0367 -3.1418
11060TIP3   OH254670   6.677   1.214   0.794  1.2652 -0.3139  0.3578
11060TIP3    H154671   6.726   1.264   0.729  1.5810 -1.2934 -0.1764
11060TIP3    H254672   6.607   1.273   0.822  1.2920  0.2249 -0.6751
11061TIP3   OH254673   3.393   5.624  14.200  0.2473  0.5356 -0.0931
11061TIP3    H154674   3.429   5.578  14.276  2.5996 -1.3774 -2.1933
11061TIP3    H254675   3.337   5.693  14.238 -1.2948 -2.2430  3.3011
11062TIP3   OH254676   4.647   5.291   4.831  0.1969 -0.0818 -0.1768
11062TIP3    H154677   4.595   5.330   4.761  0.3808  1.8273  0.6925
11062TIP3    H254678   4.703   5.227   4.786 -0.6202  0.1407 -1.5719
11063TIP3   OH254679   5.601   1.950  15.290  0.0935  0.0247 -0.5670
11063TIP3    H154680   5.660   1.882  15.324  0.5032 -0.6325 -2.4760
11063TIP3    H254681   5.633   1.967  15.202 -0.8764  1.7167 -0.6184
11064TIP3   OH254682   5.636   1.030  12.342 -0.3412 -0.0771  0.5604
11064TIP3    H154683   5.541   1.035  12.332 -0.5499  1.5260  2.6464
11064TIP3    H254684   5.649   0.972  12.418  0.4725 -1.7389 -0.7942
11065TIP3   OH254685   2.913   0.080  16.504 -0.1218 -0.0161  0.4023
11065TIP3    H154686   2.879   0.129  16.430  0.5958  1.5633  1.0851
11065TIP3    H254687   3.002   0.113  16.517  0.4779 -1.6734  0.7463
11066TIP3   OH254688   5.116   4.482  14.358  0.4142  0.4322  0.2665
11066TIP3    H154689   5.119   4.491  14.262  0.6251  0.6490  0.2917
11066TIP3    H254690   5.042   4.425  14.374 -0.1918  1.1369  0.0211
11067TIP3   OH254691   1.588   2.807  16.120  0.3122  0.4495 -0.1796
11067TIP3    H154692   1.504   2.853  16.116 -0.3688 -0.8569 -2.7135
11067TIP3    H254693   1.652   2.870  16.088 -0.1460  0.5654 -0.8655
11068TIP3   OH254694   1.890   3.463   6.321  0.1098  0.1102  0.5083
11068TIP3    H154695   1.872   3.552   6.353  0.2427  0.5365 -0.5617
11068TIP3    H254696   1.985   3.455   6.325  0.3318  0.9508 -1.6898
11069TIP3   OH254697   4.600   5.654   4.036  0.5673 -0.5091  0.0376
11069TIP3    H154698   4.610   5.589   3.966  1.2874 -1.4237  0.9560
11069TIP3    H254699   4.621   5.606   4.116 -1.8512  0.0615  1.1016
11070TIP3   OH254700   5.949   1.236  15.588 -0.4579  0.0330 -0.0670
11070TIP3    H154701   6.031   1.243  15.538 -0.6376 -2.6878 -0.9172
11070TIP3    H254702   5.885   1.205  15.525 -1.6832  0.2862  1.0187
11071TIP3   OH254703   1.082   4.125  15.479 -0.6721  0.4373 -0.1219
11071TIP3    H154704   1.151   4.180  15.443  0.0952  0.2907  1.0568
11071TIP3    H254705   1.107   4.036  15.456 -0.3664  0.3714  0.4400
11072TIP3   OH254706   0.552   6.646  12.006  0.1584  0.3360 -0.6929
11072TIP3    H154707   0.541   6.677  11.916  1.0229  0.5221 -0.7476
11072TIP3    H254708   0.535   6.723  12.060 -0.5247  0.1838 -0.6808
11073TIP3   OH254709   0.390   5.353  16.386 -0.2603 -0.1982 -0.4042
11073TIP3    H154710   0.372   5.260  16.399 -2.9713  0.1654 -1.0124
11073TIP3    H254711   0.414   5.360  16.294  0.2226 -0.3148 -0.2902
11074TIP3   OH254712   4.916   2.820  12.314  0.1006 -0.6209 -0.2816
11074TIP3    H154713   4.990   2.766  12.286  0.2635 -0.8712  0.5969
11074TIP3    H254714   4.895   2.787  12.402  0.3579  0.8998  0.3782
11075TIP3   OH254715   3.762   6.584  15.781  0.1219 -0.0484 -0.0644
11075TIP3    H154716   3.788   6.667  15.821 -0.1636 -1.0160  2.2835
11075TIP3    H254717   3.679   6.563  15.823  0.0071 -1.3316 -0.9095
11076TIP3   OH254718   0.428   2.619   2.403 -0.3793 -0.7714  0.5058
11076TIP3    H154719   0.417   2.559   2.329  1.4724 -0.8467  0.2436
11076TIP3    H254720   0.358   2.683   2.392 -1.4203 -1.9721 -0.1081
11077TIP3   OH254721   2.481   0.065  11.061  0.2017 -0.3254 -0.0692
11077TIP3    H154722   2.537   0.008  11.114  1.0000 -0.0558 -0.6001
11077TIP3    H254723   2.422   0.006  11.016 -1.0330 -0.5226  1.6920
11078TIP3   OH254724   6.086   6.620  10.956 -0.7110 -0.1733 -0.3070
11078TIP3    H154725   6.064   6.688  10.891 -0.4178 -0.3421 -0.5863
11078TIP3    H254726   6.177   6.639  10.979 -0.7922 -0.1602  0.0030
11079TIP3   OH254727   5.388   2.243  11.947  0.2090  0.0672  0.1482
11079TIP3    H154728   5.338   2.318  11.979  0.0045 -0.1715  0.3979
11079TIP3    H254729   5.480   2.267  11.961  0.3777  1.7054 -2.8600
11080TIP3   OH254730   5.311   6.310  14.048  0.0837  0.9367 -0.5438
11080TIP3    H154731   5.370   6.273  13.982  1.0410  0.8871  0.3271
11080TIP3    H254732   5.299   6.241  14.112 -1.9093  0.5182 -1.2912
11081TIP3   OH254733   4.394   0.922  14.918 -0.7916 -0.1750  0.2745
11081TIP3    H154734   4.423   0.910  14.828  1.7114  0.4847  0.9143
11081TIP3    H254735   4.348   0.841  14.940 -1.6255 -0.2528 -1.6320
11082TIP3   OH254736   1.029   0.708   6.511 -0.4312 -0.2164 -0.1286
11082TIP3    H154737   1.068   0.761   6.441 -0.7110 -0.3998 -0.4263
11082TIP3    H254738   0.948   0.675   6.473  0.8265 -2.7908 -0.8229
11083TIP3   OH254739   3.626   5.241  15.322  0.0798 -0.0709  0.3046
11083TIP3    H154740   3.640   5.302  15.394 -1.0420  0.8258 -0.2133
11083TIP3    H254741   3.580   5.291  15.256 -1.8426 -1.7315  0.2793
11084TIP3   OH254742   5.461   6.510  14.436  0.1843  0.2136 -0.2992
11084TIP3    H154743   5.374   6.490  14.468  0.1701 -2.3212 -1.6647
11084TIP3    H254744   5.470   6.605  14.446 -1.7672  0.2133  2.0901
11085TIP3   OH254745   6.173   1.852   2.230 -0.3848  0.2244 -0.5997
11085TIP3    H154746   6.252   1.834   2.180 -1.2131 -0.2459 -1.7676
11085TIP3    H254747   6.181   1.796   2.308 -0.7319 -1.7995 -1.9371
11086TIP3   OH254748   6.476   6.614  12.124  0.1916 -0.4254  0.4053
11086TIP3    H154749   6.565   6.635  12.151  0.0334 -0.2797  0.8147
11086TIP3    H254750   6.465   6.521  12.144 -0.3083 -0.0669  1.9344
11087TIP3   OH254751   4.321   5.087  13.144 -0.2075  0.4561 -0.0303
11087TIP3    H154752   4.247   5.089  13.206  0.3509 -1.7325  0.8257
11087TIP3    H254753   4.280   5.099  13.058 -1.3200  1.0923  0.5533
11088TIP3   OH254754   1.896   4.528  13.171  0.5777  0.3271 -0.6874
11088TIP3    H154755   1.938   4.546  13.087  0.6580  0.4496 -0.6219
11088TIP3    H254756   1.808   4.500  13.149  0.9076 -0.6132 -0.8593
11089TIP3   OH254757   3.139   0.332   4.543 -0.2723 -0.0231 -0.0735
11089TIP3    H154758   3.069   0.274   4.571 -1.6990  2.0611  0.9300
11089TIP3    H254759   3.093   0.407   4.503  1.3360  1.6122  1.0110
11090TIP3   OH254760   4.233   1.943  11.592  0.1172  0.1742  0.0520
11090TIP3    H154761   4.291   1.876  11.628  0.4713  0.6244  0.3255
11090TIP3    H254762   4.152   1.896  11.573  0.3256 -0.3094  0.3400
11091TIP3   OH254763   2.473   5.410  12.620 -0.2491 -0.4291 -0.4876
11091TIP3    H154764   2.394   5.432  12.570  1.1710  1.6075 -2.0429
11091TIP3    H254765   2.513   5.338  12.572 -1.0029 -1.2774  0.1428
11092TIP3   OH254766   0.677   2.287  15.873 -0.9221 -0.3115 -0.3068
11092TIP3    H154767   0.582   2.294  15.864 -0.8928 -0.2953 -0.6432
11092TIP3    H254768   0.710   2.370  15.840 -0.9146  0.9092  2.5368
11093TIP3   OH254769   5.117   3.229  13.550 -0.2008 -0.5939 -0.8018
11093TIP3    H154770   5.097   3.307  13.498  0.0812  1.1345  1.5197
11093TIP3    H254771   5.206   3.206  13.525  0.7565  1.5373  0.3675
11094TIP3   OH254772   5.302   3.626  14.787  0.8611  0.1763  0.0487
11094TIP3    H154773   5.366   3.578  14.734  0.4859  0.0958 -0.3307
11094TIP3    H254774   5.335   3.618  14.876  1.0305 -0.4260 -0.0648
11095TIP3   OH254775   3.102   1.186  12.036  0.6661 -0.1293 -0.5462
11095TIP3    H154776   3.083   1.225  11.951 -2.0190  0.2653  0.1313
11095TIP3    H254777   3.022   1.199  12.086  1.8672 -1.1087  1.7767
11096TIP3   OH254778   3.938   0.186   4.061  0.3150 -0.1749 -0.2513
11096TIP3    H154779   3.895   0.270   4.046  2.6052  0.9922 -0.8852
11096TIP3    H254780   3.906   0.130   3.990 -2.3010 -0.3569  0.9825
11097TIP3   OH254781   4.228   6.619   3.881 -0.4002  0.1198 -0.5686
11097TIP3    H154782   4.227   6.679   3.956 -0.2320 -1.3047  0.6092
11097TIP3    H254783   4.304   6.563   3.896 -0.2449 -0.0495 -1.9259
11098TIP3   OH254784   6.636   5.160   6.354 -0.1802  0.2006 -0.1777
11098TIP3    H154785   6.711   5.165   6.414  0.5313 -0.2146 -1.0223
11098TIP3    H254786   6.648   5.077   6.307 -1.3532 -0.0331 -0.0886
11099TIP3   OH254787   2.817   3.873   5.192  0.9090  0.5243  0.0828
11099TIP3    H154788   2.749   3.907   5.134  1.2733 -0.1203 -0.7418
11099TIP3    H254789   2.771   3.850   5.272  0.2263  0.5113 -0.3029
11100TIP3   OH254790   6.138   1.362   1.210  0.2647  0.0036 -0.2774
11100TIP3    H154791   6.078   1.356   1.284  0.4391 -0.7131 -0.1906
11100TIP3    H254792   6.091   1.320   1.138  1.2687 -2.0349  0.1881
11101TIP3   OH254793   1.407   1.491   0.592  0.2583 -0.4068 -0.2182
11101TIP3    H154794   1.419   1.530   0.678 -1.5366 -1.6281  0.6521
11101TIP3    H254795   1.325   1.442   0.599  1.5416 -3.0134 -1.6936
11102TIP3   OH254796   3.768   2.186   4.555  0.0612 -0.0408 -0.5218
11102TIP3    H154797   3.757   2.199   4.461 -1.5688 -0.4084 -0.4085
11102TIP3    H254798   3.727   2.101   4.573  1.0337 -0.3340  0.4077
11103TIP3   OH254799   0.778   3.026   5.698  0.0239  0.2012 -0.3888
11103TIP3    H154800   0.782   3.029   5.602 -0.5528  0.7020 -0.4010
11103TIP3    H254801   0.716   3.095   5.722  0.2541  0.1596  0.3552
11104TIP3   OH254802   5.695   1.989  13.219 -0.2307  0.6010  0.1797
11104TIP3    H154803   5.763   2.041  13.176  0.0340 -0.9889 -1.4672
11104TIP3    H254804   5.741   1.940  13.287  0.2718 -0.3409 -0.8187
11105TIP3   OH254805   3.188   0.510   5.777  0.0080  0.3064 -0.0338
11105TIP3    H154806   3.183   0.460   5.695  0.5229  1.1494 -0.5960
11105TIP3    H254807   3.261   0.471   5.825  1.6291  1.6527 -1.2882
11106TIP3   OH254808   2.604   6.327  11.910  0.5598 -0.0747 -0.8242
11106TIP3    H154809   2.660   6.289  11.842  1.5983 -1.0948  0.5271
11106TIP3    H254810   2.529   6.268  11.916 -0.4657  1.0288 -2.3091
11107TIP3   OH254811   2.968   3.193   6.334  0.2339  0.0782 -0.4078
11107TIP3    H154812   3.041   3.134   6.318 -0.0612 -0.1222 -1.0661
11107TIP3    H254813   2.909   3.143   6.391  0.0860 -0.1858 -0.7877
11108TIP3   OH254814   3.125   3.656   6.300  0.2868  0.0863  0.2965
11108TIP3    H154815   3.168   3.653   6.385  2.5886 -0.3429 -0.8184
11108TIP3    H254816   3.097   3.747   6.291 -0.8633 -0.0704  1.8777
11109TIP3   OH254817   5.908   2.060  11.903  0.8255 -1.0924 -0.2627
11109TIP3    H154818   5.969   2.130  11.878  1.2243 -1.4484 -0.3075
11109TIP3    H254819   5.824   2.103  11.912 -0.0111 -1.2673 -4.8054
11110TIP3   OH254820   3.327   0.573   4.210 -0.7553  0.1147 -0.4854
11110TIP3    H154821   3.284   0.638   4.265 -0.7702 -1.4205  1.4359
11110TIP3    H254822   3.280   0.491   4.228  1.3145 -1.0975 -0.2207
11111TIP3   OH254823   3.798   1.580   0.602 -0.0853 -0.1677  0.1111
11111TIP3    H154824   3.822   1.671   0.622  0.2260 -0.2940  0.3215
11111TIP3    H254825   3.774   1.581   0.510  1.5795 -0.1989 -0.3467
11112TIP3   OH254826   5.835   3.394  10.986 -0.4742 -0.1422  0.4953
11112TIP3    H154827   5.894   3.392  11.061 -1.5673  0.4426  1.4109
11112TIP3    H254828   5.867   3.326  10.927  2.7090  1.8597 -0.3098
11113TIP3   OH254829   6.568   3.978  11.751  0.1292 -0.5665 -1.0000
11113TIP3    H154830   6.594   4.064  11.720  2.3237 -0.8877 -0.2089
11113TIP3    H254831   6.562   3.987  11.846 -1.7099 -0.8096 -1.0467
11114TIP3   OH254832   4.164   1.700  14.625  0.3102  0.0365 -0.6619
11114TIP3    H154833   4.257   1.682  14.616  0.5092  0.6292  0.0354
11114TIP3    H254834   4.147   1.772  14.564  0.1358 -0.5594 -1.3357
11115TIP3   OH254835   4.335   1.446  12.862 -0.3434  0.3589  0.1113
11115TIP3    H154836   4.345   1.484  12.774 -1.3122 -0.9529 -0.5843
11115TIP3    H254837   4.285   1.512  12.911  2.2990  2.2501  0.4984
11116TIP3   OH254838   0.209   0.938   0.778  0.4905  0.4814 -0.0094
11116TIP3    H154839   0.147   0.929   0.850  0.5506  1.1924  0.1325
11116TIP3    H254840   0.236   1.029   0.780  0.7802  0.4182 -0.7010
11117TIP3   OH254841   2.012   1.796  15.769  0.7639 -0.5670  0.4746
11117TIP3    H154842   1.981   1.711  15.799 -0.9211 -1.0668 -2.3766
11117TIP3    H254843   2.001   1.794  15.674 -2.0971  3.8055  0.4302
11118TIP3   OH254844   3.224   1.299   3.182  0.1943 -0.0038  0.3459
11118TIP3    H154845   3.181   1.338   3.258  0.6758  1.1013  0.0748
11118TIP3    H254846   3.283   1.233   3.218 -0.3352 -0.2103  0.8470
11119TIP3   OH254847   0.978   4.320   4.291  0.0902 -0.0680  0.4272
11119TIP3    H154848   1.013   4.255   4.352 -0.8932  0.1022  1.1944
11119TIP3    H254849   0.979   4.402   4.340 -1.2713 -0.0411  0.4514
11120TIP3   OH254850   1.987   5.349   5.642  0.2495  0.4881  0.2046
11120TIP3    H154851   2.019   5.323   5.728  0.6863 -2.0242 -0.6294
11120TIP3    H254852   2.055   5.409   5.609  1.4460 -0.6040  0.5837
11121TIP3   OH254853   1.184   1.379  13.623 -0.1089  0.1679 -0.0100
11121TIP3    H154854   1.170   1.299  13.673 -1.0832 -0.3576 -1.0807
11121TIP3    H254855   1.273   1.407  13.646  0.9870 -2.2401 -1.0080
11122TIP3   OH254856   0.119   5.592  11.871 -0.0512 -0.0941  0.0575
11122TIP3    H154857   0.075   5.668  11.835  0.2651 -0.0558 -0.2544
11122TIP3    H254858   0.190   5.573  11.809 -1.1432 -1.6668 -0.8006
11123TIP3   OH254859   1.425   1.001   4.169  0.5100 -0.2862 -0.0229
11123TIP3    H154860   1.474   1.082   4.167 -0.2234  0.1788 -2.8973
11123TIP3    H254861   1.337   1.027   4.198  0.8232 -0.4605  1.1505
11124TIP3   OH254862   2.083   5.607  10.823 -0.5332  0.3623 -0.6602
11124TIP3    H154863   2.095   5.701  10.837 -1.5453  0.3354  0.6431
11124TIP3    H254864   2.166   5.568  10.854 -1.5359  0.5813  2.7807
11125TIP3   OH254865   3.270   6.408  13.240  0.1976 -0.1292 -0.5665
11125TIP3    H154866   3.296   6.323  13.276 -0.6766 -0.3253 -0.3740
11125TIP3    H254867   3.242   6.390  13.151 -1.7485 -0.3901  0.0406
11126TIP3   OH254868   3.231   1.498   0.781  0.5706 -0.7707  0.2149
11126TIP3    H154869   3.237   1.408   0.751  0.9044 -0.5726 -0.3288
11126TIP3    H254870   3.213   1.491   0.875  0.9640 -1.4028  0.2505
11127TIP3   OH254871   0.908   1.866  15.386 -0.0653 -0.8393  0.0126
11127TIP3    H154872   0.838   1.926  15.359  0.1881 -0.7348 -0.4297
11127TIP3    H254873   0.989   1.916  15.371  0.3614 -2.2474 -3.1189
11128TIP3   OH254874   2.007   1.873   1.031  0.0553  0.3186 -0.8656
11128TIP3    H154875   1.976   1.806   0.971 -0.3510  0.4861 -0.8437
11128TIP3    H254876   2.071   1.827   1.087  0.6502  0.2337 -1.6033
11129TIP3   OH254877   4.114   2.230   3.658 -0.1041  0.6444  0.2347
11129TIP3    H154878   4.128   2.219   3.752 -0.1066  0.6029  0.2302
11129TIP3    H254879   4.194   2.196   3.618 -0.7671 -0.8387  0.1455
11130TIP3   OH254880   2.599   4.005  10.757  0.1297 -0.1040  0.1418
11130TIP3    H154881   2.645   4.063  10.818  0.8076 -0.6750  0.1904
11130TIP3    H254882   2.568   3.933  10.812 -0.2968 -0.0257  0.0051
11131TIP3   OH254883   3.843   4.702  11.870  0.5421 -0.2845 -0.2847
11131TIP3    H154884   3.748   4.712  11.861  0.2893  0.7334  2.4026
11131TIP3    H254885   3.880   4.764  11.807 -0.7948  4.0325  2.6987
11132TIP3   OH254886   4.734   3.270  13.823  0.2629 -0.1487 -0.1975
11132TIP3    H154887   4.732   3.234  13.735  1.4853  0.2907 -0.4239
11132TIP3    H254888   4.645   3.302  13.838  0.4523  1.4440 -1.9915
11133TIP3   OH254889   2.314   0.860  15.726  0.2234 -0.1049  0.5119
11133TIP3    H154890   2.334   0.946  15.688  0.5073 -0.9215 -1.3318
11133TIP3    H254891   2.350   0.798  15.662  1.0832 -1.6036  2.3663
11134TIP3   OH254892   3.248   5.629   0.362  0.1878  0.6487 -0.5690
11134TIP3    H154893   3.224   5.573   0.288 -0.2886 -0.0197  0.0782
11134TIP3    H254894   3.268   5.568   0.433 -0.5952  1.2898  0.2256
11135TIP3   OH254895   2.810   3.174  15.003  0.3145  0.3197  0.0301
11135TIP3    H154896   2.850   3.121  14.935  0.8258  1.6929 -0.7906
11135TIP3    H254897   2.785   3.255  14.959  0.0470  0.9771  1.3335
11136TIP3   OH254898   3.106   6.378  16.697 -0.3871  0.1425 -0.8084
11136TIP3    H154899   3.080   6.461  16.737  0.9823  0.5927 -0.7827
11136TIP3    H254900   3.191   6.397  16.657 -0.0864 -1.2244 -0.8688
11137TIP3   OH254901   0.598   2.297  12.089  0.4289  0.4059 -0.0029
11137TIP3    H154902   0.542   2.336  12.022  2.0315  1.1652 -0.9483
11137TIP3    H254903   0.596   2.203  12.069  0.0286  0.4973 -0.4254
11138TIP3   OH254904   1.652   5.303  17.188  0.5291 -0.1563 -0.2331
11138TIP3    H154905   1.567   5.295  17.143  1.2176 -0.8679 -1.4551
11138TIP3    H254906   1.660   5.397  17.207 -0.0843  0.0660 -1.0123
11139TIP3   OH254907   2.530   0.738   4.657  0.2874  0.4398 -0.6867
11139TIP3    H154908   2.440   0.712   4.638  0.4145  0.2573 -1.0449
11139TIP3    H254909   2.526   0.834   4.661  0.3646  0.5235 -2.2480
11140TIP3   OH254910   0.293   6.020  14.531  0.0329 -0.3262 -0.3531
11140TIP3    H154911   0.372   6.031  14.477  0.7938 -0.9518  0.6115
11140TIP3    H254912   0.279   6.106  14.570  0.4146 -0.2922 -0.2871
11141TIP3   OH254913   3.722   4.986  16.669 -0.2126  0.4962  0.4993
11141TIP3    H154914   3.798   4.929  16.659 -0.1187  0.9523 -1.8671
11141TIP3    H254915   3.755   5.061  16.718  0.3589 -0.1720  1.1594
11142TIP3   OH254916   6.832   4.826   4.148  0.1646  0.0715 -0.5155
11142TIP3    H154917   6.867   4.901   4.195  1.9635 -0.7081 -0.5181
11142TIP3    H254918   6.769   4.863   4.086  2.0978  1.7909 -1.5826
11143TIP3   OH254919   6.611   2.791   3.154  0.7336 -0.3854  0.3396
11143TIP3    H154920   6.635   2.844   3.079 -0.6706 -0.2763 -0.0566
11143TIP3    H254921   6.614   2.852   3.228  0.6677 -0.1294  0.1339
11144TIP3   OH254922   1.867   3.726  11.478  0.2404  0.2262 -0.1577
11144TIP3    H154923   1.917   3.802  11.447  1.3088  0.8946  2.9164
11144TIP3    H254924   1.776   3.756  11.479  0.7792  1.9930  2.2090
11145TIP3   OH254925   5.056   0.242  15.174  0.2608  0.1424 -0.1260
11145TIP3    H154926   5.150   0.228  15.162  0.0402 -1.9249  0.0856
11145TIP3    H254927   5.030   0.302  15.105  1.5562 -0.1527 -0.8861
11146TIP3   OH254928   0.408   5.388   1.848 -0.7386  0.0033  0.3481
11146TIP3    H154929   0.358   5.435   1.914  1.1239  0.5089  1.4991
11146TIP3    H254930   0.370   5.415   1.765 -0.7747  2.3328  1.0423
11147TIP3   OH254931   2.862   3.535  11.253 -0.6764 -0.3845  0.0203
11147TIP3    H154932   2.927   3.466  11.241  1.0294  1.0731  0.5764
11147TIP3    H254933   2.846   3.568  11.164 -1.5702 -1.5039 -0.2623
11148TIP3   OH254934   0.328   1.434  13.982  0.1664 -0.3384  0.1909
11148TIP3    H154935   0.283   1.496  13.925  0.6761 -0.1765 -0.0373
11148TIP3    H254936   0.309   1.466  14.071  2.3129  1.5324  0.0521
11149TIP3   OH254937   6.065   1.248  14.492 -0.1320  0.2753  0.1663
11149TIP3    H154938   6.121   1.246  14.415 -0.6090 -0.5347 -0.1744
11149TIP3    H254939   6.000   1.179  14.476  0.0884 -0.2860  1.5267
11150TIP3   OH254940   6.233   3.477  13.960 -0.4582 -0.4346  0.3353
11150TIP3    H154941   6.236   3.385  13.934 -1.3430 -0.1937 -0.6984
11150TIP3    H254942   6.141   3.500  13.954 -0.3253  0.3639  1.1848
11151TIP3   OH254943   2.156   6.661   0.705  0.1646  0.4047  0.2687
11151TIP3    H154944   2.248   6.687   0.710  1.1004 -2.4727 -0.2005
11151TIP3    H254945   2.158   6.571   0.674 -2.8556  0.2907  0.1081
11152TIP3   OH254946   2.580   5.408   0.761  0.4152 -0.3749  0.2620
11152TIP3    H154947   2.572   5.444   0.849 -0.0263 -0.1612  0.1360
11152TIP3    H254948   2.490   5.400   0.729  0.5056 -1.5007  0.2478
11153TIP3   OH254949   5.484   3.373  16.664  0.2631  0.1103 -0.8279
11153TIP3    H154950   5.535   3.437  16.714  0.6479 -0.3324 -0.6427
11153TIP3    H254951   5.450   3.422  16.589  1.4633  0.2878 -1.2779
11154TIP3   OH254952   5.139   6.822   2.415  0.1210  0.1954  0.1002
11154TIP3    H154953   5.162   6.884   2.485 -1.3987  2.8077 -1.5619
11154TIP3    H254954   5.203   6.840   2.346  1.1700 -1.8748  0.4491
11155TIP3   OH254955   0.618   2.917   3.893 -0.3189 -0.0244 -0.0604
11155TIP3    H154956   0.591   2.975   3.822  0.0685 -1.0664 -1.0969
11155TIP3    H254957   0.689   2.964   3.938 -0.1521  0.3873 -0.7465
11156TIP3   OH254958   1.073   3.359  14.800  0.4202 -0.1499 -0.1018
11156TIP3    H154959   1.067   3.311  14.718  1.9533  0.2002 -0.4460
11156TIP3    H254960   1.151   3.322  14.843  0.0092  0.1197  0.8941
11157TIP3   OH254961   5.204   3.248   3.820 -0.1568 -0.2797 -0.0513
11157TIP3    H154962   5.230   3.200   3.899  0.5079  1.0964  0.5868
11157TIP3    H254963   5.123   3.293   3.844 -0.5140 -0.6662 -0.4978
11158TIP3   OH254964   2.871   5.501   4.911  0.2162  0.3487  0.2427
11158TIP3    H154965   2.794   5.533   4.957  0.0361  0.3645 -0.0667
11158TIP3    H254966   2.838   5.472   4.826  0.9742  3.0943 -1.0900
11159TIP3   OH254967   6.411   1.218   5.162  0.4381  0.1794 -0.3202
11159TIP3    H154968   6.337   1.198   5.105  1.1444 -1.4569 -0.7263
11159TIP3    H254969   6.428   1.136   5.209  2.5594  0.2251 -0.9002
11160TIP3   OH254970   0.897   5.154  15.965 -0.1109 -0.0841  0.4225
11160TIP3    H154971   0.920   5.182  15.876  0.0086 -1.3331  0.0309
11160TIP3    H254972   0.916   5.060  15.965 -0.9757 -0.2690  1.4973
11161TIP3   OH254973   6.027   3.823  14.308 -0.2926  0.2736  0.4882
11161TIP3    H154974   5.933   3.808  14.294 -0.5983  2.0431  0.3997
11161TIP3    H254975   6.042   3.911  14.273  1.2344  0.3361  1.2476
11162TIP3   OH254976   2.430   4.726  13.629 -0.0846  0.5420 -0.5941
11162TIP3    H154977   2.346   4.699  13.593 -0.9215  1.5489  0.5336
11162TIP3    H254978   2.492   4.660  13.599 -1.1050  0.2620 -2.1717
11163TIP3   OH254979   5.082   1.051   3.339  0.4404 -0.6535 -0.1796
11163TIP3    H154980   5.000   1.094   3.315  0.2964 -1.5571 -1.3719
11163TIP3    H254981   5.060   0.958   3.345  1.4932 -0.9836 -1.1227
11164TIP3   OH254982   4.280   0.429   4.101 -0.4348 -0.3157  0.1758
11164TIP3    H154983   4.222   0.504   4.089 -1.1222 -0.8949 -0.1845
11164TIP3    H254984   4.311   0.408   4.013 -0.9459 -0.9933  0.1458
11165TIP3   OH254985   4.832   1.278   3.643 -0.1574 -0.2569  0.2441
11165TIP3    H154986   4.863   1.187   3.649  1.0052  0.1504  0.5655
11165TIP3    H254987   4.844   1.313   3.731 -0.1747  0.3514  0.0062
11166TIP3   OH254988   5.452   0.723  13.206 -0.3946  0.0325 -0.0514
11166TIP3    H154989   5.387   0.789  13.182 -1.7243 -0.8153  1.0760
11166TIP3    H254990   5.533   0.773  13.218 -0.8335  1.1276 -1.3740
11167TIP3   OH254991   3.380   0.061  15.755  0.2204 -0.1379 -0.1502
11167TIP3    H154992   3.433  -0.017  15.770  0.9573  0.5229  0.8238
11167TIP3    H254993   3.423   0.105  15.681  1.1922  0.4926  0.7519
11168TIP3   OH254994   5.355   6.403   4.368  0.3728  0.2219 -0.1717
11168TIP3    H154995   5.375   6.368   4.281 -1.4235  0.3131 -0.6528
11168TIP3    H254996   5.420   6.472   4.382 -0.8163  1.9576 -2.5537
11169TIP3   OH254997   4.870   4.312  11.897 -0.2396 -0.8420 -0.0535
11169TIP3    H154998   4.807   4.306  11.968  0.3888 -2.1046  0.4223
11169TIP3    H254999   4.823   4.355  11.826 -0.6467  1.1873  1.3597
11170TIP3   OH255000   2.397   0.859  12.301 -0.9152  0.0947  0.5834
11170TIP3    H155001   2.337   0.825  12.367 -1.4587 -0.5374 -0.2119
11170TIP3    H255002   2.482   0.822  12.325 -1.2925 -0.9444  0.3740
11171TIP3   OH255003   3.523   5.593  12.753 -0.0037  0.4940  0.1996
11171TIP3    H155004   3.556   5.673  12.794  0.4394  0.3020  0.2243
11171TIP3    H255005   3.602   5.545  12.727 -0.2629 -0.0191  0.3399
11172TIP3   OH255006   3.727   1.320   4.923  0.7171 -0.0726 -0.5833
11172TIP3    H155007   3.762   1.403   4.958 -1.1743  0.1685  0.9311
11172TIP3    H255008   3.693   1.343   4.837 -0.6227  1.0061  0.1909
11173TIP3   OH255009   1.399   4.145  12.596  0.1813  0.2762  0.1864
11173TIP3    H155010   1.490   4.116  12.605  0.1557 -0.3057 -1.0945
11173TIP3    H255011   1.352   4.066  12.567 -0.2974  1.0673 -1.3226
11174TIP3   OH255012   5.350   1.581  13.909  0.3087  0.0377  0.1377
11174TIP3    H155013   5.360   1.494  13.870 -0.5217  0.4367 -1.0199
11174TIP3    H255014   5.411   1.636  13.860  0.5187  0.2030  0.5788
11175TIP3   OH255015   0.810   6.326   0.559 -0.0303 -0.1288 -0.0614
11175TIP3    H155016   0.813   6.275   0.640 -0.4269 -2.7776 -1.5671
11175TIP3    H255017   0.880   6.391   0.569  0.7553 -1.1772  1.9050
11176TIP3   OH255018   5.435   6.383  13.296 -0.5154  0.4398 -0.2384
11176TIP3    H155019   5.410   6.375  13.388  0.8453  0.7698  0.1767
11176TIP3    H255020   5.373   6.447  13.260 -0.0220  1.5904  0.8690
11177TIP3   OH255021   5.351   4.358  11.800 -0.8674  0.1450 -0.1283
11177TIP3    H155022   5.384   4.384  11.714 -0.4530 -1.3695 -0.4505
11177TIP3    H255023   5.256   4.354  11.789 -0.9275  1.1683 -0.1428
11178TIP3   OH255024   5.086   5.882  13.592 -0.1112 -0.1309 -0.3124
11178TIP3    H155025   4.999   5.919  13.600 -0.9207 -1.9551 -0.2601
11178TIP3    H255026   5.090   5.847  13.502  1.5000  2.0783 -1.2116
11179TIP3   OH255027   0.229   2.228   3.439 -0.0664 -0.4105  0.1273
11179TIP3    H155028   0.191   2.146   3.472 -1.0235  0.9052  2.5272
11179TIP3    H255029   0.159   2.267   3.387 -0.6032  0.1008  1.1988
11180TIP3   OH255030   5.326   3.512  10.373 -0.1841 -0.2634  0.0493
11180TIP3    H155031   5.344   3.596  10.413  0.8362 -0.3334 -0.2478
11180TIP3    H255032   5.310   3.452  10.447 -0.4816  0.0824  0.2691
11181TIP3   OH255033   3.012   3.487  12.171 -0.2555  0.2397  0.2453
11181TIP3    H155034   2.998   3.561  12.113  1.3710 -0.0916 -0.6456
11181TIP3    H255035   3.057   3.525  12.247 -1.2501  0.4646  0.7432
11182TIP3   OH255036   3.840   0.068   0.242 -0.3445  0.5665 -0.3612
11182TIP3    H155037   3.923   0.115   0.236 -1.1110  2.0159 -0.0327
11182TIP3    H255038   3.857  -0.002   0.305  0.9964 -0.0347 -1.3255
11183TIP3   OH255039   3.605   1.044  12.662 -1.0284 -0.8409  0.1059
11183TIP3    H155040   3.642   1.093  12.735 -0.7149  0.2313 -0.7442
11183TIP3    H255041   3.665   1.060  12.589 -0.4471 -3.1981 -0.0106
11184TIP3   OH255042   6.095   6.769   2.916 -0.0090  0.0331  0.0915
11184TIP3    H155043   6.030   6.798   2.852  0.2894 -0.3781 -0.4010
11184TIP3    H255044   6.065   6.684   2.946  1.3438 -1.1298 -1.6719
11185TIP3   OH255045   2.879   0.794  15.444  0.5658 -0.8593  0.3915
11185TIP3    H155046   2.931   0.715  15.432  0.4967 -0.8258 -0.1229
11185TIP3    H255047   2.858   0.824  15.356  0.5609 -0.2840  0.5810
11186TIP3   OH255048   2.235   6.760   4.253 -0.0295  0.1207  0.6559
11186TIP3    H155049   2.148   6.757   4.292  0.2829  1.2105  1.4745
11186TIP3    H255050   2.286   6.817   4.310  1.9487 -2.4129  1.6402
11187TIP3   OH255051   4.499   4.429  11.251  0.7005 -0.4157 -0.5049
11187TIP3    H155052   4.407   4.402  11.244  0.3783  0.6324 -0.4652
11187TIP3    H255053   4.504   4.478  11.332  0.8387  1.2161 -1.4646
11188TIP3   OH255054   4.353   4.238  14.480  0.4039 -0.1480  0.6607
11188TIP3    H155055   4.337   4.173  14.548 -0.3109  1.3099  1.9661
11188TIP3    H255056   4.266   4.269  14.455  0.6947 -0.1771 -0.4557
11189TIP3   OH255057   5.645   3.941   0.103 -0.1314 -0.4805 -0.2880
11189TIP3    H155058   5.589   3.871   0.138  0.7763 -0.4864  1.1939
11189TIP3    H255059   5.611   3.956   0.015 -2.1678 -0.8104  0.3926
11190TIP3   OH255060   5.761   3.147   3.622  0.1037 -0.1766 -0.4572
11190TIP3    H155061   5.740   3.237   3.645  0.3189  0.1067 -1.3515
11190TIP3    H255062   5.832   3.123   3.681  0.8783  0.6500 -1.0309
11191TIP3   OH255063   4.079   3.604  14.953  0.3202 -0.7933  0.1110
11191TIP3    H155064   4.024   3.527  14.966  0.2361 -0.5114  1.5316
11191TIP3    H255065   4.030   3.676  14.992  1.0462 -0.2848  0.1113
11192TIP3   OH255066   2.223   2.006  15.052  0.4163 -0.3752 -0.1930
11192TIP3    H155067   2.149   2.066  15.048  1.8676  1.4662 -1.9197
11192TIP3    H255068   2.208   1.954  15.130 -1.8085  1.0826  0.4457
11193TIP3   OH255069   0.580   0.418   1.696  0.2301  0.3709 -0.7406
11193TIP3    H155070   0.520   0.412   1.770  0.4084  0.2151 -0.6076
11193TIP3    H255071   0.666   0.401   1.734  0.0769 -2.4586 -1.3991
11194TIP3   OH255072   0.915   4.320   6.622  0.0611  0.4579  0.3695
11194TIP3    H155073   0.952   4.350   6.705  0.8948 -0.5418  0.3784
11194TIP3    H255074   0.964   4.240   6.601 -0.4141  0.4693 -0.8814
11195TIP3   OH255075   0.721   6.047   5.831 -0.1972 -0.3518 -0.2689
11195TIP3    H155076   0.777   5.988   5.881  2.4015  1.6237 -0.6126
11195TIP3    H255077   0.702   6.118   5.892 -1.9976 -0.7491 -0.3244
11196TIP3   OH255078   0.945   3.701  12.739 -0.1351 -0.7284  0.0223
11196TIP3    H155079   0.899   3.644  12.677  1.8031 -0.5250 -1.7129
11196TIP3    H255080   0.997   3.641  12.792 -0.2096 -0.7564  0.0646
11197TIP3   OH255081   0.012   5.796  11.725  0.3614 -0.5533 -0.9008
11197TIP3    H155082  -0.038   5.877  11.733  1.7242  0.3581 -1.2844
11197TIP3    H255083   0.103   5.824  11.721  0.8546 -2.0943 -1.2580
11198TIP3   OH255084   4.753   5.059   1.266  0.2690  0.4706  0.5296
11198TIP3    H155085   4.728   5.141   1.223  0.3202 -0.7533 -2.0044
11198TIP3    H255086   4.697   5.054   1.343 -2.3508  1.1997 -1.2002
11199TIP3   OH255087   5.241   0.835   5.004 -0.1123  1.0404 -0.1425
11199TIP3    H155088   5.333   0.822   5.029 -0.5266 -0.1034  0.9176
11199TIP3    H255089   5.244   0.861   4.912  1.2230 -0.2785 -0.5172
11200TIP3   OH255090   6.318   2.964  17.018  0.1002 -0.8562 -0.3187
11200TIP3    H155091   6.296   2.876  16.986 -0.6133 -0.5729 -0.6414
11200TIP3    H255092   6.305   3.021  16.942 -0.8271 -0.2793  0.2553
11201TIP3   OH255093   4.637   0.987   3.629  0.1971  0.6400  0.1418
11201TIP3    H155094   4.638   0.926   3.555 -0.7487 -0.8886  1.3386
11201TIP3    H255095   4.564   1.046   3.611  0.2086  0.5137 -0.3197
11202TIP3   OH255096   5.205   5.855  14.527  0.7046 -0.0864  0.1674
11202TIP3    H155097   5.281   5.800  14.508  0.8029  0.0682  0.1110
11202TIP3    H255098   5.242   5.942  14.540  0.4471  0.1820 -0.8164
11203TIP3   OH255099   6.766   4.867   2.627 -0.6654 -0.1080 -0.2354
11203TIP3    H155100   6.840   4.882   2.686 -0.6585 -1.3483  0.1060
11203TIP3    H255101   6.769   4.941   2.566  1.5222 -0.6476 -0.9099
11204TIP3   OH255102   0.231   4.305  11.584  1.0988 -0.5050  0.3530
11204TIP3    H155103   0.159   4.251  11.553  0.0997  1.2081 -0.4848
11204TIP3    H255104   0.302   4.290  11.522  0.7207 -0.6072 -0.0545
11205TIP3   OH255105   0.854   1.206  15.069  0.4636 -0.1469 -0.5412
11205TIP3    H155106   0.842   1.202  15.164 -1.4019 -3.6240 -0.7621
11205TIP3    H255107   0.771   1.173  15.033  1.0331  1.2378 -3.4346
11206TIP3   OH255108   2.809   6.144   5.675 -0.0758  0.2938  0.0558
11206TIP3    H155109   2.810   6.084   5.601 -0.9458 -1.0263  1.0627
11206TIP3    H255110   2.901   6.168   5.688  0.0466  0.9208 -1.7028
11207TIP3   OH255111   5.949   2.953  11.007  0.5078 -0.5125  0.0405
11207TIP3    H155112   6.025   3.009  11.026  1.6360 -1.8679 -0.3600
11207TIP3    H255113   5.931   2.968  10.914 -0.2694  0.4459  0.3332
11208TIP3   OH255114   1.306   5.823  14.041 -0.2010 -0.1198  0.5194
11208TIP3    H155115   1.277   5.894  14.097  0.3865  0.1724  0.4662
11208TIP3    H255116   1.352   5.867  13.969 -1.3882 -0.4516 -0.4842
11209TIP3   OH255117   2.761   5.522  13.564 -0.2176  0.2523  0.7978
11209TIP3    H155118   2.813   5.474  13.500  0.7008 -1.9951  3.0480
11209TIP3    H255119   2.677   5.476  13.568 -0.2725  0.3764  1.1816
11210TIP3   OH255120   5.187   2.989   1.742  0.8297 -0.2482  0.1055
11210TIP3    H155121   5.132   2.911   1.757  0.3282 -0.2092 -1.3907
11210TIP3    H255122   5.135   3.062   1.775  0.8701 -0.4361  0.5887
11211TIP3   OH255123   4.671   5.240  14.011 -0.4866 -0.3513 -0.4475
11211TIP3    H155124   4.699   5.199  14.093 -1.1308 -1.9815 -1.0257
11211TIP3    H255125   4.753   5.273  13.973 -0.0134 -0.6993  0.2347
11212TIP3   OH255126   0.006   6.777  14.057 -0.3009 -0.2199  0.3059
11212TIP3    H155127   0.094   6.804  14.083 -0.0278 -2.5389  2.0999
11212TIP3    H255128  -0.050   6.850  14.083  1.0611  1.4856 -1.2722
11213TIP3   OH255129   3.513   1.667  14.289  0.1229  0.0099  0.5423
11213TIP3    H155130   3.526   1.573  14.284  1.6046  0.0249  2.9005
11213TIP3    H255131   3.570   1.703  14.221 -1.9991 -0.8011 -1.8075
11214TIP3   OH255132   6.734   3.319  15.136 -0.4770 -0.0249  0.3947
11214TIP3    H155133   6.661   3.285  15.084 -0.7089 -1.3073  1.5091
11214TIP3    H255134   6.692   3.374  15.202 -0.4090 -0.4450  0.7915
11215TIP3   OH255135   0.984   4.894   2.203  0.6634 -0.0388  0.6385
11215TIP3    H155136   1.027   4.963   2.254  1.0212 -0.7557  1.3182
11215TIP3    H255137   1.053   4.858   2.148  0.6686 -0.3951  0.8735
11216TIP3   OH255138   2.356   5.187  12.852 -0.3571  0.1686 -0.2263
11216TIP3    H155139   2.372   5.134  12.930 -0.6618  0.8483  0.3118
11216TIP3    H255140   2.326   5.124  12.786  0.6563 -0.5294 -0.0498
11217TIP3   OH255141   4.347   0.353  13.688  0.1728  0.0037  0.3397
11217TIP3    H155142   4.326   0.260  13.700  1.4279 -0.4779 -0.9202
11217TIP3    H255143   4.418   0.353  13.624  0.7963  1.7980  0.9900
11218TIP3   OH255144   5.423   5.132   5.061  0.0368  0.5124 -0.2168
11218TIP3    H155145   5.474   5.085   5.126 -0.1649  1.1553  0.4161
11218TIP3    H255146   5.339   5.086   5.058 -0.1150  0.7471  0.3093
11219TIP3   OH255147   5.069   3.506  13.071  0.2732  0.1506  0.3945
11219TIP3    H155148   5.100   3.417  13.087 -0.8507 -0.4992 -0.8539
11219TIP3    H255149   5.149   3.558  13.063  0.9484 -0.3063  3.1666
11220TIP3   OH255150   2.584   1.337   2.380 -0.5562 -0.0569 -0.1841
11220TIP3    H155151   2.634   1.260   2.354  0.0871  0.2278  0.1900
11220TIP3    H255152   2.605   1.403   2.313 -2.5709 -0.7574 -1.5839
11221TIP3   OH255153   5.711   6.684   1.475  0.2566 -0.2950 -0.1900
11221TIP3    H155154   5.652   6.676   1.550 -0.0299  2.1047 -0.0754
11221TIP3    H255155   5.679   6.760   1.427  3.6826  1.7680  0.4030
11222TIP3   OH255156   3.812   2.011  15.339 -0.6902 -0.0458  0.1100
11222TIP3    H155157   3.901   2.046  15.331 -1.0092  0.7611 -0.0048
11222TIP3    H255158   3.784   2.037  15.427 -1.8910  2.3412 -0.8920
11223TIP3   OH255159   5.587   3.574   0.464 -0.6897 -0.5528  0.2394
11223TIP3    H155160   5.650   3.575   0.536  0.0380 -3.4737 -0.2571
11223TIP3    H255161   5.625   3.515   0.400 -3.1449 -1.0391 -0.8666
11224TIP3   OH255162   0.885   3.811  13.354  0.1351  0.0636  0.1688
11224TIP3    H155163   0.950   3.831  13.422 -0.2402  1.9827 -0.0113
11224TIP3    H255164   0.885   3.887  13.297 -0.8178 -0.7934 -1.0193
11225TIP3   OH255165   6.533   0.207  13.305 -0.0934 -0.2223 -0.0466
11225TIP3    H155166   6.588   0.173  13.376  0.2236 -2.1193 -1.1488
11225TIP3    H255167   6.596   0.237  13.239 -0.3932  1.0788  0.2348
11226TIP3   OH255168   5.382   3.189  13.037  0.2098 -0.3519 -0.1462
11226TIP3    H155169   5.330   3.131  12.980 -1.2977  1.0221 -0.2561
11226TIP3    H255170   5.373   3.275  12.997  2.1643  0.0524  0.1830
11227TIP3   OH255171   4.310   5.678  16.709 -0.1706 -0.2489  0.1214
11227TIP3    H155172   4.308   5.582  16.700 -0.3797 -0.1087 -1.7348
11227TIP3    H255173   4.403   5.701  16.703 -0.2080 -0.2615 -0.5786
11228TIP3   OH255174   0.678   6.024   2.819 -0.1528 -0.1565  0.5717
11228TIP3    H155175   0.644   6.031   2.908 -1.7430 -1.9237  0.1683
11228TIP3    H255176   0.611   6.065   2.764  0.3718  0.0808  0.0992
11229TIP3   OH255177   4.234   0.758  11.359  0.0062  0.1829  0.7193
11229TIP3    H155178   4.232   0.846  11.323 -1.0141 -0.3432 -0.5534
11229TIP3    H255179   4.196   0.767  11.447 -1.3768  0.7825  0.0746
11230TIP3   OH255180   5.108   2.199  12.800 -0.2424 -0.1049  0.1160
11230TIP3    H155181   5.122   2.186  12.894  1.9094  2.6800  0.3268
11230TIP3    H255182   5.169   2.139  12.758  0.4400  0.2460  0.5925
11231TIP3   OH255183   2.173   1.199  15.309  0.3443 -0.4869  0.0639
11231TIP3    H155184   2.090   1.217  15.354 -0.2681 -0.3071 -1.1033
11231TIP3    H255185   2.150   1.134  15.243  1.7505 -2.7480  1.6742
11232TIP3   OH255186   0.470   2.479   3.750 -0.3198 -0.2150 -0.4458
11232TIP3    H155187   0.398   2.489   3.813  0.3105  0.4468  0.1890
11232TIP3    H255188   0.547   2.462   3.805  0.5907  2.1474 -0.8708
11233TIP3   OH255189   2.370   5.528  16.870  0.2696 -0.0047  0.1837
11233TIP3    H155190   2.313   5.553  16.943  0.6912 -0.3856  0.6497
11233TIP3    H255191   2.374   5.606  16.815 -1.2658 -0.1977 -0.2314
11234TIP3   OH255192   0.148   5.032   3.845 -0.1473  0.3243 -0.1569
11234TIP3    H155193   0.206   4.969   3.886 -1.6347 -0.7191  0.4502
11234TIP3    H255194   0.159   5.017   3.751 -0.4056 -0.8017 -0.0260
11235TIP3   OH255195   5.758   0.945   2.547 -0.0778 -0.1026  0.0908
11235TIP3    H155196   5.769   0.865   2.598  0.7688 -0.8250 -1.1704
11235TIP3    H255197   5.846   0.981   2.540 -0.2409  0.1867 -0.5421
11236TIP3   OH255198   3.844   1.031   5.383 -0.2918  0.2181 -0.2283
11236TIP3    H155199   3.831   0.937   5.379  1.3137  0.0081 -2.0954
11236TIP3    H255200   3.879   1.047   5.471 -0.2841 -0.9621 -0.0085
11237TIP3   OH255201   4.715   0.474  15.127  0.0627  0.0022  0.5897
11237TIP3    H155202   4.664   0.399  15.095 -0.6558  1.0078 -0.7312
11237TIP3    H255203   4.804   0.457  15.095 -0.2976  0.1693 -0.5709
11238TIP3   OH255204   1.169   1.109   4.205 -0.5023 -0.6285 -0.8675
11238TIP3    H155205   1.109   1.117   4.131  0.5002 -0.4097 -1.6851
11238TIP3    H255206   1.141   1.176   4.267 -1.5038 -0.9767 -0.9382
11239TIP3   OH255207   3.431   1.063   1.172 -0.3682 -0.1751  0.4555
11239TIP3    H155208   3.407   0.971   1.161 -0.9253  0.0995 -0.8031
11239TIP3    H255209   3.455   1.092   1.083  2.7512  0.1135  1.2665
11240TIP3   OH255210   1.304   6.331  12.629 -0.2763  0.0328 -0.0311
11240TIP3    H155211   1.256   6.260  12.586  0.5993 -0.6909  0.1660
11240TIP3    H255212   1.379   6.348  12.572 -0.1609  0.4062  0.2238
11241TIP3   OH255213   3.138   5.163   3.145  0.3445  0.5848  0.3992
11241TIP3    H155214   3.119   5.088   3.201  1.5305  2.4388  3.5844
11241TIP3    H255215   3.234   5.169   3.144  0.3402  1.0377 -1.3506
11242TIP3   OH255216   4.714   2.388   2.560  0.4366  0.3265 -0.1117
11242TIP3    H155217   4.805   2.389   2.528  0.0995  1.3489 -1.0788
11242TIP3    H255218   4.677   2.471   2.531 -0.9471 -0.2576 -0.1085
11243TIP3   OH255219   5.993   0.606  15.549 -0.4147  0.2101 -0.1338
11243TIP3    H155220   6.064   0.547  15.577  2.0174  2.8546 -0.2274
11243TIP3    H255221   5.962   0.569  15.467 -0.4264 -2.0024  0.7860
11244TIP3   OH255222   3.615   1.953   5.621 -0.2176 -0.0985 -0.6629
11244TIP3    H155223   3.574   2.033   5.588  0.1277  0.4654  0.2289
11244TIP3    H255224   3.659   1.981   5.702 -1.8582 -1.6149  0.8233
11245TIP3   OH255225   4.374   2.561  12.064 -0.3182 -0.5108 -0.5129
11245TIP3    H155226   4.342   2.648  12.040 -1.3964 -1.0670 -1.1777
11245TIP3    H255227   4.325   2.501  12.008  0.8642 -1.5196 -0.5076
11246TIP3   OH255228   5.768   0.366   2.003  0.8894 -0.0586 -0.0179
11246TIP3    H155229   5.736   0.372   1.913 -0.0465  0.6381  0.3445
11246TIP3    H255230   5.852   0.321   1.995  1.5884  1.3706 -1.4200
11247TIP3   OH255231   4.950   2.422   2.479  0.2034  0.3696  0.2133
11247TIP3    H155232   4.915   2.450   2.395 -1.6518 -1.0133  0.4495
11247TIP3    H255233   5.044   2.435   2.472 -0.2101  4.3260 -0.4950
11248TIP3   OH255234   2.558   0.887  15.105  0.3060 -0.0310  0.3218
11248TIP3    H155235   2.573   0.952  15.173 -1.1610 -0.8333  1.4786
11248TIP3    H255236   2.472   0.850  15.126  0.3735 -1.1886 -1.2490
11249TIP3   OH255237   1.389   1.870   2.322 -0.3864  0.3231  0.2649
11249TIP3    H155238   1.438   1.787   2.324 -0.4662  0.2461 -0.5137
11249TIP3    H255239   1.299   1.845   2.339 -0.3692  0.2804  0.2937
11250TIP3   OH255240   1.045   1.817   0.172  0.4331  0.4951  0.1964
11250TIP3    H155241   1.050   1.775   0.087 -0.5791  0.0595  0.3318
11250TIP3    H255242   1.031   1.745   0.234  2.3464  0.6777  0.9036
11251TIP3   OH255243   4.857   2.897  11.432 -0.2071 -0.0573  0.0202
11251TIP3    H155244   4.942   2.860  11.454  0.3978  1.8121  0.9785
11251TIP3    H255245   4.806   2.822  11.400  1.9617 -1.1214 -1.1634
11252TIP3   OH255246   3.851   6.792   4.523  0.3773  0.3144  0.5893
11252TIP3    H155247   3.882   6.881   4.510  0.6589 -0.0019 -1.0339
11252TIP3    H255248   3.844   6.755   4.435  0.5666 -1.3668  1.2402
11253TIP3   OH255249   3.987   1.838   2.932  0.3537  0.3086  0.5235
11253TIP3    H155250   3.932   1.760   2.944  1.6836 -0.7005  0.3708
11253TIP3    H255251   4.001   1.843   2.838 -0.9554  1.6548  0.3692
11254TIP3   OH255252   1.519   5.538  13.271 -0.3067  0.7412  0.0987
11254TIP3    H155253   1.553   5.609  13.324 -0.3123  1.6200 -1.0392
11254TIP3    H255254   1.583   5.468  13.280 -0.2381  0.9275  1.1273
11255TIP3   OH255255   2.677   6.395  13.961  0.1211 -0.2283 -0.1162
11255TIP3    H155256   2.602   6.428  13.910 -0.8458 -0.9130  0.8290
11255TIP3    H255257   2.689   6.305  13.929 -0.3601 -0.5908  0.6947
11256TIP3   OH255258   0.337   5.102   4.645  0.2692 -0.4478  0.0849
11256TIP3    H155259   0.374   5.096   4.733  0.1356  0.3693  0.1977
11256TIP3    H255260   0.316   5.194   4.633 -0.3468 -0.6604 -0.5530
11257TIP3   OH255261   4.419   2.144  11.523 -0.1408  0.2798  0.1696
11257TIP3    H155262   4.384   2.188  11.446 -0.7408  2.5557  1.6414
11257TIP3    H255263   4.348   2.085  11.551 -0.1885 -0.0392 -0.6020
11258TIP3   OH255264   1.017   5.550  15.707  0.3240  0.1036 -0.1077
11258TIP3    H155265   1.019   5.536  15.801  0.3450  0.8534  0.0065
11258TIP3    H255266   1.011   5.645  15.696 -2.8134 -0.0500 -0.7945
11259TIP3   OH255267   0.366   4.751   1.069  0.2367  0.0189 -0.1582
11259TIP3    H155268   0.378   4.695   1.146  2.7701  0.8832  0.1595
11259TIP3    H255269   0.334   4.691   1.001 -3.5787 -0.5136  1.8054
11260TIP3   OH255270   2.890   0.542   4.716  0.0368 -0.5522 -1.1342
11260TIP3    H155271   2.872   0.450   4.733  0.1280 -0.4170 -0.2687
11260TIP3    H255272   2.917   0.545   4.624  0.9837 -1.5242 -0.8962
11261TIP3   OH255273   5.159   1.698  13.175 -1.2909  0.2432  0.4591
11261TIP3    H155274   5.180   1.739  13.259  1.7728 -1.0654  0.4364
11261TIP3    H255275   5.064   1.687  13.177 -1.3846  0.7956  3.4828
11262TIP3   OH255276   1.889   0.485   3.897  0.3909 -0.0620  0.2034
11262TIP3    H155277   1.892   0.417   3.830  0.0938 -0.7380  0.8627
11262TIP3    H255278   1.825   0.548   3.864  0.3771 -0.2945 -0.2244
11263TIP3   OH255279   4.422   3.204   3.528 -0.4183  0.0040  0.5732
11263TIP3    H155280   4.392   3.193   3.438 -1.3190  0.1680  0.8423
11263TIP3    H255281   4.428   3.299   3.539 -0.7221 -0.0076  0.8228
11264TIP3   OH255282   5.522   3.742   1.583 -0.4786  0.3987  0.3592
11264TIP3    H155283   5.427   3.735   1.580 -0.3673 -1.2356 -0.7695
11264TIP3    H255284   5.541   3.775   1.671 -2.0830  0.8377  0.5716
11265TIP3   OH255285   5.999   4.193   4.647 -0.4198 -0.3938  0.1670
11265TIP3    H155286   6.068   4.128   4.661 -0.5925 -0.3984  1.0286
11265TIP3    H255287   6.046   4.274   4.627 -0.1971 -0.6639 -0.4419
11266TIP3   OH255288   2.675   2.151  15.526  0.5723  0.3964 -0.2811
11266TIP3    H155289   2.708   2.112  15.445  0.1908  1.8106 -1.1394
11266TIP3    H255290   2.655   2.075  15.582  3.7997 -0.6016 -0.2374
11267TIP3   OH255291   3.688   6.129   5.846  0.6809  0.8391 -0.3196
11267TIP3    H155292   3.615   6.190   5.840  1.4640  1.7053 -1.2580
11267TIP3    H255293   3.691   6.104   5.938 -1.0948  0.3992 -0.3485
11268TIP3   OH255294   2.087   4.112  16.647 -0.1612  0.0622 -0.0382
11268TIP3    H155295   2.073   4.155  16.731 -0.4393  1.1075 -0.6124
11268TIP3    H255296   2.000   4.084  16.619 -0.2928  1.1333 -0.7248
11269TIP3   OH255297   0.698   5.597   3.419 -0.6365 -0.2463 -0.0191
11269TIP3    H155298   0.786   5.629   3.395 -0.1843 -0.8246  0.8358
11269TIP3    H255299   0.692   5.511   3.377 -0.2198 -0.8370  1.0965
11270TIP3   OH255300   4.157   3.945   4.173  0.4867 -0.4044 -0.0109
11270TIP3    H155301   4.232   3.962   4.116  1.0136 -1.0109  0.4752
11270TIP3    H255302   4.098   3.891   4.121  0.6109 -0.3228 -0.2369
11271TIP3   OH255303   0.665   2.377   0.730 -0.4980 -0.2860  0.4935
11271TIP3    H155304   0.647   2.317   0.656  0.2935  1.4950 -1.2301
11271TIP3    H255305   0.703   2.454   0.689 -0.8634  1.1552  2.7248
11272TIP3   OH255306   2.804   2.397   2.724  0.1812  0.3508  0.5701
11272TIP3    H155307   2.790   2.319   2.778  0.3664  0.7522  1.2203
11272TIP3    H255308   2.899   2.403   2.715  0.1886  0.6907  0.8269
11273TIP3   OH255309   6.327   0.903  13.783 -0.3102 -0.0980  0.0014
11273TIP3    H155310   6.366   0.816  13.775  0.5562  0.2381  0.4969
11273TIP3    H255311   6.253   0.891  13.842 -1.1072 -0.7724 -1.0843
11274TIP3   OH255312   4.740   0.326   0.883 -0.0458 -0.1806  0.5481
11274TIP3    H155313   4.672   0.267   0.915  1.1347 -2.0315 -0.1837
11274TIP3    H255314   4.694   0.383   0.822 -0.8754 -1.8718 -0.5077
11275TIP3   OH255315   5.755   0.495   4.801  0.6537  0.2528  0.0739
11275TIP3    H155316   5.790   0.447   4.726 -1.4304 -1.7549  0.2755
11275TIP3    H255317   5.829   0.500   4.862  1.8676  0.3283 -1.3209
11276TIP3   OH255318   5.013   6.098   1.661  0.3153  0.1986 -0.6131
11276TIP3    H155319   4.971   6.012   1.664  1.1304 -0.2141 -0.5613
11276TIP3    H255320   4.942   6.159   1.642 -0.1851 -0.5583 -1.2562
11277TIP3   OH255321   4.030   0.095   0.896 -0.5278 -0.1350  0.1285
11277TIP3    H155322   3.983   0.166   0.940 -1.5821 -0.9978  0.4408
11277TIP3    H255323   4.060   0.133   0.813  1.7647  1.6177  1.6438
11278TIP3   OH255324   2.205   5.902   0.552  0.4670 -0.1689 -0.0610
11278TIP3    H155325   2.215   5.967   0.483  1.2792  1.1332  1.2248
11278TIP3    H255326   2.247   5.823   0.517  0.3894  0.2935 -1.2412
11279TIP3   OH255327   5.468   1.855  13.199  0.3734 -0.1549 -0.4647
11279TIP3    H155328   5.562   1.870  13.199  0.4319 -0.4866 -0.6916
11279TIP3    H255329   5.458   1.770  13.156 -0.2397  1.2715 -3.3808
11280TIP3   OH255330   0.273   6.627  12.432 -1.0066  0.0474  0.0401
11280TIP3    H155331   0.200   6.668  12.480 -1.4540 -1.1192  0.3969
11280TIP3    H255332   0.265   6.662  12.343 -0.5983  1.6943  0.6095
11281TIP3   OH255333   6.812   5.825   3.871 -0.0857  0.2785 -0.8529
11281TIP3    H155334   6.880   5.851   3.933 -0.5428 -0.2596 -0.1094
11281TIP3    H255335   6.797   5.903   3.817  1.6365  0.1801 -1.5302
11282TIP3   OH255336   3.885   1.223   0.844 -0.2075 -1.1349 -0.6331
11282TIP3    H155337   3.950   1.289   0.869  0.0824 -0.7980 -2.1550
11282TIP3    H255338   3.828   1.268   0.781 -0.3738 -2.1478 -1.2363
11283TIP3   OH255339   6.105   2.766  14.580  0.3442 -0.0227 -0.1426
11283TIP3    H155340   6.134   2.675  14.590  0.2737  0.0892  1.3832
11283TIP3    H255341   6.052   2.783  14.658 -0.1752  1.1418 -0.7195
11284TIP3   OH255342   0.995   2.989  13.863  0.1076  0.0440  0.2784
11284TIP3    H155343   1.030   3.006  13.775 -0.4047  0.6340  0.1793
11284TIP3    H255344   1.068   3.012  13.922  0.6570 -0.9227 -0.0010
11285TIP3   OH255345   2.437   0.983  10.572  0.0423 -0.5882  0.1105
11285TIP3    H155346   2.526   1.010  10.596  0.0586 -1.6721  1.3784
11285TIP3    H255347   2.447   0.896  10.535 -0.2305  0.2987 -2.1929
11286TIP3   OH255348   2.665   5.130   3.613 -0.7299  0.8695  0.1846
11286TIP3    H155349   2.677   5.201   3.550  0.2448 -0.5349 -1.3051
11286TIP3    H255350   2.736   5.142   3.677 -1.2773  1.8752  0.6331
11287TIP3   OH255351   3.396   3.818   6.348 -0.3169  0.1126 -0.6474
11287TIP3    H155352   3.335   3.793   6.279 -0.2461  1.7539 -1.3713
11287TIP3    H255353   3.348   3.883   6.399 -0.0798 -0.5029  0.3794
11288TIP3   OH255354   4.374   6.414   2.595  0.2014 -0.3524  0.1837
11288TIP3    H155355   4.415   6.356   2.659 -0.2388 -1.6921 -0.7074
11288TIP3    H255356   4.280   6.399   2.606  0.0714  0.2454 -0.0317
11289TIP3   OH255357   6.575   0.099  11.825  0.0642 -0.0246  0.6624
11289TIP3    H155358   6.623   0.096  11.908 -0.9224 -2.4674  1.2199
11289TIP3    H255359   6.483   0.104  11.850 -0.2525 -0.7910 -0.2756
11290TIP3   OH255360   0.340   0.814  15.202  0.0408 -0.3200  0.0531
11290TIP3    H155361   0.432   0.801  15.183  0.2965  0.2820  0.8391
11290TIP3    H255362   0.301   0.838  15.118  0.3869 -1.5963 -0.5031
11291TIP3   OH255363   2.343   5.484  10.862  0.1081  0.9820 -0.1397
11291TIP3    H155364   2.338   5.390  10.844 -2.7983  1.2598 -1.4001
11291TIP3    H255365   2.427   5.511  10.825  2.1181 -1.4210  2.2937
11292TIP3   OH255366   0.461   5.056   2.499  0.2199  0.4665 -0.0634
11292TIP3    H155367   0.456   5.122   2.568  1.5021 -0.4285  0.9335
11292TIP3    H255368   0.539   5.004   2.521 -0.5221 -1.1272 -1.0316
11293TIP3   OH255369   6.793   6.687  12.435 -0.4207 -0.3309  0.3036
11293TIP3    H155370   6.730   6.753  12.406 -0.6103  0.3036  2.0514
11293TIP3    H255371   6.804   6.704  12.528  0.2735 -2.1723  0.5928
11294TIP3   OH255372   5.819   0.691   1.952 -0.1360 -0.1666 -0.6399
11294TIP3    H155373   5.882   0.647   2.010  0.1869  1.1407  0.0246
11294TIP3    H255374   5.870   0.759   1.908 -0.8333  0.1437 -0.9833
11295TIP3   OH255375   1.765   6.338   0.157 -0.1480 -0.5724  0.6063
11295TIP3    H155376   1.723   6.272   0.101  0.0278 -0.2535  0.0896
11295TIP3    H255377   1.837   6.291   0.198  2.3171  0.0779 -2.5338
11296TIP3   OH255378   4.619   1.689  13.574 -0.2180 -0.4707  0.2178
11296TIP3    H155379   4.546   1.741  13.540 -1.0087 -1.3299  0.5463
11296TIP3    H255380   4.680   1.681  13.500  0.2090  1.3723  0.3258
11297TIP3   OH255381   3.517   0.554  16.816 -0.0525  0.4047 -0.3330
11297TIP3    H155382   3.471   0.498  16.877  2.4929 -0.4153  0.9498
11297TIP3    H255383   3.471   0.638  16.821  0.6091  0.7185  3.5658
11298TIP3   OH255384   5.162   4.809   0.438 -0.3793  0.0397 -0.6894
11298TIP3    H155385   5.072   4.797   0.469  0.2197 -2.5087  0.2833
11298TIP3    H255386   5.211   4.737   0.477  1.9406  0.8477 -1.9077
11299TIP3   OH255387   1.558   2.690  10.900  0.3479  0.5241 -0.1639
11299TIP3    H155388   1.602   2.713  10.818  0.4410 -0.5375 -0.4322
11299TIP3    H255389   1.601   2.745  10.966 -0.4644  2.1850 -0.9530
11300TIP3   OH255390   1.858   4.200   6.494 -0.3353  0.1104 -0.3311
11300TIP3    H155391   1.843   4.289   6.463  1.1856  1.0053  1.2587
11300TIP3    H255392   1.782   4.180   6.549 -0.3285  0.7502 -0.0828
11301TIP3   OH255393   4.254   6.803  16.384  0.5824 -0.4676 -0.2641
11301TIP3    H155394   4.240   6.873  16.321 -4.0040  0.1497  1.0591
11301TIP3    H255395   4.349   6.801  16.397  1.4751  1.5016 -4.6025
11302TIP3   OH255396   3.766   4.914  14.381 -0.6172  0.2540  0.0876
11302TIP3    H155397   3.782   4.982  14.446  1.4379 -1.0913  1.0968
11302TIP3    H255398   3.853   4.880  14.359 -1.4922 -1.3688 -1.1039
11303TIP3   OH255399   5.280   6.787  16.648 -0.7180  0.1480  0.3573
11303TIP3    H155400   5.246   6.834  16.571 -1.0013 -1.5313 -0.5741
11303TIP3    H255401   5.296   6.856  16.713 -1.4134  1.4929 -0.8545
11304TIP3   OH255402   3.509   2.146  14.315  0.3901 -0.2243  0.0247
11304TIP3    H155403   3.561   2.100  14.249 -0.0077 -0.1565 -0.3408
11304TIP3    H255404   3.469   2.076  14.366  0.2759 -0.2826 -0.1431
11305TIP3   OH255405   2.899   3.501   5.793  0.0540 -0.0817 -0.1561
11305TIP3    H155406   2.995   3.501   5.792  0.1043  0.1174  1.6321
11305TIP3    H255407   2.875   3.410   5.773  0.7282 -0.8251  2.1011
11306TIP3   OH255408   3.963   0.819  14.763  0.4117 -0.6162 -0.2042
11306TIP3    H155409   3.891   0.881  14.748 -0.3649 -1.4212  0.0874
11306TIP3    H255410   3.965   0.808  14.858  0.6846 -0.8660 -0.2384
11307TIP3   OH255411   2.168   1.782   1.227  0.0541  0.7666 -0.5046
11307TIP3    H155412   2.244   1.819   1.271  1.3335 -1.2085 -0.9181
11307TIP3    H255413   2.145   1.705   1.279 -0.4283  0.2398 -1.4674
11308TIP3   OH255414   4.614   5.464   3.379 -0.3817 -0.4777 -0.3676
11308TIP3    H155415   4.541   5.469   3.440 -0.6751 -0.8812 -0.6832
11308TIP3    H255416   4.680   5.522   3.416 -0.0703 -1.6285  0.9900
11309TIP3   OH255417   2.117   2.419   2.124  0.2824 -0.4249  0.1352
11309TIP3    H155418   2.083   2.413   2.035 -0.9678 -1.0722  0.6436
11309TIP3    H255419   2.162   2.504   2.127 -1.0973  0.3560 -0.6270
11310TIP3   OH255420   5.178   3.446  12.178 -0.1379 -0.6724  0.8459
11310TIP3    H155421   5.213   3.362  12.146 -1.2347 -0.6248 -0.5918
11310TIP3    H255422   5.218   3.512  12.121 -0.4626 -0.3729  0.9642
11311TIP3   OH255423   0.358   2.684   0.756 -0.4409  0.1333  0.1923
11311TIP3    H155424   0.394   2.671   0.668  0.0331 -1.5397  0.5928
11311TIP3    H255425   0.272   2.724   0.742  0.1788  1.1227 -0.9484
11312TIP3   OH255426   6.712   0.203  12.558  0.0004  0.0154 -0.8574
11312TIP3    H155427   6.625   0.241  12.545 -0.2816 -0.4459 -0.3498
11312TIP3    H255428   6.767   0.245  12.492 -0.7997 -0.3217 -1.7605
11313TIP3   OH255429   2.771   4.093   3.108 -0.3589  0.7003 -0.9300
11313TIP3    H155430   2.799   4.004   3.131  1.2931  1.2382 -0.6819
11313TIP3    H255431   2.752   4.134   3.192 -2.0831  0.3168 -1.1043
11314TIP3   OH255432   2.178   6.499   2.925  0.1600 -0.3168  0.4606
11314TIP3    H155433   2.108   6.555   2.892 -1.4025 -1.9698  0.8333
11314TIP3    H255434   2.159   6.489   3.018  2.8689  1.9383  1.3958
11315TIP3   OH255435   4.920   2.782   5.013  0.0975 -0.3211  0.0515
11315TIP3    H155436   4.832   2.770   4.977 -0.2804 -0.3947  0.9950
11315TIP3    H255437   4.945   2.870   4.986  0.6086 -1.0492 -2.0447
11316TIP3   OH255438   2.957   1.298  16.799 -0.0530 -0.3977  0.1125
11316TIP3    H155439   2.883   1.335  16.750  0.1909  1.4524  1.0606
11316TIP3    H255440   2.920   1.274  16.883 -0.1360 -2.1438 -0.3757
11317TIP3   OH255441   2.968   1.849  16.957 -0.3110  0.0973 -0.8025
11317TIP3    H155442   2.994   1.774  16.904  2.5158  0.1123  0.3894
11317TIP3    H255443   3.043   1.908  16.953 -1.0631  1.2571  1.0922
11318TIP3   OH255444   4.913   3.902  12.140 -0.2580  0.5327 -0.0172
11318TIP3    H155445   4.999   3.901  12.182  0.7963  1.0277 -2.0567
11318TIP3    H255446   4.918   3.836  12.071 -3.0043 -2.5115  2.3885
11319TIP3   OH255447   0.091   0.681   3.894 -0.4571 -0.0832  0.4171
11319TIP3    H155448   0.063   0.718   3.811  2.5408  0.7199 -0.3717
11319TIP3    H255449   0.184   0.703   3.900 -0.3958 -0.7062  3.6805
11320TIP3   OH255450   0.296   6.121  13.022  0.2169 -0.0767  0.0659
11320TIP3    H155451   0.260   6.205  13.048 -0.0186  0.2150 -1.1463
11320TIP3    H255452   0.378   6.142  12.978  1.4457 -0.6720  1.9350
11321TIP3   OH255453   3.733   0.773   1.088  0.0201 -0.3326  0.2846
11321TIP3    H155454   3.822   0.738   1.097 -0.5918 -1.7182  1.3438
11321TIP3    H255455   3.741   0.864   1.114  1.4754  0.1290 -1.5215
11322TIP3   OH255456   0.874   4.119  13.771 -0.2868  0.1645 -0.2582
11322TIP3    H155457   0.882   4.156  13.683 -0.1138  1.0986  0.1471
11322TIP3    H255458   0.785   4.143  13.798  0.3193  1.5491  0.5687
11323TIP3   OH255459   3.559   5.104  16.217 -0.3302 -0.0215 -0.0303
11323TIP3    H155460   3.546   5.196  16.194 -0.2596 -0.5281 -2.3290
11323TIP3    H255461   3.520   5.056  16.144  2.1039 -1.7747 -0.2937
11324TIP3   OH255462   6.319   0.379   3.810 -0.2312  0.0581 -0.3980
11324TIP3    H155463   6.406   0.405   3.841 -0.5235  1.1723 -0.4570
11324TIP3    H255464   6.292   0.450   3.751 -1.3629 -0.0380 -0.0263
11325TIP3   OH255465   5.331   5.773   2.606 -0.0124 -0.1124 -0.3845
11325TIP3    H155466   5.245   5.732   2.618 -0.2255  0.1610 -0.9256
11325TIP3    H255467   5.313   5.854   2.557  0.5623 -0.1058 -0.6012
11326TIP3   OH255468   1.664   4.241  14.840  0.3570 -0.8268 -0.1537
11326TIP3    H155469   1.733   4.289  14.884  0.1157 -1.6921  1.2330
11326TIP3    H255470   1.588   4.300  14.843 -0.2907 -1.6564  2.6266
11327TIP3   OH255471   4.738   4.324  15.106  0.6888  0.2875  0.5032
11327TIP3    H155472   4.675   4.320  15.178  0.6480 -2.7546  0.4013
11327TIP3    H255473   4.792   4.246  15.116  0.6264 -0.3300 -2.7728
11328TIP3   OH255474   0.397   1.277  16.887  0.0619  0.3923 -0.1993
11328TIP3    H155475   0.302   1.280  16.886 -0.0106  0.0675  1.6305
11328TIP3    H255476   0.419   1.234  16.970  1.7607 -1.8108 -1.6731
11329TIP3   OH255477   1.253   1.696  11.769  0.5590  0.0930  0.0213
11329TIP3    H155478   1.179   1.713  11.828  0.5082 -0.5848  0.1541
11329TIP3    H255479   1.246   1.604  11.747 -0.1137  0.5802 -2.0069
11330TIP3   OH255480   2.266   3.901  12.883  0.3144  0.2616 -0.0810
11330TIP3    H155481   2.212   3.971  12.919  2.2986  2.2626 -0.7104
11330TIP3    H255482   2.288   3.931  12.795  2.7009 -0.2245  0.2781
11331TIP3   OH255483   1.720   1.942   2.565 -0.2408  0.5582 -0.8651
11331TIP3    H155484   1.699   1.939   2.658 -1.5828  0.9315 -1.1294
11331TIP3    H255485   1.768   1.861   2.548 -0.4883  0.2105  0.0353
11332TIP3   OH255486   1.247   3.020  15.549  0.1642  0.4416  0.6063
11332TIP3    H155487   1.285   3.089  15.603  0.2644  0.6954  0.2114
11332TIP3    H255488   1.259   2.940  15.601  1.6489  0.4312  0.2976
11333TIP3   OH255489   0.609   5.251  14.718  0.6638 -0.2168 -0.1766
11333TIP3    H155490   0.518   5.263  14.692  0.1346  1.4348  2.0875
11333TIP3    H255491   0.659   5.306  14.658 -0.1795  1.1253  0.2889
11334TIP3   OH255492   6.158   0.976  11.557 -0.3812 -0.6464  0.2929
11334TIP3    H155493   6.118   1.060  11.534  2.2135  0.2770 -1.3406
11334TIP3    H255494   6.190   0.988  11.647  1.5131  0.8563 -0.5098
11335TIP3   OH255495   6.509   2.596  14.630 -0.4787  0.1593  0.7373
11335TIP3    H155496   6.477   2.668  14.575 -1.9928 -1.5864 -0.7860
11335TIP3    H255497   6.448   2.594  14.704 -0.5927  0.2824  0.6479
11336TIP3   OH255498   2.817   4.087  16.669 -0.2886  0.0160 -0.7206
11336TIP3    H155499   2.770   4.096  16.753  0.2091 -0.8661 -0.3409
11336TIP3    H255500   2.806   3.996  16.645  1.0559 -0.1600 -0.7332
11337TIP3   OH255501   1.294   5.549   3.342 -0.6411  0.1827 -0.0053
11337TIP3    H155502   1.247   5.512   3.267  0.5288  1.0763 -1.2348
11337TIP3    H255503   1.375   5.584   3.304  1.1131 -1.3851  2.0202
11338TIP3   OH255504   5.813   5.675  15.192 -0.0272  0.2880 -0.3704
11338TIP3    H155505   5.907   5.690  15.193 -0.2328  1.6599  0.6727
11338TIP3    H255506   5.787   5.688  15.100  1.0000 -1.7547 -1.0073
11339TIP3   OH255507   5.979   6.377  15.579  0.0462 -0.1652 -0.1971
11339TIP3    H155508   6.043   6.314  15.546  0.1353  0.3845 -1.0942
11339TIP3    H255509   6.013   6.402  15.665 -0.0890 -1.4691  0.2521
11340TIP3   OH255510   4.643   6.737  14.921  0.6435  0.4206 -0.2134
11340TIP3    H155511   4.657   6.807  14.986  0.2368 -0.4690  0.8657
11340TIP3    H255512   4.663   6.779  14.837  0.8092  1.7200  0.4352
11341TIP3   OH255513   0.895   1.041  11.416  0.4543 -0.0872  0.6098
11341TIP3    H155514   0.970   1.100  11.423 -1.1665  2.0106  1.3169
11341TIP3    H255515   0.821   1.092  11.451 -1.1768 -2.3095  0.5975
11342TIP3   OH255516   1.641   6.333   1.969 -0.1570  0.0919  0.2221
11342TIP3    H155517   1.642   6.427   1.986  1.0872  0.3277 -0.9536
11342TIP3    H255518   1.615   6.293   2.052  2.0800  1.3340  1.6002
11343TIP3   OH255519   1.977   5.196   0.896  0.0547 -0.5831 -0.0384
11343TIP3    H155520   2.069   5.214   0.879  0.8403 -3.6750  0.3236
11343TIP3    H255521   1.961   5.111   0.855 -2.4108 -0.5305  0.6638
11344TIP3   OH255522   0.322   2.398  13.874 -0.0734 -0.0974 -0.1209
11344TIP3    H155523   0.385   2.339  13.832  0.2755 -0.9288  1.4960
11344TIP3    H255524   0.360   2.485  13.866  0.5348 -0.3917 -0.4822
11345TIP3   OH255525   4.709   0.175  13.913  0.1791 -0.3127  0.5447
11345TIP3    H155526   4.719   0.123  13.993 -0.1432 -1.8937 -0.3856
11345TIP3    H255527   4.762   0.129  13.848 -0.6225  0.1673 -0.4786
11346TIP3   OH255528   3.073   5.925   5.009  0.3790  0.3421  0.5687
11346TIP3    H155529   3.112   6.009   4.984  1.3341 -0.1040  0.5416
11346TIP3    H255530   3.145   5.862   5.004 -0.8885 -1.0671 -2.1360
11347TIP3   OH255531   1.920   5.671   5.159  0.3186  0.1097 -0.2149
11347TIP3    H155532   1.961   5.651   5.074 -2.1581 -2.3014 -0.9957
11347TIP3    H255533   1.872   5.752   5.144  1.6030  0.8683 -0.4135
11348TIP3   OH255534   2.573   3.581  11.235 -0.0928 -0.2951 -0.1469
11348TIP3    H155535   2.641   3.514  11.232 -1.5404 -1.8528  0.2092
11348TIP3    H255536   2.511   3.555  11.167 -0.6064  0.7859 -0.1108
11349TIP3   OH255537   5.908   4.093  14.847 -0.3314  0.2949 -0.2505
11349TIP3    H155538   5.841   4.030  14.819  1.1602 -1.7528  0.5373
11349TIP3    H255539   5.982   4.077  14.789  0.8676 -0.2634  1.3645
11350TIP3   OH255540   3.000   0.085  13.629 -0.6073  0.1098  0.3058
11350TIP3    H155541   2.983   0.075  13.722 -0.4201  0.1647  0.3454
11350TIP3    H255542   2.961   0.169  13.606 -1.8072 -0.4873  0.0597
11351TIP3   OH255543   6.494   0.174  11.464 -0.1066  0.1351  0.1724
11351TIP3    H155544   6.526   0.094  11.423  0.6604  0.0110  0.9954
11351TIP3    H255545   6.569   0.209  11.512 -0.4506  1.2948 -0.0818
11352TIP3   OH255546   1.315   1.418   4.348  0.3000 -0.1045  0.0423
11352TIP3    H155547   1.327   1.395   4.255  2.0841 -1.8702  0.6520
11352TIP3    H255548   1.227   1.386   4.368 -0.2413  0.5899 -1.0984
11353TIP3   OH255549   4.806   3.344  14.492  0.0499 -0.2525  0.5688
11353TIP3    H155550   4.768   3.373  14.575 -0.0013  1.2838  0.0454
11353TIP3    H255551   4.782   3.413  14.430  0.5586 -1.0982 -0.5951
11354TIP3   OH255552   3.861   3.656   3.031  0.1974  0.1633  0.7420
11354TIP3    H155553   3.784   3.707   3.006 -1.2474 -1.8621  0.8325
11354TIP3    H255554   3.935   3.712   3.009 -1.1257  0.7134 -3.0535
11355TIP3   OH255555   2.288   4.692   4.372 -0.0171  0.2483  0.3467
11355TIP3    H155556   2.242   4.774   4.357  1.7577  1.6771  2.1788
11355TIP3    H255557   2.353   4.712   4.440  2.0935 -2.0614 -0.7985
11356TIP3   OH255558   5.928   4.353   2.345  0.8180 -0.1617 -0.2466
11356TIP3    H155559   5.902   4.404   2.422  0.0863 -1.3596  0.3297
11356TIP3    H255560   5.945   4.418   2.277 -0.7681  0.8234  0.2563
11357TIP3   OH255561   4.357   6.309  14.833  0.3653  0.5458 -0.3200
11357TIP3    H155562   4.434   6.366  14.844 -0.2783  1.4673 -0.5088
11357TIP3    H255563   4.365   6.245  14.904 -0.1430  2.3098  1.4153
11358TIP3   OH255564   1.113   6.794   2.042 -0.4291  0.1521 -0.3973
11358TIP3    H155565   1.187   6.740   2.014 -1.0687 -0.7396 -0.4107
11358TIP3    H255566   1.040   6.764   1.989 -1.1916 -0.1529  0.7813
11359TIP3   OH255567   6.751   4.956   3.170 -0.2233 -0.5011  0.0017
11359TIP3    H155568   6.714   4.868   3.169 -1.4034 -0.0679  1.6159
11359TIP3    H255569   6.806   4.959   3.249  0.6341 -0.0980 -0.5913
11360TIP3   OH255570   5.598   4.896   1.957 -0.1634 -0.0979 -0.0195
11360TIP3    H155571   5.614   4.941   2.040 -0.5959  0.9178 -0.4755
11360TIP3    H255572   5.681   4.904   1.910  0.1929 -0.9704  0.4332
11361TIP3   OH255573   5.487   0.144  13.887 -0.2140  0.3535 -0.4295
11361TIP3    H155574   5.535   0.198  13.950 -0.0531 -2.5370  2.1325
11361TIP3    H255575   5.400   0.185  13.883 -0.5099  0.1869  2.4200
11362TIP3   OH255576   0.565   4.254  16.494 -0.4434  0.0094  0.2411
11362TIP3    H155577   0.490   4.244  16.435  0.0612 -0.0203 -0.4154
11362TIP3    H255578   0.570   4.348  16.511 -1.6701 -0.1530  1.7083
11363TIP3   OH255579   2.995   5.514   0.205  0.3555  0.3193 -1.1741
11363TIP3    H155580   2.923   5.567   0.239 -0.7366 -2.5367  1.3732
11363TIP3    H255581   2.957   5.427   0.191  2.8801 -0.8101 -1.6105
11364TIP3   OH255582   6.488   5.351   0.751 -0.0299 -0.5325  0.3239
11364TIP3    H155583   6.493   5.409   0.826 -0.6521  2.3024 -1.6564
11364TIP3    H255584   6.576   5.352   0.714 -0.7627  2.1414 -1.6561
11365TIP3   OH255585   2.233   3.101   4.960 -0.0335  0.0035  0.5356
11365TIP3    H155586   2.320   3.108   4.998  0.1625  1.1247 -0.0676
11365TIP3    H255587   2.237   3.156   4.882 -0.6707 -1.5391 -0.6390
11366TIP3   OH255588   0.239   2.468  11.327  0.0623 -0.4890  0.5931
11366TIP3    H155589   0.305   2.535  11.308  1.2050 -1.0167  2.4285
11366TIP3    H255590   0.171   2.482  11.261  0.7151  1.8446  0.3143
11367TIP3   OH255591   2.898   4.221   2.746  0.6175  0.0167  0.2944
11367TIP3    H155592   2.921   4.265   2.828  2.4395  2.2898 -1.3017
11367TIP3    H255593   2.810   4.251   2.726  0.9498  1.1507  0.4348
11368TIP3   OH255594   2.407   3.786  15.245 -0.1721  0.3522 -0.9188
11368TIP3    H155595   2.387   3.695  15.227  1.5685 -0.0442 -1.0405
11368TIP3    H255596   2.380   3.800  15.336  0.2292 -0.5018 -0.6634
11369TIP3   OH255597   4.270   6.213   3.793  0.1901  0.4104  0.1692
11369TIP3    H155598   4.307   6.197   3.706 -1.4156  0.2209 -0.5112
11369TIP3    H255599   4.324   6.284   3.829  3.6981 -2.3314  0.8563
11370TIP3   OH255600   0.658   6.570   0.227 -0.5480  0.2228  0.1530
11370TIP3    H155601   0.709   6.521   0.162 -2.4423  0.7756 -1.9021
11370TIP3    H255602   0.706   6.652   0.239 -1.0387  0.9140 -2.0537
11371TIP3   OH255603   1.113   1.647   1.646 -0.2339 -0.7957 -0.1264
11371TIP3    H155604   1.185   1.699   1.682  0.6939 -0.5283 -2.1838
11371TIP3    H255605   1.088   1.588   1.717  2.8004 -1.6702  0.3555
11372TIP3   OH255606   1.430   4.925   3.027  0.2942  0.6407 -0.0040
11372TIP3    H155607   1.501   4.919   2.962 -0.6226  0.1773 -0.9830
11372TIP3    H255608   1.458   4.866   3.097  1.0648  0.7700 -0.1858
11373TIP3   OH255609   2.610   0.671   4.011 -0.2923 -0.0670  0.1604
11373TIP3    H155610   2.515   0.687   4.007 -0.4052 -0.2046  1.5772
11373TIP3    H255611   2.624   0.637   4.100  1.1115  0.0719  0.0081
11374TIP3   OH255612   3.550   4.284   4.160 -0.0172 -0.2533 -0.2215
11374TIP3    H155613   3.521   4.371   4.134 -3.8500 -1.9311 -2.2786
11374TIP3    H255614   3.515   4.272   4.248  0.3368  0.1748 -0.0189
11375TIP3   OH255615   0.289   3.914   1.501  0.2593  0.0156 -0.6353
11375TIP3    H155616   0.211   3.916   1.556  0.2835 -1.6356 -0.4853
11375TIP3    H255617   0.357   3.956   1.554 -0.3139  0.7044 -0.4320
11376TIP3   OH255618   3.969   2.220   4.727 -0.0209  0.1295 -0.1352
11376TIP3    H155619   3.939   2.139   4.768 -0.1996  0.2845  0.0419
11376TIP3    H255620   3.921   2.226   4.645  1.1575 -0.7641 -0.9307
11377TIP3   OH255621   6.398   1.747  14.947  0.6752 -0.0706  0.3056
11377TIP3    H155622   6.374   1.732  14.856  0.1546 -0.8636  0.5600
11377TIP3    H255623   6.425   1.839  14.951  1.3513 -0.2078 -0.7819
11378TIP3   OH255624   1.643   1.654   5.103  0.1995 -0.3613  0.0683
11378TIP3    H155625   1.713   1.709   5.069 -0.1219  1.4005  2.0307
11378TIP3    H255626   1.582   1.645   5.030 -0.3184  2.9559 -0.0591
11379TIP3   OH255627   0.346   1.639   1.162 -0.0590 -0.1117  0.1024
11379TIP3    H155628   0.265   1.608   1.121 -0.8177  0.2195  1.3174
11379TIP3    H255629   0.415   1.587   1.120 -1.0123 -1.2943 -0.0680
11380TIP3   OH255630   1.532   6.740  13.759 -0.4847  0.4819  0.2881
11380TIP3    H155631   1.499   6.782  13.679  0.6894  1.2061  0.1599
11380TIP3    H255632   1.515   6.647  13.746 -1.0460  0.6780 -0.4448
11381TIP3   OH255633   3.310   4.901   5.046  0.6094  0.0115  0.2537
11381TIP3    H155634   3.279   4.823   4.999  0.0776  0.6788 -0.5171
11381TIP3    H255635   3.283   4.886   5.137 -1.0972  0.0876 -0.1978
11382TIP3   OH255636   0.602   0.285   3.893 -0.0522  0.0310  0.1372
11382TIP3    H155637   0.585   0.191   3.893  0.9875 -0.1974 -1.5602
11382TIP3    H255638   0.688   0.294   3.854 -0.0131  1.6917  0.5192
11383TIP3   OH255639   0.392   6.342  14.324 -0.5403 -0.1724 -0.8514
11383TIP3    H155640   0.310   6.377  14.291 -0.2663  1.3146 -0.0145
11383TIP3    H255641   0.372   6.312  14.412 -0.3853 -0.6180 -0.9667
11384TIP3   OH255642   2.716   6.835  13.445 -0.1964 -0.0307 -0.3136
11384TIP3    H155643   2.792   6.863  13.495 -0.6891 -0.3374  0.6325
11384TIP3    H255644   2.647   6.822  13.511 -1.4408  1.4501 -1.2661
11385TIP3   OH255645   0.659   6.748  14.152  0.1294 -0.5955 -0.2467
11385TIP3    H155646   0.621   6.820  14.203 -2.5656 -1.9381 -0.1691
11385TIP3    H255647   0.627   6.669  14.195  0.4426 -1.8102 -2.1235
11386TIP3   OH255648   5.177   2.671   4.936 -0.3540 -0.4701  0.6362
11386TIP3    H155649   5.246   2.688   5.000  0.8763 -1.0094 -0.4976
11386TIP3    H255650   5.097   2.707   4.976  0.4701 -0.3095  2.2109
11387TIP3   OH255651   0.394   3.443   4.811  0.0701 -0.3690  0.7687
11387TIP3    H155652   0.407   3.405   4.898 -0.6037 -0.6348  0.7633
11387TIP3    H255653   0.365   3.533   4.829 -1.1001 -0.7380  0.8683
11388TIP3   OH255654   5.924   3.309  14.343  0.3286 -0.0881  0.0274
11388TIP3    H155655   5.934   3.389  14.293  1.0323 -0.5888 -0.6525
11388TIP3    H255656   5.842   3.271  14.312 -0.5288  0.8298  1.0516
11389TIP3   OH255657   0.983   2.679  13.764  0.2151  0.5873  0.2984
11389TIP3    H155658   1.041   2.630  13.822 -1.1553 -1.4619  0.0412
11389TIP3    H255659   1.029   2.682  13.680  0.7799  0.7002  0.6094
11390TIP3   OH255660   4.748   4.068   4.478  0.3779  0.0766 -0.4653
11390TIP3    H155661   4.653   4.073   4.477  0.3935  0.6054  0.2911
11390TIP3    H255662   4.772   4.061   4.385 -0.2751  2.6239 -0.9036
11391TIP3   OH255663   0.563   6.693  11.736 -0.5429  0.0366  0.3699
11391TIP3    H155664   0.531   6.603  11.742  2.1255 -1.1643 -1.4289
11391TIP3    H255665   0.536   6.722  11.649 -1.1191  0.8846  0.8195
11392TIP3   OH255666   3.901   5.416   6.066  0.1556  0.3791 -0.0870
11392TIP3    H155667   3.894   5.377   6.153  0.6955 -0.1147 -0.2627
11392TIP3    H255668   3.810   5.434   6.040  0.0132  1.0393  0.8000
11393TIP3   OH255669   1.167   0.241   1.032 -0.0356  0.0433 -0.0251
11393TIP3    H155670   1.117   0.308   1.077  0.0523  0.0224  0.1053
11393TIP3    H255671   1.254   0.244   1.073  0.0521  0.0397 -0.2079
11394TIP3   OH255672   6.410   3.391   2.265  0.1205  0.1893  0.2517
11394TIP3    H155673   6.421   3.472   2.315 -0.3186  1.8348 -2.1833
11394TIP3    H255674   6.498   3.369   2.235  0.3881 -0.8158  1.6359
11395TIP3   OH255675   1.140   3.004   0.302 -0.0705 -0.1089  0.1645
11395TIP3    H155676   1.181   2.920   0.279 -0.8573 -0.6904  0.8015
11395TIP3    H255677   1.125   3.047   0.218  0.5695 -0.4969 -0.1602
11396TIP3   OH255678   6.022   0.688  15.901  0.0196 -0.3301 -0.2865
11396TIP3    H155679   5.959   0.620  15.927 -1.0330  0.9895  0.7377
11396TIP3    H255680   6.093   0.639  15.859 -0.5373 -2.1006  0.7065
11397TIP3   OH255681   4.441   3.468  12.135  0.3212 -0.3006 -0.4330
11397TIP3    H155682   4.482   3.429  12.058  0.3611 -0.1895 -0.4670
11397TIP3    H255683   4.488   3.430  12.210 -0.7337 -1.6407 -0.3907
11398TIP3   OH255684   1.214   3.048  10.464  0.1542 -0.2205  0.1264
11398TIP3    H155685   1.120   3.029  10.468 -0.4853  2.3059 -0.6549
11398TIP3    H255686   1.249   2.982  10.404 -1.0108 -1.5369  0.8383
11399TIP3   OH255687   0.292   1.249  10.987 -0.0790  0.4171 -0.1263
11399TIP3    H155688   0.243   1.316  10.939 -1.8902  0.4923  1.6772
11399TIP3    H255689   0.322   1.293  11.066  0.1341 -0.4828  0.3101
11400TIP3   OH255690   3.682   4.838   5.661 -0.4639  0.1897  0.2384
11400TIP3    H155691   3.776   4.830   5.678  0.4081 -1.2259 -4.0874
11400TIP3    H255692   3.663   4.930   5.676  2.1057  0.9491 -0.7160
11401TIP3   OH255693   3.401   3.637  13.985  0.2586 -0.2536  0.1565
11401TIP3    H155694   3.482   3.606  13.944 -0.1125 -1.0446  0.0145
11401TIP3    H255695   3.430   3.705  14.046  0.6647  2.7086 -3.0422
11402TIP3   OH255696   3.750   4.883  15.131  0.7836  0.8365 -0.0242
11402TIP3    H155697   3.697   4.853  15.057  0.8788  1.0960 -0.2027
11402TIP3    H255698   3.836   4.844  15.116  0.2157 -1.0012  1.1815
11403TIP3   OH255699   1.487   0.589  11.144 -0.2596  0.0106  0.6219
11403TIP3    H155700   1.528   0.618  11.062 -0.0793 -1.0040  0.3379
11403TIP3    H255701   1.490   0.665  11.201  0.8109  0.3468  0.1319
11404TIP3   OH255702   2.984   5.888   3.939 -0.0887  0.1039  0.1897
11404TIP3    H155703   3.007   5.937   3.860  2.2237  1.1698  1.4432
11404TIP3    H255704   2.931   5.949   3.991 -1.5315 -0.5648 -0.4232
11405TIP3   OH255705   6.022   0.465  10.319 -0.1132  0.3532  0.0641
11405TIP3    H155706   5.952   0.487  10.257 -0.3867  0.9761  0.5741
11405TIP3    H255707   6.036   0.546  10.368 -0.1602 -0.2290  1.0703
11406TIP3   OH255708   5.637   4.551   1.567 -0.5920 -0.2688 -0.3683
11406TIP3    H155709   5.643   4.642   1.537  1.2180  0.3998  1.7836
11406TIP3    H255710   5.615   4.558   1.660 -0.8411 -2.0651 -0.2571
11407TIP3   OH255711   6.439   4.847   1.006  0.3259  0.1639 -0.4573
11407TIP3    H155712   6.460   4.937   1.030  0.6811 -0.4600  1.7782
11407TIP3    H255713   6.348   4.835   1.032  0.9357 -0.7529  1.4102
11408TIP3   OH255714   2.387   5.808   3.456  0.4587  0.1193  0.3341
11408TIP3    H155715   2.452   5.769   3.398  1.7072  0.3705  1.5076
11408TIP3    H255716   2.430   5.811   3.541 -0.8905  0.8454  1.0193
11409TIP3   OH255717   4.812   1.357   5.836  0.0358  0.3943 -0.4439
11409TIP3    H155718   4.758   1.412   5.893 -0.7820 -0.2224 -0.6093
11409TIP3    H255719   4.900   1.360   5.875 -0.3326  0.6468  0.3721
11410TIP3   OH255720   6.149   5.603  15.959 -0.2108 -0.0980  0.3353
11410TIP3    H155721   6.116   5.591  16.048 -2.2049 -1.5281 -0.5060
11410TIP3    H255722   6.117   5.526  15.911  0.0768  1.0388 -1.8135
11411TIP3   OH255723   6.261   3.205  13.156  0.0790 -0.1082  0.4986
11411TIP3    H155724   6.329   3.140  13.137  0.8347  0.8614 -0.2428
11411TIP3    H255725   6.308   3.276  13.199 -0.5440  0.3850  0.3803
11412TIP3   OH255726   5.663   6.384   3.744  0.2609 -0.1986 -0.0759
11412TIP3    H155727   5.718   6.312   3.712 -0.9368 -0.2861 -2.1065
11412TIP3    H255728   5.645   6.437   3.667  0.2573  1.7555  1.1858
11413TIP3   OH255729   2.104   1.801   4.010 -0.1454 -0.1133 -0.2242
11413TIP3    H155730   2.127   1.894   4.013  0.1988 -0.1996  2.9581
11413TIP3    H255731   2.078   1.779   4.100  0.3056 -3.2196 -0.7263
11414TIP3   OH255732   1.037   4.919  11.639 -0.1419 -0.5409 -0.5207
11414TIP3    H155733   1.071   4.953  11.555  1.1240 -0.9617 -0.2094
11414TIP3    H255734   1.067   4.983  11.704 -2.7640  0.8356 -0.5487
11415TIP3   OH255735   0.880   5.562  11.171 -0.4208 -0.0610  0.0197
11415TIP3    H155736   0.882   5.638  11.230 -0.4499  0.2809 -0.4191
11415TIP3    H255737   0.787   5.546  11.156 -0.4800 -1.0671  1.2304
11416TIP3   OH255738   3.088   1.389   5.669  0.0050  0.0500  0.4623
11416TIP3    H155739   3.137   1.319   5.713  0.7293 -0.4766 -1.1065
11416TIP3    H255740   3.012   1.345   5.633  1.6327 -0.5574 -2.5865
11417TIP3   OH255741   6.774   3.428  12.519 -1.0775 -0.1596 -0.4184
11417TIP3    H155742   6.784   3.427  12.614 -1.0082 -1.4602 -0.4254
11417TIP3    H255743   6.824   3.504  12.491 -1.3097  0.3885  0.6024
11418TIP3   OH255744   0.429   3.910   3.931 -0.3360  0.2828 -0.1103
11418TIP3    H155745   0.422   3.908   3.835 -1.4880  0.0470 -0.0404
11418TIP3    H255746   0.519   3.885   3.949  0.0818  0.9714 -1.1574
11419TIP3   OH255747   4.674   2.029   5.553  0.0414  0.4781 -0.9139
11419TIP3    H155748   4.651   2.120   5.536  0.7539  1.0115  0.7642
11419TIP3    H255749   4.748   2.011   5.495  0.7810  1.4175 -0.2913
11420TIP3   OH255750   5.628   1.838  12.663  0.4367  0.1384  0.8391
11420TIP3    H155751   5.604   1.755  12.623  0.0750 -0.3658  2.0570
11420TIP3    H255752   5.627   1.901  12.590  0.3291 -0.8305 -0.0235
11421TIP3   OH255753   3.013   1.630  16.814 -0.5521 -0.0807  0.3815
11421TIP3    H155754   3.028   1.650  16.722  2.2326  0.7731  0.9281
11421TIP3    H255755   2.957   1.552  16.813 -0.5460 -0.1237 -1.9952
11422TIP3   OH255756   2.457   4.409  13.737 -0.1722 -0.1878  0.0512
11422TIP3    H155757   2.411   4.460  13.804 -0.1450 -2.4520  1.9374
11422TIP3    H255758   2.550   4.425  13.754 -0.1675  0.8506 -0.8400
11423TIP3   OH255759   4.692   3.000  14.925 -0.3946 -0.4129  0.1733
11423TIP3    H155760   4.603   2.975  14.948 -0.3951 -0.5819 -0.0126
11423TIP3    H255761   4.714   2.944  14.850 -0.5403  0.4125 -0.5015
11424TIP3   OH255762   4.318   3.033   5.039  0.0315 -0.4582  0.2084
11424TIP3    H155763   4.356   2.947   5.056 -0.7310 -0.7448  0.4864
11424TIP3    H255764   4.225   3.016   5.026  0.0684  0.1624 -1.0324
11425TIP3   OH255765   0.836   4.501  14.629  0.3729 -0.0744  0.0992
11425TIP3    H155766   0.880   4.563  14.571 -0.2231 -0.4670 -0.8037
11425TIP3    H255767   0.872   4.416  14.603 -1.1403 -0.4518 -0.9243
11426TIP3   OH255768   3.138   0.498  13.580 -0.3652 -0.5649 -0.8308
11426TIP3    H155769   3.105   0.446  13.507  0.7740 -0.2735 -1.5820
11426TIP3    H255770   3.231   0.508  13.562 -0.2606  0.3815  0.1331
11427TIP3   OH255771   4.730   2.171   1.058 -0.3657 -0.1538  0.0595
11427TIP3    H155772   4.664   2.103   1.076  0.6659 -0.9813  0.8451
11427TIP3    H255773   4.730   2.226   1.136 -1.5424  1.0970 -0.7691
11428TIP3   OH255774   5.042   1.121  15.054 -0.3854  0.1586  0.1797
11428TIP3    H155775   5.120   1.067  15.068 -0.1818  0.2069 -0.7118
11428TIP3    H255776   4.978   1.087  15.117  0.1626 -0.2652  0.5178
11429TIP3   OH255777   2.567   0.323  13.416  0.0767  0.2987 -0.2673
11429TIP3    H155778   2.551   0.229  13.407 -0.0099  0.3985 -1.2486
11429TIP3    H255779   2.616   0.347  13.337 -2.5702  1.6354 -1.6337
11430TIP3   OH255780   1.073   2.171   2.303  0.0733 -0.5906  0.0501
11430TIP3    H155781   1.125   2.234   2.253 -0.2165 -0.3822  0.0075
11430TIP3    H255782   1.002   2.147   2.244 -0.8112  0.3737  0.6839
11431TIP3   OH255783   5.660   0.101   2.082 -0.5669  0.1937  0.4604
11431TIP3    H155784   5.691   0.136   2.166 -0.7091 -0.6584  0.8701
11431TIP3    H255785   5.666   0.006   2.091 -0.6156  0.0888 -0.4848
11432TIP3   OH255786   6.474   1.984  17.195 -0.4541  0.2685  0.2523
11432TIP3    H155787   6.543   1.997  17.129 -0.2313 -0.7250  0.2784
11432TIP3    H255788   6.501   2.039  17.269  0.7107 -0.6524  0.5510
11433TIP3   OH255789   0.818   6.602   4.551 -0.2397 -0.0978  0.7398
11433TIP3    H155790   0.900   6.571   4.590  0.1958  0.4866  0.3030
11433TIP3    H255791   0.759   6.613   4.625  0.6946  1.3838  1.3114
11434TIP3   OH255792   6.173   5.119  12.378 -0.0447  0.0163 -0.1802
11434TIP3    H155793   6.179   5.206  12.418 -0.7646  0.7153 -1.5224
11434TIP3    H255794   6.099   5.077  12.423 -0.7636  0.7445 -0.6490
11435TIP3   OH255795   6.636   0.017  12.736  0.0026  0.2596  0.9480
11435TIP3    H155796   6.601   0.084  12.794 -2.7154  0.0450 -0.2594
11435TIP3    H255797   6.655   0.063  12.654  3.1683  0.4355  1.6527
11436TIP3   OH255798   4.089   2.339   2.994 -0.1968  0.3868  0.0040
11436TIP3    H155799   4.090   2.365   3.086  0.7027  0.0370  0.1053
11436TIP3    H255800   4.030   2.264   2.991  0.5985 -0.2728  0.4973
11437TIP3   OH255801   2.608   6.807   0.908  0.8183  0.0569  0.0801
11437TIP3    H155802   2.654   6.828   0.826  1.0648  0.4879  0.3231
11437TIP3    H255803   2.640   6.872   0.970 -1.1913  1.2964 -0.0912
11438TIP3   OH255804   5.929   6.148   6.150  0.1826 -0.2110 -0.0757
11438TIP3    H155805   6.010   6.098   6.146  0.4396  0.2316 -0.5205
11438TIP3    H255806   5.862   6.083   6.171  0.6525 -0.5729  0.3346
11439TIP3   OH255807   4.409   1.361  11.721 -0.1376 -0.1011 -0.0650
11439TIP3    H155808   4.366   1.277  11.705  0.0444 -0.1752 -0.1671
11439TIP3    H255809   4.396   1.410  11.639  1.5092 -0.7862 -0.7694
11440TIP3   OH255810   4.140   5.694  15.639 -0.1669  0.2264  0.5311
11440TIP3    H155811   4.221   5.692  15.587  0.6092 -0.9542  1.7375
11440TIP3    H255812   4.119   5.602  15.655 -2.6662  0.4012 -1.0447
11441TIP3   OH255813   0.322   3.962  12.739 -0.6512 -0.0618 -0.1299
11441TIP3    H155814   0.380   3.991  12.809 -2.5853  0.1768  1.4617
11441TIP3    H255815   0.380   3.943  12.665  1.3082  1.2296  1.0061
11442TIP3   OH255816   5.989   0.131  14.992 -0.0146  0.0316 -0.8174
11442TIP3    H155817   6.062   0.110  15.051 -0.8556 -2.4167 -0.5009
11442TIP3    H255818   5.931   0.055  15.000 -1.5238  0.9247 -2.7144
11443TIP3   OH255819   0.309   5.102  16.435 -0.7001 -0.1257 -0.1949
11443TIP3    H155820   0.364   5.035  16.394 -1.1877 -0.6769  0.0276
11443TIP3    H255821   0.261   5.054  16.504  0.9419  0.9739  1.8440
11444TIP3   OH255822   6.457   6.542  17.181 -0.5500  0.0955  0.1887
11444TIP3    H155823   6.530   6.527  17.122 -0.0924  0.3390  0.6899
11444TIP3    H255824   6.430   6.454  17.208 -0.2514  0.0155  0.2319
11445TIP3   OH255825   1.808   0.562  11.431  0.1727 -0.0886 -0.0497
11445TIP3    H155826   1.790   0.645  11.386  1.7619  0.3414  0.0483
11445TIP3    H255827   1.767   0.495  11.375  0.8576  0.5698 -1.3984
11446TIP3   OH255828   5.039   2.092   5.523  0.0178 -0.0308 -0.0403
11446TIP3    H155829   5.132   2.111   5.508  0.1156  0.3041  0.9203
11446TIP3    H255830   5.007   2.166   5.573 -0.3907 -0.8664  0.9759
11447TIP3   OH255831   4.090   0.075  14.138  0.1417  0.0599 -0.3630
11447TIP3    H155832   4.041   0.137  14.085  0.6710  1.6033  0.8624
11447TIP3    H255833   4.180   0.083  14.106  0.1579 -0.3284 -0.4185
11448TIP3   OH255834   0.642   0.386  14.304  0.0901 -0.2102  0.2708
11448TIP3    H155835   0.603   0.457  14.354  1.2836 -0.7829  2.1098
11448TIP3    H255836   0.734   0.409  14.296  0.8429 -2.1395  2.2074
11449TIP3   OH255837   5.114   6.578  12.258 -0.2336 -0.0226 -0.0067
11449TIP3    H155838   5.038   6.587  12.201  0.7257  0.3777 -1.2612
11449TIP3    H255839   5.178   6.528  12.207  0.8603  0.8185  0.4865
11450TIP3   OH255840   5.627   0.828   3.689 -0.0909  0.1837  0.1061
11450TIP3    H155841   5.694   0.896   3.688 -0.5406  0.6951 -2.2785
11450TIP3    H255842   5.556   0.863   3.636 -1.8611 -0.7611  1.7143
11451TIP3   OH255843   3.180   2.856  12.929  1.1902  0.6505 -0.0873
11451TIP3    H155844   3.267   2.879  12.961  1.3600  0.1708 -0.1891
11451TIP3    H255845   3.161   2.919  12.860  1.1298  1.2361  0.4522
11452TIP3   OH255846   3.978   3.911   1.855  0.1214 -0.3565  0.3732
11452TIP3    H155847   3.979   3.825   1.896  0.9210 -0.3376  0.3954
11452TIP3    H255848   3.918   3.963   1.910 -0.6017 -0.9685  0.1866
11453TIP3   OH255849   2.935   0.101  12.048 -0.1189 -0.8648  0.1156
11453TIP3    H155850   2.868   0.075  12.111  0.3762 -0.3514  0.8701
11453TIP3    H255851   3.013   0.051  12.074  0.5625  0.5836  0.9812
11454TIP3   OH255852   0.448   5.694  15.276 -0.0603 -0.0297 -0.1143
11454TIP3    H155853   0.537   5.724  15.259  0.2293 -0.0309  1.3125
11454TIP3    H255854   0.398   5.722  15.199  1.2289 -0.3275 -1.0754
11455TIP3   OH255855   5.706   1.222   5.765  0.0304 -0.1162 -1.0032
11455TIP3    H155856   5.654   1.264   5.696 -0.4055  0.1658 -0.5088
11455TIP3    H255857   5.676   1.263   5.846  0.7155 -0.2709 -0.6677
11456TIP3   OH255858   6.391   4.257  13.968  0.0293 -0.0769  0.7351
11456TIP3    H155859   6.433   4.246  13.882 -0.7133  1.4054  0.1553
11456TIP3    H255860   6.320   4.193  13.968 -0.7185  0.7169 -0.2680
11457TIP3   OH255861   1.329   0.746  12.215 -0.2344 -0.1851  0.4159
11457TIP3    H155862   1.269   0.813  12.248 -2.1557 -1.4705 -0.3313
11457TIP3    H255863   1.353   0.776  12.128  1.2684  0.9466  1.1665
11458TIP3   OH255864   2.995   1.991   3.442  0.2762 -0.5694  0.6103
11458TIP3    H155865   2.957   2.002   3.530 -2.3844 -1.0879 -0.3984
11458TIP3    H255866   2.952   2.058   3.389  0.6372 -1.3068 -0.6492
11459TIP3   OH255867   6.527   0.264  16.234  0.0263  0.5131 -0.1332
11459TIP3    H155868   6.469   0.310  16.295  1.0646  1.9151 -0.1638
11459TIP3    H255869   6.601   0.323  16.222  2.4873 -2.0219  1.4140
11460TIP3   OH255870   4.421   6.099  14.552 -0.1662  0.1604  0.2698
11460TIP3    H155871   4.328   6.103  14.577 -0.4502  0.7195 -0.8215
11460TIP3    H255872   4.468   6.101  14.636 -1.1526 -1.6705  0.9254
11461TIP3   OH255873   5.535   2.506  15.118 -0.2085 -0.0841 -0.0011
11461TIP3    H155874   5.560   2.466  15.201  0.7777  1.1042  0.3065
11461TIP3    H255875   5.617   2.512  15.068 -0.7485 -0.5600 -0.9647
11462TIP3   OH255876   4.978   2.783   1.669 -0.2869 -0.3952  0.7191
11462TIP3    H155877   4.904   2.740   1.712 -0.8288 -0.4795 -0.2678
11462TIP3    H255878   5.045   2.714   1.662 -0.7563 -0.8029  0.0965
11463TIP3   OH255879   0.405   4.686   6.160  0.2448 -0.0063 -0.1164
11463TIP3    H155880   0.462   4.748   6.114  2.1428 -0.2915  1.7211
11463TIP3    H255881   0.359   4.740   6.225 -1.2929  0.1372 -1.2713
11464TIP3   OH255882   5.794   4.465  14.215  0.7568  0.1221 -0.4363
11464TIP3    H155883   5.765   4.502  14.299  0.7878  0.0759 -0.4055
11464TIP3    H255884   5.777   4.371  14.222  2.6668 -0.2050  0.3157
11465TIP3   OH255885   1.572   6.195   2.215  0.6242  0.2704  0.4565
11465TIP3    H155886   1.543   6.110   2.249  1.3799  0.2165  0.9926
11465TIP3    H255887   1.492   6.249   2.215 -0.5977 -1.2426 -2.7117
11466TIP3   OH255888   5.056   3.834  11.115  0.9329 -0.2267 -0.1266
11466TIP3    H155889   5.102   3.750  11.110 -0.6736 -1.0993 -1.2273
11466TIP3    H255890   4.965   3.811  11.131  0.4787  1.3124 -0.3153
11467TIP3   OH255891   6.544   4.263  17.196 -0.1945  0.5343 -0.1410
11467TIP3    H155892   6.524   4.347  17.155 -2.2656 -0.1277 -0.6193
11467TIP3    H255893   6.462   4.213  17.189  1.2418 -1.8709 -0.7285
11468TIP3   OH255894   2.198   0.753   3.478  0.0843 -0.0462  0.3245
11468TIP3    H155895   2.285   0.771   3.514 -0.2192  0.1767  0.9695
11468TIP3    H255896   2.139   0.807   3.531 -0.5831 -1.1220  0.6932
11469TIP3   OH255897   1.655   3.596  13.805 -0.4058  0.2626 -0.4447
11469TIP3    H155898   1.645   3.538  13.730 -0.2692 -0.8926  0.3985
11469TIP3    H255899   1.581   3.656  13.799 -0.0108  0.6542 -1.8702
11470TIP3   OH255900   5.621   6.184  15.223 -0.3131  0.4040  0.2486
11470TIP3    H155901   5.565   6.175  15.146 -0.3489  1.6721  0.0980
11470TIP3    H255902   5.568   6.152  15.296 -0.6085  0.0344 -0.1241
11471TIP3   OH255903   5.385   4.737  14.602  0.2946  0.4560  0.0584
11471TIP3    H155904   5.423   4.669  14.658  1.3779  1.2082  0.2811
11471TIP3    H255905   5.300   4.703  14.576  0.5354 -0.6849  0.7148
11472TIP3   OH255906   1.296   6.747   6.159  0.1172  0.7833 -0.1123
11472TIP3    H155907   1.316   6.798   6.238  0.9893 -1.3665  1.1540
11472TIP3    H255908   1.243   6.674   6.191  1.7443 -0.9622 -1.2141
11473TIP3   OH255909   6.127   1.229   0.759  0.3799 -0.7001 -0.0010
11473TIP3    H155910   6.107   1.311   0.715 -0.3815 -1.4397 -1.1056
11473TIP3    H255911   6.216   1.207   0.732  0.2817 -0.6476 -0.3613
11474TIP3   OH255912   3.948   2.175  14.350  0.3217 -0.0093 -0.4228
11474TIP3    H155913   4.010   2.247  14.340 -1.5725  1.5344 -2.0153
11474TIP3    H255914   3.950   2.130  14.265  2.3774 -2.7445  0.9265
11475TIP3   OH255915   2.453   4.954   2.165 -0.1473  0.4350 -0.2198
11475TIP3    H155916   2.548   4.944   2.162 -0.2805 -0.8284 -0.5460
11475TIP3    H255917   2.431   5.002   2.085  0.2986  1.6862  0.3730
11476TIP3   OH255918   1.160   6.216   2.188 -0.1085  0.7097 -0.5230
11476TIP3    H155919   1.181   6.285   2.124 -0.5610  0.5812 -0.8179
11476TIP3    H255920   1.192   6.250   2.271 -0.9043  1.5705 -0.5526
11477TIP3   OH255921   0.362   0.660  11.271 -0.3594  0.6571  0.1926
11477TIP3    H155922   0.425   0.596  11.238 -0.5499  0.9811 -0.8514
11477TIP3    H255923   0.334   0.625  11.356  1.5152  0.7307  0.8763
11478TIP3   OH255924   5.001   4.503  15.275  0.1631 -0.1348 -0.1980
11478TIP3    H155925   4.910   4.487  15.300  0.1741 -0.8135 -0.5639
11478TIP3    H255926   5.052   4.440  15.327  0.2922 -0.7224 -1.0249
11479TIP3   OH255927   6.723   5.886  14.134 -0.2048  0.5295 -0.5594
11479TIP3    H155928   6.646   5.917  14.180 -0.0727 -0.6363  0.5006
11479TIP3    H255929   6.688   5.835  14.060 -0.4970 -0.7725  0.4437
11480TIP3   OH255930   3.455   3.205  14.612  0.2614 -0.5312 -0.6655
11480TIP3    H155931   3.436   3.131  14.669  1.2111 -0.7800 -0.6501
11480TIP3    H255932   3.545   3.229  14.634 -0.0061  0.5718 -0.7349
11481TIP3   OH255933   2.730   3.337  15.411 -0.0886 -0.3167  0.0669
11481TIP3    H155934   2.798   3.301  15.354 -0.7766  0.1443 -1.0667
11481TIP3    H255935   2.648   3.317  15.367 -0.8335 -1.9531  2.0185
11482TIP3   OH255936   2.210   1.162  13.249  0.1473 -0.3110 -0.4225
11482TIP3    H155937   2.215   1.209  13.165 -0.8016  0.4433 -0.0731
11482TIP3    H255938   2.206   1.070  13.224  0.1362 -0.1115 -1.1973
11483TIP3   OH255939   5.359   3.765  16.324  0.0267  0.0951  0.5031
11483TIP3    H155940   5.293   3.788  16.389  0.4710  0.5744  0.7910
11483TIP3    H255941   5.309   3.727  16.251 -0.5225  0.0543  0.8956
11484TIP3   OH255942   1.164   4.913  15.012 -0.5531 -0.3099  0.1687
11484TIP3    H155943   1.103   4.846  15.042 -1.4894  0.2578 -0.4140
11484TIP3    H255944   1.139   4.930  14.922  0.9992 -0.6275 -0.3594
11485TIP3   OH255945   5.700   1.181  11.918 -0.1426  0.4506 -0.6179
11485TIP3    H155946   5.749   1.180  11.836 -0.1123  0.2088 -0.5973
11485TIP3    H255947   5.609   1.194  11.892  0.1082  2.7887 -0.5716
11486TIP3   OH255948   5.892   0.755  14.465  0.1516  0.5336 -0.5380
11486TIP3    H155949   5.927   0.718  14.546  0.8630  1.0788 -0.5900
11486TIP3    H255950   5.968   0.792  14.420 -0.0897 -0.4627 -1.8467
11487TIP3   OH255951   5.379   0.844   2.438 -0.4885  0.8406  0.7099
11487TIP3    H155952   5.467   0.858   2.403 -0.8691 -0.2658 -0.8037
11487TIP3    H255953   5.370   0.909   2.508  0.5708  2.7877 -0.8603
11488TIP3   OH255954   5.267   5.018   6.158 -0.3204  0.0994  0.2507
11488TIP3    H155955   5.313   4.999   6.240 -0.4674  0.5764  0.4480
11488TIP3    H255956   5.176   5.030   6.185 -0.5575 -0.7875 -0.1285
11489TIP3   OH255957   1.114   0.816  16.639 -0.3211  0.4012 -0.2643
11489TIP3    H155958   1.026   0.784  16.657 -0.4280  1.3435  1.0220
11489TIP3    H255959   1.133   0.877  16.711  0.2596  2.4075 -1.9982
11490TIP3   OH255960   5.191   6.376   6.517 -0.0473 -0.0266  0.0074
11490TIP3    H155961   5.174   6.307   6.582  0.1663  0.8346  0.9984
11490TIP3    H255962   5.195   6.329   6.433 -0.0028 -1.2043  0.6467
11491TIP3   OH255963   2.423   5.467  13.429  0.4212  0.0180  0.0240
11491TIP3    H155964   2.459   5.382  13.451 -0.6836 -0.5456 -0.2528
11491TIP3    H255965   2.399   5.460  13.336  2.4473  1.4185 -0.6846
11492TIP3   OH255966   5.963   1.294  12.312 -0.9194 -0.2659  0.7086
11492TIP3    H155967   5.998   1.366  12.259  1.2548 -1.1612  0.8663
11492TIP3    H255968   5.912   1.242  12.250 -1.6898  0.8211  0.3867
11493TIP3   OH255969   2.728   3.056  12.528 -0.0169  0.1464  0.2778
11493TIP3    H155970   2.716   2.962  12.509  0.0377 -0.1128  1.4476
11493TIP3    H255971   2.795   3.084  12.466 -1.5568 -0.0521 -1.5866
11494TIP3   OH255972   5.220   6.476  16.443 -0.2119  0.1429  0.0309
11494TIP3    H155973   5.169   6.437  16.371 -0.7035 -0.6893  0.8109
11494TIP3    H255974   5.268   6.548  16.402  0.3814 -1.0106 -1.3707
11495TIP3   OH255975   2.710   2.723  15.760  0.1581 -0.2660  0.3308
11495TIP3    H155976   2.631   2.761  15.798 -0.7928  0.2825 -2.0217
11495TIP3    H255977   2.719   2.638  15.803 -2.8883 -1.2205 -0.6349
11496TIP3   OH255978   5.590   1.394   0.752 -0.0298  0.5999 -0.2123
11496TIP3    H155979   5.601   1.366   0.843  0.0920 -2.8390 -1.1131
11496TIP3    H255980   5.679   1.393   0.716 -0.2071  0.6341 -0.6545
11497TIP3   OH255981   6.452   0.968  13.167 -0.2061 -0.3863 -0.2082
11497TIP3    H155982   6.504   1.046  13.145 -0.4869 -0.6049 -1.7294
11497TIP3    H255983   6.366   0.985  13.129 -1.5474  0.2283  2.7710
11498TIP3   OH255984   5.740   5.340   3.520 -0.0373 -0.1695 -0.9219
11498TIP3    H155985   5.738   5.255   3.563  0.3687 -0.9525 -2.3716
11498TIP3    H255986   5.679   5.394   3.570  0.7492 -0.8694  0.8830
11499TIP3   OH255987   3.621   6.712   1.567 -0.7455 -0.2416 -0.2775
11499TIP3    H155988   3.645   6.743   1.480  0.8608 -1.8748 -0.4764
11499TIP3    H255989   3.602   6.619   1.555  0.7614 -0.8073  1.2821
11500TIP3   OH255990   3.061   3.597   5.065 -0.5476 -0.3128  0.0066
11500TIP3    H155991   3.142   3.566   5.026 -0.1979  0.7088 -0.1173
11500TIP3    H255992   3.040   3.532   5.132  1.4361  0.3897  1.3930
11501TIP3   OH255993   3.463   0.556  10.339  0.5320 -0.1682 -0.3085
11501TIP3    H155994   3.378   0.513  10.331  1.0502 -1.4033  0.5151
11501TIP3    H255995   3.451   0.618  10.412  0.6028 -1.0859  0.5117
11502TIP3   OH255996   5.821   5.667   3.112 -0.1881  0.1891  0.0945
11502TIP3    H155997   5.884   5.614   3.063  1.7375  1.5940  0.9030
11502TIP3    H255998   5.800   5.614   3.189  1.0866  0.2292  0.4892
11503TIP3   OH255999   3.946   2.543   5.343  0.3346  0.1943  0.2581
11503TIP3    H156000   4.023   2.493   5.317  1.0410  1.2883  0.1685
11503TIP3    H256001   3.945   2.618   5.283 -1.7558 -0.6288 -0.8340
11504TIP3   OH256002   3.028   2.904   6.433  0.1797 -0.3060  0.2843
11504TIP3    H156003   2.944   2.861   6.443 -0.6171  1.2359  0.5543
11504TIP3    H256004   3.085   2.860   6.496 -0.6760 -0.7643  0.7557
11505TIP3   OH256005   5.650   1.916   2.865  0.7441 -0.0157  0.6813
11505TIP3    H156006   5.652   1.975   2.790  0.8019  0.6998  1.2375
11505TIP3    H256007   5.742   1.906   2.889  0.7219 -0.2111  0.6850
11506TIP3   OH256008   1.998   5.186  12.660 -0.0830 -0.3200 -0.0304
11506TIP3    H156009   2.012   5.211  12.751 -1.2454  0.7617 -0.1099
11506TIP3    H256010   1.997   5.270  12.612 -1.0925 -0.7277 -0.7751
11507TIP3   OH256011   0.739   4.395  13.009  0.3148  0.0346 -0.3540
11507TIP3    H156012   0.728   4.354  12.923 -2.4199  1.6711 -0.9119
11507TIP3    H256013   0.708   4.485  12.997  1.4954  0.8481  1.9709
11508TIP3   OH256014   5.315   1.576  11.589 -0.7800  0.4842  0.0134
11508TIP3    H156015   5.371   1.500  11.577 -3.3473 -1.3586 -1.0734
11508TIP3    H256016   5.301   1.581  11.684  2.0918  1.8237  0.5146
11509TIP3   OH256017   3.802   1.170  11.348 -0.1787  0.2752 -0.1409
11509TIP3    H156018   3.886   1.161  11.304  0.1220  0.7177  0.3265
11509TIP3    H256019   3.748   1.101  11.311  0.8015 -0.8685  0.4873
11510TIP3   OH256020   3.385   1.624  17.020  0.1713 -0.4479  0.1669
11510TIP3    H156021   3.381   1.712  16.982 -1.1823 -0.2263  0.7574
11510TIP3    H256022   3.406   1.566  16.946 -2.0609  0.0009 -0.9086
11511TIP3   OH256023   4.580   6.102  12.040  0.3848 -0.3657 -0.9850
11511TIP3    H156024   4.636   6.151  11.981  0.7457  0.9322  0.3748
11511TIP3    H256025   4.494   6.144  12.032  0.2832 -0.5783 -1.0263
11512TIP3   OH256026   2.620   0.872  14.519 -0.1270  0.1502 -0.1928
11512TIP3    H156027   2.654   0.788  14.551 -1.1886 -0.4006 -0.4614
11512TIP3    H256028   2.525   0.866  14.534 -0.0859  1.8252  0.9638
11513TIP3   OH256029   6.791   4.021  11.307  0.3334 -0.3054 -0.0413
11513TIP3    H156030   6.739   3.940  11.314  0.3440 -0.4713 -1.6281
11513TIP3    H256031   6.772   4.054  11.220 -0.5453  2.0476  0.9683
11514TIP3   OH256032   2.037   4.732  15.420 -0.1886 -0.2874 -0.1190
11514TIP3    H156033   2.063   4.678  15.345  1.0959 -1.7739  1.3254
11514TIP3    H256034   1.974   4.679  15.468 -1.3333  0.8350 -0.3351
11515TIP3   OH256035   3.816   6.691  16.769  0.2233  0.4578  0.4958
11515TIP3    H156036   3.755   6.625  16.801 -0.9768  2.2072  2.0226
11515TIP3    H256037   3.887   6.640  16.729 -0.1350 -1.7816  2.4812
11516TIP3   OH256038   5.318   1.103   2.200  0.6154  0.0942  0.0257
11516TIP3    H156039   5.382   1.047   2.156 -0.3139  0.6317 -2.1011
11516TIP3    H256040   5.349   1.192   2.186  0.0088  0.3010 -0.0619
11517TIP3   OH256041   2.329   1.821  15.662 -0.6373  0.3998 -0.2675
11517TIP3    H156042   2.288   1.744  15.623 -1.6955  0.1230  1.3088
11517TIP3    H256043   2.256   1.873  15.694  0.1775  0.0744  2.3038
11518TIP3   OH256044   5.042   1.201  13.452 -0.3129 -0.5966 -0.0772
11518TIP3    H156045   5.047   1.278  13.395  0.5460 -1.2974 -0.9726
11518TIP3    H256046   5.104   1.219  13.522 -1.5052  0.3508  0.7926
11519TIP3   OH256047   0.386   4.691  13.617  0.3556  0.4535  0.0391
11519TIP3    H156048   0.374   4.650  13.703 -0.8364  1.1950  0.2376
11519TIP3    H256049   0.457   4.754  13.630  1.4294 -0.7057  0.0099
11520TIP3   OH256050   5.642   2.774   3.813 -0.5563 -0.4441  0.1738
11520TIP3    H156051   5.633   2.678   3.817 -3.2212 -0.3750 -1.6778
11520TIP3    H256052   5.694   2.789   3.734 -1.3783 -0.3653 -0.3647
11521TIP3   OH256053   1.994   4.848   2.371 -0.3526  0.3568 -0.6144
11521TIP3    H156054   1.995   4.756   2.345 -1.1828 -0.0915  0.8198
11521TIP3    H256055   2.055   4.891   2.310  0.7960 -1.2949 -0.6968
11522TIP3   OH256056   2.744   3.976   1.342  0.2370  0.2591  0.3721
11522TIP3    H156057   2.719   3.996   1.252 -0.0337 -1.2246  0.0832
11522TIP3    H256058   2.683   4.026   1.396  0.9275  1.8150 -0.2284
11523TIP3   OH256059   5.807   6.091   0.126  0.2755 -0.6068 -0.1608
11523TIP3    H156060   5.835   6.183   0.120 -0.7241 -0.3530 -1.1311
11523TIP3    H256061   5.833   6.053   0.042 -2.8265 -0.1825 -1.4244
11524TIP3   OH256062   0.606   1.863  15.540  0.8129  0.5881 -0.0958
11524TIP3    H156063   0.549   1.873  15.616  0.2604  1.1708 -0.5771
11524TIP3    H256064   0.577   1.781  15.499  1.3262  0.1036  0.4897
11525TIP3   OH256065   4.213   5.716  12.068 -0.0593 -0.4975  0.5514
11525TIP3    H156066   4.228   5.650  12.000 -1.3375 -1.2824  0.9941
11525TIP3    H256067   4.294   5.715  12.119  0.2227 -1.2086  0.1122
11526TIP3   OH256068   2.684   0.625  14.012  0.4057 -0.0219  0.0848
11526TIP3    H156069   2.630   0.557  13.972 -0.2952  0.9617 -0.7092
11526TIP3    H256070   2.719   0.585  14.092  1.3029 -1.8158 -1.1628
11527TIP3   OH256071   4.195   5.273  12.075 -0.7758  0.0533 -0.5765
11527TIP3    H156072   4.213   5.179  12.067  1.3643  0.4332 -0.6738
11527TIP3    H256073   4.147   5.281  12.157 -0.2443 -1.0514 -0.1345
11528TIP3   OH256074   2.430   2.433   5.331  1.1216  0.6331  0.1451
11528TIP3    H156075   2.381   2.351   5.338  0.9327  0.7862  0.7038
11528TIP3    H256076   2.368   2.501   5.357  1.6630  0.8133  1.0117
11529TIP3   OH256077   3.866   2.307   1.186  0.4330 -1.1414  0.2529
11529TIP3    H156078   3.940   2.257   1.221  2.0372 -0.5859 -2.0842
11529TIP3    H256079   3.898   2.398   1.184 -0.3899 -0.8514 -0.5699
11530TIP3   OH256080   3.843   1.826  10.901  0.0063  0.2264 -0.1342
11530TIP3    H156081   3.813   1.894  10.962  1.7938  0.6835  0.2850
11530TIP3    H256082   3.762   1.795  10.860 -1.4816 -0.8915  3.2085
11531TIP3   OH256083   0.939   6.240   6.292  0.1799  0.7984 -0.3628
11531TIP3    H156084   1.024   6.269   6.326  0.1660  0.2617  0.1548
11531TIP3    H256085   0.917   6.304   6.224  0.1649  1.9882  0.7112
11532TIP3   OH256086   3.368   2.339  16.137  0.4157  0.0223  0.2194
11532TIP3    H156087   3.321   2.379  16.210  1.9738  0.6717  0.9091
11532TIP3    H256088   3.456   2.321  16.171  2.1394  2.8751 -2.1891
11533TIP3   OH256089   1.629   6.800   1.854 -0.3383 -0.4886  0.0448
11533TIP3    H156090   1.633   6.890   1.821  2.4202 -0.0467  1.2515
11533TIP3    H256091   1.625   6.745   1.776  0.7931  0.6308 -0.8448
11534TIP3   OH256092   3.685   4.711   0.357  0.3135  0.1826 -0.6705
11534TIP3    H156093   3.774   4.686   0.378 -0.2268 -0.6577  0.7298
11534TIP3    H256094   3.635   4.630   0.361 -0.7741  0.8630  0.0717
11535TIP3   OH256095   0.185   3.873   2.604 -0.4096  0.1701 -0.2040
11535TIP3    H156096   0.174   3.797   2.547  0.8106 -0.1513 -0.0420
11535TIP3    H256097   0.196   3.947   2.545  0.2309 -0.0684 -0.3919
11536TIP3   OH256098   3.718   0.322  15.485  0.0294  0.1711  0.6134
11536TIP3    H156099   3.808   0.289  15.484 -0.6612 -1.8454  0.5935
11536TIP3    H256100   3.728   0.417  15.479  2.1956  0.1503  2.3869
11537TIP3   OH256101   0.001   6.758   0.608 -0.0093  0.5938  0.1657
11537TIP3    H156102  -0.030   6.784   0.522 -0.6149 -1.7192 -0.3826
11537TIP3    H256103   0.095   6.745   0.596 -0.3645 -1.6114 -0.7432
11538TIP3   OH256104   3.504   2.974   3.381 -0.1752  0.3370 -0.1903
11538TIP3    H156105   3.418   2.961   3.421  0.7077  0.3181  1.8028
11538TIP3    H256106   3.549   2.890   3.393  0.0717  0.2496 -1.4848
11539TIP3   OH256107   6.219   0.937   1.713 -0.2963  0.0836  0.0252
11539TIP3    H156108   6.278   0.979   1.650 -0.5328 -0.5102 -0.6100
11539TIP3    H256109   6.133   0.970   1.691 -0.7335 -1.8601 -1.5388
11540TIP3   OH256110   2.728   2.589   2.483 -0.3527 -0.0676  0.0157
11540TIP3    H156111   2.636   2.616   2.480  0.4805  3.2186  0.0769
11540TIP3    H256112   2.738   2.548   2.569 -1.1232  2.5642  1.4747
11541TIP3   OH256113   3.298   2.067  14.064 -0.1273  0.3029  0.1632
11541TIP3    H156114   3.252   1.984  14.052 -0.2374  0.4519 -0.5260
11541TIP3    H256115   3.385   2.043  14.096 -0.7297  0.0254  1.6281
11542TIP3   OH256116   1.651   5.048  11.548 -0.0686  0.5995  0.5844
11542TIP3    H156117   1.719   5.096  11.596  0.3122 -0.0352  0.6890
11542TIP3    H256118   1.568   5.078  11.587  0.2431 -0.0934  1.8262
11543TIP3   OH256119   6.665   2.381  15.379  0.1472  0.4052 -0.1695
11543TIP3    H156120   6.608   2.419  15.445  1.8149  0.2136  1.4612
11543TIP3    H256121   6.733   2.446  15.365  0.7187 -0.2380 -0.4640
11544TIP3   OH256122   2.873   5.931  16.112 -0.3398 -0.3042 -0.2369
11544TIP3    H156123   2.905   5.953  16.025 -0.5843  2.2555  0.2221
11544TIP3    H256124   2.778   5.923  16.101 -0.3311 -0.3412 -0.2832
11545TIP3   OH256125   2.265   0.069  12.520 -0.0703  0.3284 -0.0766
11545TIP3    H156126   2.326   0.095  12.452 -1.0103  2.0637 -0.2987
11545TIP3    H256127   2.228  -0.014  12.489  1.7366 -0.5000 -0.1673
11546TIP3   OH256128   2.648   0.458  16.410  0.1627 -0.0268 -0.0331
11546TIP3    H156129   2.719   0.521  16.421  0.5887 -0.3456 -0.9101
11546TIP3    H256130   2.683   0.391  16.352 -1.3267  0.5568 -1.7119
11547TIP3   OH256131   0.182   5.349  13.708  0.3903  0.5359  0.2656
11547TIP3    H156132   0.106   5.295  13.686  0.4867  0.7987 -0.8113
11547TIP3    H256133   0.193   5.339  13.802 -1.0737  0.6193  0.4731
11548TIP3   OH256134   3.629   1.840   0.731  0.0926 -0.0247 -0.2732
11548TIP3    H156135   3.539   1.841   0.699  0.0249  0.9765 -0.0763
11548TIP3    H256136   3.632   1.765   0.791 -0.6219 -0.0333 -0.2408
11549TIP3   OH256137   2.607   1.884   2.484 -0.8298 -0.0612  0.2071
11549TIP3    H156138   2.530   1.926   2.445 -0.8740 -0.3529 -0.0216
11549TIP3    H256139   2.580   1.794   2.501 -0.0023 -0.7012 -1.5479
11550TIP3   OH256140   3.704   0.241   4.341  0.5095  0.4062  0.1497
11550TIP3    H156141   3.672   0.287   4.419 -1.0636 -0.7137  0.2271
11550TIP3    H256142   3.625   0.201   4.303  1.7643 -2.4276  0.2670
11551TIP3   OH256143   1.134   6.765  13.452 -0.3635 -0.2707 -0.2054
11551TIP3    H156144   1.049   6.745  13.412 -0.0060  1.6845 -2.1336
11551TIP3    H256145   1.191   6.782  13.377  1.0251  1.0867  1.1131
11552TIP3   OH256146   4.030   1.901  11.923 -0.3305  0.3556  0.1379
11552TIP3    H156147   4.078   1.982  11.937 -0.4674  0.6595 -0.9886
11552TIP3    H256148   4.095   1.839  11.889  0.1240 -0.5412  2.4284
11553TIP3   OH256149   4.107   3.560   4.363  0.2581  0.3913 -0.1881
11553TIP3    H156150   4.075   3.472   4.343 -2.0304  0.9678  0.5871
11553TIP3    H256151   4.158   3.585   4.286 -0.2849 -1.0577 -1.0572
11554TIP3   OH256152   3.667   1.656   1.836 -0.5140 -0.5545 -0.2275
11554TIP3    H156153   3.587   1.686   1.878 -0.4911 -0.6079 -0.1455
11554TIP3    H256154   3.637   1.608   1.759 -0.5759 -0.8961  0.0077
11555TIP3   OH256155   0.111   3.167  10.656  0.0444  0.6256  0.2246
11555TIP3    H156156   0.174   3.239  10.659  1.0017 -0.1757 -0.0931
11555TIP3    H256157   0.151   3.099  10.710 -0.5954  0.1285  0.0812
11556TIP3   OH256158   1.886   6.247   3.978 -0.0174 -0.5357 -0.3412
11556TIP3    H156159   1.835   6.194   3.916  2.7764 -1.1482 -2.3364
11556TIP3    H256160   1.934   6.183   4.030 -1.5127  0.0163  1.8740
11557TIP3   OH256161   4.091   1.809  15.268  0.3593  0.2717  0.0339
11557TIP3    H156162   4.164   1.823  15.329 -0.5492  1.8496  0.8436
11557TIP3    H256163   4.108   1.870  15.196 -1.2785  2.4390  1.3537
11558TIP3   OH256164   5.144   2.224  14.492 -0.1555  0.4368 -0.6588
11558TIP3    H156165   5.152   2.318  14.477 -0.4624  0.4133 -0.9836
11558TIP3    H256166   5.201   2.207  14.567 -1.4469  1.1696  0.5304
11559TIP3   OH256167   0.751   2.454   3.764 -0.4877 -0.4263  0.0928
11559TIP3    H156168   0.779   2.545   3.777 -2.0814  0.1132  0.0479
11559TIP3    H256169   0.750   2.443   3.669 -1.0262 -0.2159  0.0660
11560TIP3   OH256170   0.874   3.855  14.945  0.4725 -0.1814  0.2076
11560TIP3    H156171   0.862   3.926  14.882  0.4955  0.2782  0.7092
11560TIP3    H256172   0.969   3.839  14.945  0.6539  0.7865  1.1438
11561TIP3   OH256173   5.369   4.257  15.345  0.7975  0.1762  0.2692
11561TIP3    H156174   5.380   4.183  15.285 -1.5906  0.4615 -0.5989
11561TIP3    H256175   5.354   4.333  15.288  0.8829  0.9092  1.1941
11562TIP3   OH256176   3.433   6.136   1.751 -0.2701  0.0574 -0.0900
11562TIP3    H156177   3.371   6.195   1.708  0.1092 -0.1988 -1.0102
11562TIP3    H256178   3.378   6.063   1.782 -0.4673 -0.0567 -0.6916
11563TIP3   OH256179   4.633   2.001  16.817  0.2475  0.3202  0.4841
11563TIP3    H156180   4.725   2.000  16.790 -0.2419 -1.2210 -1.3760
11563TIP3    H256181   4.624   1.923  16.872  0.6735  2.1451  3.3499
11564TIP3   OH256182   5.708   4.774  13.121 -0.5279  0.2383  0.4392
11564TIP3    H156183   5.620   4.737  13.119 -0.9577  1.2161 -0.9982
11564TIP3    H256184   5.756   4.725  13.054  0.3380 -0.9319  1.8624
11565TIP3   OH256185   3.881   4.122  13.918 -0.3521  0.1432 -0.0582
11565TIP3    H156186   3.828   4.163  13.850  0.0287  0.6649 -0.0442
11565TIP3    H256187   3.925   4.050  13.874 -2.2911 -1.3461  0.2751
11566TIP3   OH256188   5.562   4.030  12.963  0.5338  0.1347 -0.4506
11566TIP3    H156189   5.596   3.945  12.991 -2.5968 -0.8949  0.6164
11566TIP3    H256190   5.493   4.009  12.900 -0.7606  1.8058  0.3249
11567TIP3   OH256191   2.138   6.721  16.123  0.9846 -0.3300 -1.3761
11567TIP3    H156192   2.169   6.641  16.079  1.1717 -0.1956 -1.4909
11567TIP3    H256193   2.211   6.782  16.115  0.6059  0.0737 -1.8503
11568TIP3   OH256194   3.889   6.661  13.580  0.3711 -0.1369  0.4187
11568TIP3    H156195   3.859   6.685  13.493  0.8463 -1.7218 -0.2250
11568TIP3    H256196   3.894   6.743  13.628 -1.9103  0.5616 -0.3960
11569TIP3   OH256197   2.094   5.739  15.823 -0.6572  0.7651  0.2973
11569TIP3    H156198   2.049   5.757  15.740 -1.6737  0.8735  0.8529
11569TIP3    H256199   2.061   5.654  15.850  0.0747  0.4859  0.3379
11570TIP3   OH256200   4.398   1.539  14.402 -0.1844 -0.2986  0.5733
11570TIP3    H156201   4.420   1.470  14.465  0.7804 -0.5276  0.0127
11570TIP3    H256202   4.447   1.616  14.433  0.7399 -0.5599 -0.1734
11571TIP3   OH256203   1.295   4.707   4.703 -0.2270 -0.0192  0.2800
11571TIP3    H156204   1.377   4.755   4.687 -0.5946 -0.2498 -2.7140
11571TIP3    H256205   1.319   4.641   4.768  0.8531  2.5511  2.7666
11572TIP3   OH256206   0.657   6.064   6.243 -0.0443  0.2508 -0.2231
11572TIP3    H156207   0.709   6.005   6.298 -1.0504 -1.5360 -1.1250
11572TIP3    H256208   0.622   6.129   6.304  1.4085  0.2005  0.7289
11573TIP3   OH256209   2.323   1.068   0.155 -0.0316  0.3890 -0.1211
11573TIP3    H156210   2.311   0.973   0.161  1.2337  0.2502  0.4522
11573TIP3    H256211   2.239   1.100   0.121 -0.3036 -0.9807 -0.8377
11574TIP3   OH256212   0.666   2.122   1.728 -0.0645  0.1142  0.3582
11574TIP3    H156213   0.643   2.029   1.729 -0.1720  0.1409  0.3910
11574TIP3    H256214   0.593   2.164   1.684  1.5128 -0.2183 -2.9095
11575TIP3   OH256215   3.202   1.131   0.081 -0.1520  0.5009  0.5760
11575TIP3    H156216   3.150   1.085   0.148 -1.8012  1.6286  0.1229
11575TIP3    H256217   3.138   1.158   0.016  1.4690 -0.9316 -1.7407
11576TIP3   OH256218   2.127   3.821  16.512 -0.0465  0.0625  0.3038
11576TIP3    H156219   2.158   3.911  16.522  0.3235  0.0533 -0.6790
11576TIP3    H256220   2.193   3.767  16.556 -0.5725  0.2952  1.4238
11577TIP3   OH256221   0.878   4.001   2.601  0.1558 -0.5511  0.3254
11577TIP3    H156222   0.835   3.925   2.564  0.6652 -0.9400  0.5107
11577TIP3    H256223   0.932   3.966   2.672 -0.2771  0.0896  0.9909
11578TIP3   OH256224   3.077   5.238  13.553 -0.4450  0.1811 -0.2954
11578TIP3    H156225   3.023   5.179  13.606 -0.6755  0.6999  0.0602
11578TIP3    H256226   3.017   5.272  13.487  0.0351 -1.0974 -1.4390
11579TIP3   OH256227   0.723   1.012   1.849  0.0727  0.7991  1.1489
11579TIP3    H156228   0.724   0.926   1.807  0.2248  1.1015  0.5142
11579TIP3    H256229   0.631   1.028   1.870 -0.3364  1.5303 -0.9814
11580TIP3   OH256230   2.081   2.914   5.416 -0.3173 -0.0388  0.1079
11580TIP3    H156231   2.136   2.847   5.375 -3.2858 -2.8393  0.3490
11580TIP3    H256232   1.999   2.911   5.368 -1.6583  1.2196  2.1513
11581TIP3   OH256233   3.843   5.924  15.490 -0.5710  0.1032  0.8451
11581TIP3    H156234   3.758   5.952  15.524 -0.3824  0.7814  0.7635
11581TIP3    H256235   3.900   5.922  15.567  0.3151  3.3235  0.4037
11582TIP3   OH256236   0.580   6.633  13.460 -0.8905  0.3489  0.0781
11582TIP3    H156237   0.502   6.617  13.512  0.3733 -0.5638  1.7805
11582TIP3    H256238   0.653   6.617  13.519  0.6972 -1.8929 -2.2494
11583TIP3   OH256239   3.370   3.856  15.249 -0.6029 -0.0454  0.3251
11583TIP3    H156240   3.277   3.835  15.239 -0.7170  1.2798 -2.2234
11583TIP3    H256241   3.415   3.776  15.222 -1.0656  0.6099 -2.8055
11584TIP3   OH256242   6.132   3.231   3.390 -0.0673  0.9344  0.9169
11584TIP3    H156243   6.207   3.285   3.413  0.8025 -0.0717  0.4955
11584TIP3    H256244   6.143   3.214   3.296  0.5462 -1.2501  1.3377
11585TIP3   OH256245   3.566   0.241   0.817 -0.2029 -0.2392  0.2175
11585TIP3    H156246   3.515   0.305   0.767 -0.0042 -0.0414  0.2685
11585TIP3    H256247   3.534   0.250   0.907  0.4678  0.4399  0.3990
11586TIP3   OH256248   2.713   1.109  14.745  0.5482  0.0770 -0.2218
11586TIP3    H156249   2.747   1.074  14.662  1.0447 -0.4989  0.2072
11586TIP3    H256250   2.622   1.080  14.748  0.3296  0.6575 -0.8597
11587TIP3   OH256251   2.043   2.766   3.936 -0.4029 -0.0915 -0.0029
11587TIP3    H156252   1.976   2.719   3.986  0.9339 -1.9824  0.1350
11587TIP3    H256253   2.109   2.790   4.001  0.3064 -0.6230 -0.5094
11588TIP3   OH256254   0.590   3.805  14.959  1.0186 -0.2150 -0.3000
11588TIP3    H156255   0.684   3.813  14.975  0.9209  1.8208 -0.3834
11588TIP3    H256256   0.582   3.731  14.899  2.5950 -0.2912 -0.4586
11589TIP3   OH256257   0.287   4.988  15.717  0.2533 -0.4301 -0.0715
11589TIP3    H156258   0.355   4.985  15.651  0.6706 -1.7917  0.3761
11589TIP3    H256259   0.265   4.896  15.733 -2.0229 -0.0374 -0.5209
11590TIP3   OH256260   4.643   5.627   4.542  0.0999 -0.4556 -0.1770
11590TIP3    H156261   4.724   5.579   4.558  0.4709  0.2592  0.1206
11590TIP3    H256262   4.592   5.615   4.623  1.4421  2.0929  1.1611
11591TIP3   OH256263   3.747   0.447  17.105 -0.1814 -0.4480 -0.1442
11591TIP3    H156264   3.761   0.427  17.198  0.7970 -0.7398 -0.3437
11591TIP3    H256265   3.661   0.490  17.103 -1.0769 -2.1147  0.6432
11592TIP3   OH256266   1.393   4.090   1.947 -0.7855 -0.0745  0.5203
11592TIP3    H156267   1.431   4.012   1.907 -2.1837 -0.2069 -0.6311
11592TIP3    H256268   1.466   4.151   1.954 -0.2514 -0.4261 -1.3500
11593TIP3   OH256269   4.612   5.440  14.476  0.1797 -0.5012  0.0597
11593TIP3    H156270   4.531   5.472  14.438  0.2715 -1.1855 -0.7376
11593TIP3    H256271   4.673   5.513  14.467 -0.0489 -0.3536 -0.3273
11594TIP3   OH256272   2.062   3.683  17.205  0.0601 -0.5860  0.0769
11594TIP3    H156273   2.056   3.605  17.150 -1.4397 -0.6865  0.3478
11594TIP3    H256274   2.046   3.756  17.144 -2.7965 -0.7607  0.5066
11595TIP3   OH256275   0.733   1.801  14.381  0.3478 -0.1046 -0.0310
11595TIP3    H156276   0.789   1.832  14.453  0.9137 -1.0481 -0.0455
11595TIP3    H256277   0.764   1.712  14.364 -3.0477 -1.8516  1.9363
11596TIP3   OH256278   0.151   1.895  14.293  0.3152  0.2651 -0.1624
11596TIP3    H156279   0.234   1.942  14.306 -0.5198  1.6025  0.6643
11596TIP3    H256280   0.117   1.883  14.382  0.1089 -1.2159 -0.4303
11597TIP3   OH256281   0.634   5.628  13.210 -0.0595  0.4233 -0.0155
11597TIP3    H156282   0.630   5.702  13.270  0.9482  0.3819  0.1279
11597TIP3    H256283   0.549   5.628  13.166 -0.4665  1.0125  0.7417
11598TIP3   OH256284   6.188   5.912   4.285  0.3312 -0.5007 -0.4946
11598TIP3    H156285   6.217   5.988   4.235  0.5033  1.1811  1.9828
11598TIP3    H256286   6.260   5.894   4.346 -1.4633  0.3438  2.0714
11599TIP3   OH256287   6.068   0.226  10.427  0.7132 -0.0296 -0.3015
11599TIP3    H156288   6.077   0.304  10.372 -1.5386 -0.3435 -1.1896
11599TIP3    H256289   5.981   0.191  10.406  1.8519 -3.1434 -0.3995
11600TIP3   OH256290   0.131   1.247   2.562 -0.9125  0.7832 -0.5161
11600TIP3    H156291   0.102   1.330   2.599  0.1240  0.5703  0.8375
11600TIP3    H256292   0.093   1.181   2.618 -0.0031  0.4221 -0.3095
11601TIP3   OH256293   6.824   3.663  13.892 -0.6746 -0.7112  0.8525
11601TIP3    H156294   6.896   3.622  13.844 -2.0408 -2.5444  0.2110
11601TIP3    H256295   6.755   3.673  13.826  0.0447  4.4887  0.4651
11602TIP3   OH256296   4.435   4.532  11.483 -0.0358  0.5243 -0.8296
11602TIP3    H156297   4.528   4.535  11.506 -0.0988  1.9427 -0.6506
11602TIP3    H256298   4.410   4.624  11.471 -1.4396  0.1785 -0.7787
11603TIP3   OH256299   4.120   4.207  15.827 -0.6772 -0.7919 -0.0605
11603TIP3    H156300   4.172   4.283  15.854 -0.6430 -0.3610 -1.2593
11603TIP3    H256301   4.034   4.222  15.865 -0.5288 -0.4073  0.1299
11604TIP3   OH256302   1.613   0.494   2.367  0.3366 -0.5088 -0.4871
11604TIP3    H156303   1.529   0.495   2.321  1.3007  1.4705 -2.3806
11604TIP3    H256304   1.678   0.501   2.297  1.9829  0.4053  1.0695
11605TIP3   OH256305   1.538   3.844   0.658  0.4904  0.0181  0.1393
11605TIP3    H156306   1.613   3.825   0.601  0.1021 -0.4447 -0.2275
11605TIP3    H256307   1.530   3.939   0.655 -0.0446 -0.0448 -1.2785
11606TIP3   OH256308   2.572   6.364  12.354  0.6256  0.0016 -0.0907
11606TIP3    H156309   2.509   6.392  12.287 -0.4236 -2.6447 -0.3494
11606TIP3    H256310   2.644   6.324  12.305  0.9195  0.0540  0.2923
11607TIP3   OH256311   2.007   0.758  16.565 -0.1647 -0.4772 -0.1040
11607TIP3    H156312   1.946   0.685  16.567  0.6413 -1.1796 -0.5692
11607TIP3    H256313   2.090   0.720  16.536  0.5228  0.4338  0.5860
11608TIP3   OH256314   0.826   5.640  12.692 -0.1001 -0.2305 -0.1193
11608TIP3    H156315   0.815   5.718  12.746 -2.4078  0.9571 -2.1369
11608TIP3    H256316   0.815   5.567  12.753 -2.9128  1.0289  1.0284
11609TIP3   OH256317   2.192   6.523   3.662 -0.6628  0.0975 -0.2979
11609TIP3    H156318   2.163   6.602   3.618  0.0451  0.4111 -0.2073
11609TIP3    H256319   2.119   6.462   3.652 -1.7992  1.2115  0.8533
11610TIP3   OH256320   2.457   3.873   6.117 -0.1337 -0.3298  0.0662
11610TIP3    H156321   2.497   3.951   6.155  1.6920 -0.6637 -1.0590
11610TIP3    H256322   2.445   3.813   6.191 -0.4796  0.5460  0.7417
11611TIP3   OH256323   0.983   5.288  15.687 -0.1255 -0.0085 -0.0570
11611TIP3    H156324   1.015   5.248  15.606  0.4148  0.4620 -0.0726
11611TIP3    H256325   1.033   5.368  15.697 -1.0937  0.6063  0.0630
11612TIP3   OH256326   2.534   5.354   2.127 -0.3284 -0.5014  0.7132
11612TIP3    H156327   2.556   5.411   2.201  0.3431  0.6198 -0.2982
11612TIP3    H256328   2.463   5.400   2.082  1.0080  0.2117 -0.7911
11613TIP3   OH256329   4.843   2.929  17.156 -0.1167  0.3290  0.0122
11613TIP3    H156330   4.833   2.834  17.162 -1.5721  0.4649  0.2009
11613TIP3    H256331   4.772   2.956  17.098 -0.2261  1.3836  0.6144
11614TIP3   OH256332   4.620   1.144  12.350 -0.2896 -0.3960 -0.0547
11614TIP3    H156333   4.699   1.197  12.360 -0.8517  0.5620 -0.5765
11614TIP3    H256334   4.592   1.159  12.260 -0.5298 -1.5009 -0.1759
11615TIP3   OH256335   1.813   2.241  16.351  0.3870  0.3467  0.0318
11615TIP3    H156336   1.809   2.319  16.407 -0.6221  0.8395 -0.6858
11615TIP3    H256337   1.763   2.266  16.273 -3.3464 -2.2844  1.3461
11616TIP3   OH256338   3.224   1.738   5.379 -0.1744 -0.6768 -0.0953
11616TIP3    H156339   3.261   1.783   5.455  1.1988 -1.1959 -0.4359
11616TIP3    H256340   3.158   1.799   5.346 -0.9995 -0.5590  1.6613
11617TIP3   OH256341   5.638   5.322  11.455  0.6385  0.0583  0.6286
11617TIP3    H156342   5.708   5.371  11.499  2.0498 -0.0473 -1.3725
11617TIP3    H256343   5.680   5.241  11.425 -1.1932 -1.6214  2.2532
11618TIP3   OH256344   2.751   6.203   2.115  0.0322  0.0929  0.4210
11618TIP3    H156345   2.665   6.175   2.085 -0.3528  0.5507  1.0966
11618TIP3    H256346   2.745   6.205   2.210  0.3276  1.5705  0.4281
11619TIP3   OH256347   1.089   4.381  15.018 -0.7237 -0.1004 -0.3391
11619TIP3    H156348   1.061   4.314  14.955  0.0865 -1.2758  0.4990
11619TIP3    H256349   1.035   4.457  14.998 -1.0970 -0.7293 -1.8764
11620TIP3   OH256350   2.244   5.005   0.342  0.2800 -0.0922 -0.6000
11620TIP3    H156351   2.155   4.999   0.309  0.6235 -0.3393 -1.5063
11620TIP3    H256352   2.264   4.917   0.374 -0.9941  0.7310  2.8744
11621TIP3   OH256353   0.713   4.621  15.843 -0.0649 -0.7120  0.0762
11621TIP3    H156354   0.706   4.581  15.756 -1.5784 -1.5342  0.5313
11621TIP3    H256355   0.760   4.703  15.828 -1.7633  0.0104 -1.8225
11622TIP3   OH256356   6.725   2.073  17.068  0.7144 -0.2785  0.0705
11622TIP3    H156357   6.815   2.047  17.089  0.8312 -0.9028 -1.1293
11622TIP3    H256358   6.706   2.028  16.986 -0.5569  0.1788  0.1006
11623TIP3   OH256359   3.811   3.158  15.579 -0.1694  0.4655 -0.0144
11623TIP3    H156360   3.886   3.175  15.521 -1.5218  1.3021 -1.6193
11623TIP3    H256361   3.764   3.241  15.582 -1.7852 -0.3930 -0.2096
11624TIP3   OH256362   4.827   2.145  16.575  0.2667 -0.5568 -0.0484
11624TIP3    H156363   4.843   2.084  16.647  0.3347 -0.8954 -0.3454
11624TIP3    H256364   4.909   2.147  16.527 -0.7685 -3.1549 -2.2181
11625TIP3   OH256365   4.908   4.959   0.158 -0.8683  0.1941  0.2863
11625TIP3    H156366   5.003   4.960   0.154 -0.8616 -0.5281  0.0275
11625TIP3    H256367   4.880   4.945   0.068 -1.1709 -0.9381  0.5366
11626TIP3   OH256368   2.885   0.418   4.213  0.3716  0.2404  0.0761
11626TIP3    H156369   2.952   0.434   4.146 -0.2330  0.1787 -0.5574
11626TIP3    H256370   2.870   0.324   4.210  0.5104  0.2052  0.4658
11627TIP3   OH256371   1.415   4.794  12.473  0.8922  0.6505  0.1726
11627TIP3    H156372   1.478   4.751  12.531  0.4290  0.2108  0.3559
11627TIP3    H256373   1.346   4.825  12.531 -0.0596 -0.6480 -0.2320
11628TIP3   OH256374   5.205   1.279   2.476 -0.4358 -0.3788  0.2286
11628TIP3    H156375   5.219   1.305   2.567  1.2241  2.2180 -0.6732
11628TIP3    H256376   5.291   1.250   2.445 -0.6004  0.3227 -0.9436
11629TIP3   OH256377   6.146   0.259  17.184 -0.2595 -0.2138  0.1143
11629TIP3    H156378   6.104   0.225  17.263  0.0127  0.4109  0.5400
11629TIP3    H256379   6.220   0.310  17.216 -1.4518  1.9885 -0.3512
11630TIP3   OH256380   5.987   3.419   1.578 -0.2054  0.0761  0.2765
11630TIP3    H156381   6.077   3.438   1.604 -0.1988 -1.0930  1.1749
11630TIP3    H256382   5.949   3.505   1.559  0.3852  0.8298  2.2391
11631TIP3   OH256383   6.502   2.178  15.959  0.3580  0.0491  0.0155
11631TIP3    H156384   6.435   2.242  15.931  1.4535  1.6036  0.8280
11631TIP3    H256385   6.523   2.130  15.879 -0.3884  0.8084 -0.6603
11632TIP3   OH256386   3.919   2.315   0.522  0.1017 -0.6623  0.0037
11632TIP3    H156387   3.966   2.278   0.447 -0.5852 -0.6098 -0.4708
11632TIP3    H256388   3.921   2.247   0.588  2.1158 -0.1152  0.5614
11633TIP3   OH256389   3.283   2.248   2.863 -0.3634 -0.2637 -0.3761
11633TIP3    H156390   3.293   2.170   2.917  0.1203  0.7974  1.1539
11633TIP3    H256391   3.370   2.263   2.825 -0.9962 -1.7219 -2.5669
11634TIP3   OH256392   2.505   4.716   0.970  0.0582  0.1386  0.1424
11634TIP3    H156393   2.589   4.763   0.975 -0.1766  0.6934 -0.8983
11634TIP3    H256394   2.459   4.740   1.050  0.7934  0.0194  0.6090
11635TIP3   OH256395   3.245   0.045  13.486  0.2828  0.5016 -0.2866
11635TIP3    H156396   3.266  -0.044  13.458  1.6023  1.0090 -1.0150
11635TIP3    H256397   3.149   0.047  13.492  0.2613 -1.2003  0.6127
11636TIP3   OH256398   4.476   6.818  12.424 -0.0276  0.0908  0.5474
11636TIP3    H156399   4.409   6.774  12.372  0.5960 -1.0340  0.6700
11636TIP3    H256400   4.446   6.808  12.514 -0.4629  0.9367  0.5072
11637TIP3   OH256401   6.373   6.381   1.437 -0.9429  0.2742  0.0918
11637TIP3    H156402   6.426   6.448   1.480  0.4975 -1.3851  1.0204
11637TIP3    H256403   6.326   6.428   1.368 -0.4056  2.3146  1.0639
11638TIP3   OH256404   1.560   1.936   0.543 -0.5449  0.0629  0.2623
11638TIP3    H156405   1.540   1.941   0.636 -0.2675  3.1836  0.2579
11638TIP3    H256406   1.585   1.845   0.528 -0.7785 -0.5544  3.1623
11639TIP3   OH256407   2.120   5.260   4.896  0.3440  0.5743  0.2318
11639TIP3    H156408   2.212   5.248   4.919  0.3590  0.3254  0.0513
11639TIP3    H256409   2.081   5.299   4.974  0.3476 -0.4823  0.7813
11640TIP3   OH256410   6.482   2.715   1.229  0.1216  0.1333 -0.3578
11640TIP3    H156411   6.431   2.634   1.227  0.8400 -0.3533  0.1866
11640TIP3    H256412   6.423   2.780   1.266  0.0310 -0.5208  0.6747
11641TIP3   OH256413   3.299   6.473   0.033  0.4237 -0.4308  0.4747
11641TIP3    H156414   3.359   6.401   0.050 -0.9957 -1.8446 -0.2209
11641TIP3    H256415   3.216   6.430   0.012 -0.7075  1.4291  0.9081
11642TIP3   OH256416   0.221   0.316   2.625 -0.0740  0.0177 -0.1239
11642TIP3    H156417   0.213   0.391   2.566 -0.8234  0.5817  0.6741
11642TIP3    H256418   0.313   0.290   2.618 -0.0755  0.2739 -1.2882
11643TIP3   OH256419   0.424   3.203  14.111  0.5542  0.4217  0.1619
11643TIP3    H156420   0.420   3.193  14.016  1.3832 -0.5715  0.2055
11643TIP3    H256421   0.341   3.243  14.135 -0.0763 -0.2205 -0.8826
11644TIP3   OH256422   4.844   6.539  11.815 -0.0193 -0.1299  0.3275
11644TIP3    H156423   4.927   6.550  11.862  0.6399  0.0603 -0.8610
11644TIP3    H256424   4.777   6.566  11.878  0.9790  2.1848  0.4779
11645TIP3   OH256425   4.688   4.525   4.225 -0.4145  0.0056  0.4205
11645TIP3    H156426   4.743   4.603   4.216 -1.3480  0.6317  0.0106
11645TIP3    H256427   4.599   4.559   4.230 -0.8543 -1.0523 -0.0027
11646TIP3   OH256428   6.733   6.757  15.658  0.6404 -0.8342 -0.5802
11646TIP3    H156429   6.739   6.853  15.662  1.0620 -0.8984  2.9831
11646TIP3    H256430   6.813   6.730  15.612  1.5985  0.4761  0.2481
11647TIP3   OH256431   1.651   1.651   2.316 -0.0759 -0.1069 -0.1982
11647TIP3    H156432   1.580   1.632   2.377  0.4093  1.1732  0.8088
11647TIP3    H256433   1.607   1.669   2.232 -0.7533 -1.7150 -0.2236
11648TIP3   OH256434   0.743   3.872  14.044 -0.0877  0.3532 -0.4154
11648TIP3    H156435   0.818   3.843  13.991  0.1379 -0.0476  0.1160
11648TIP3    H256436   0.766   3.848  14.133 -0.4506  1.0718 -0.1227
11649TIP3   OH256437   6.305   1.287  16.639 -0.2159  0.2384  0.2776
11649TIP3    H156438   6.235   1.334  16.594 -2.1621 -0.0691  2.7502
11649TIP3    H256439   6.315   1.206  16.589 -1.7328  0.2540 -0.1041
11650TIP3   OH256440   2.913   2.925  11.898  0.1062 -0.2072  0.2336
11650TIP3    H156441   2.866   2.980  11.836 -0.6074  1.0873  1.8508
11650TIP3    H256442   2.849   2.904  11.965  0.6616 -2.1943  0.1901
11651TIP3   OH256443   3.431   2.284  16.927 -0.0227  0.1313 -0.2979
11651TIP3    H156444   3.337   2.267  16.930  0.3381 -1.9565  0.4569
11651TIP3    H256445   3.465   2.245  17.007  1.5481  0.5327 -0.7414
11652TIP3   OH256446   0.891   4.745   1.712 -0.3786  0.0156 -0.4887
11652TIP3    H156447   0.836   4.672   1.743  0.6983  0.7921  3.8588
11652TIP3    H256448   0.958   4.703   1.659 -1.9872 -1.6063 -1.3728
11653TIP3   OH256449   1.390   2.703   2.166 -0.0449  0.2546  0.2605
11653TIP3    H156450   1.411   2.669   2.079 -1.6895  0.8115 -0.3893
11653TIP3    H256451   1.340   2.632   2.207  0.5957  0.0544  0.7157
11654TIP3   OH256452   4.289   1.304  11.227  0.8590 -0.2475 -0.1790
11654TIP3    H156453   4.375   1.338  11.253 -0.1440  0.6967  2.2621
11654TIP3    H256454   4.290   1.305  11.132  3.5329 -0.2332 -0.2144
11655TIP3   OH256455   4.838   6.182  15.144  0.2570 -0.5461  0.0736
11655TIP3    H156456   4.892   6.221  15.075  3.1502  0.5267  2.7213
11655TIP3    H256457   4.894   6.116  15.184 -1.0719 -0.6809  1.8250
11656TIP3   OH256458   2.231   1.325   0.950  0.1463  0.0178 -0.2125
11656TIP3    H156459   2.139   1.340   0.925 -0.0727 -1.3229 -0.3203
11656TIP3    H256460   2.266   1.412   0.968 -1.3051  0.5127  0.3536
11657TIP3   OH256461   3.359   6.667  16.609 -0.4200 -0.0982 -0.1286
11657TIP3    H156462   3.363   6.571  16.614  2.4789 -0.1400 -1.3704
11657TIP3    H256463   3.269   6.685  16.581 -0.7262 -2.5437 -1.0104
11658TIP3   OH256464   5.824   1.735   0.164  0.3133 -0.0403  0.9126
11658TIP3    H156465   5.909   1.691   0.167  0.1477 -0.3514  1.1841
11658TIP3    H256466   5.784   1.704   0.083  1.6782  2.4494 -0.8420
11659TIP3   OH256467   0.395   5.417   0.092 -0.3178 -0.1269 -0.5513
11659TIP3    H156468   0.446   5.496   0.108 -0.0025 -0.5186  0.4737
11659TIP3    H256469   0.458   5.345   0.105 -0.4075 -0.5519 -2.1747
11660TIP3   OH256470   2.127   3.139  15.305 -0.6105  0.1747 -0.0640
11660TIP3    H156471   2.185   3.098  15.240 -0.3357  1.7630 -0.8671
11660TIP3    H256472   2.042   3.142  15.263 -0.6831  0.2110  0.0860
11661TIP3   OH256473   1.330   0.330  13.296 -0.4115 -0.0369  0.2188
11661TIP3    H156474   1.306   0.415  13.259 -0.2484  0.0994  0.4220
11661TIP3    H256475   1.351   0.276  13.220 -0.3672  0.1501  0.0971
11662TIP3   OH256476   5.837   2.219  12.806  0.8882  0.4175 -0.0566
11662TIP3    H156477   5.882   2.239  12.888 -0.4898  1.8875  0.4027
11662TIP3    H256478   5.858   2.292  12.748 -0.1039  0.6363 -0.1568
11663TIP3   OH256479   2.807   0.956  16.888 -0.0295 -0.2933 -0.2809
11663TIP3    H156480   2.828   0.863  16.883  1.6421 -0.0627  1.2004
11663TIP3    H256481   2.820   0.978  16.981 -0.6085  1.3703 -0.5614
11664TIP3   OH256482   5.947   3.773   2.582 -0.5472 -0.5122  1.0330
11664TIP3    H156483   5.883   3.803   2.647 -0.7627  0.6275  0.3204
11664TIP3    H256484   5.999   3.707   2.629 -0.6619  0.3147  2.3734
11665TIP3   OH256485   2.757   5.870   3.377  0.0535 -0.1216  0.4029
11665TIP3    H156486   2.707   5.870   3.296 -1.0730  0.7348  1.0687
11665TIP3    H256487   2.735   5.787   3.419 -0.8033  0.2427  0.6821
11666TIP3   OH256488   6.060   2.763   1.012 -0.2708 -0.5307  0.8021
11666TIP3    H156489   5.994   2.824   0.979 -1.1009 -0.9514  1.6330
11666TIP3    H256490   6.141   2.790   0.969 -0.7047  0.8844  0.8168
11667TIP3   OH256491   3.168   6.154  16.444  0.1533  0.0164 -0.5049
11667TIP3    H156492   3.117   6.234  16.430 -1.2360 -0.9476 -1.2453
11667TIP3    H256493   3.103   6.087  16.464  0.9117 -1.5956 -2.8974
11668TIP3   OH256494   4.021   4.486   4.499  0.7558 -0.1406  0.3541
11668TIP3    H156495   4.020   4.426   4.574 -0.0297  0.2396  0.6585
11668TIP3    H256496   4.032   4.429   4.423  1.5020 -0.5383  0.7426
11669TIP3   OH256497   3.792   3.744  13.983  0.3241 -0.0565 -0.2329
11669TIP3    H156498   3.738   3.790  13.918 -0.0254 -0.8026 -0.4808
11669TIP3    H256499   3.735   3.738  14.060  0.4484  0.1096 -0.1271
11670TIP3   OH256500   2.998   2.673   1.316 -0.1891  0.3501  1.2893
11670TIP3    H156501   3.057   2.638   1.383 -0.9345  0.8721  2.2469
11670TIP3    H256502   2.965   2.755   1.354 -1.8838 -0.1655  0.9849
11671TIP3   OH256503   3.329   1.902   5.586  0.3992  0.3455 -0.0737
11671TIP3    H156504   3.423   1.917   5.591  1.1589 -1.6383 -4.0670
11671TIP3    H256505   3.292   1.986   5.560  1.3296  0.7058 -0.2609
11672TIP3   OH256506   0.726   2.400   3.259 -0.1294 -0.1932  0.1782
11672TIP3    H156507   0.669   2.446   3.198  0.5668  0.2524 -0.1428
11672TIP3    H256508   0.812   2.442   3.249 -0.1279  0.3138  1.8975
11673TIP3   OH256509   6.601   1.347   1.847  0.5110  0.2688  0.0547
11673TIP3    H156510   6.523   1.359   1.901  0.2572  2.0244 -0.6197
11673TIP3    H256511   6.656   1.423   1.866  1.0030  0.2553 -1.1910
11674TIP3   OH256512   2.596   5.287  13.923  0.0879 -0.4186 -0.2784
11674TIP3    H156513   2.669   5.346  13.906  0.3930 -0.5817  0.4398
11674TIP3    H256514   2.635   5.201  13.934 -0.2276 -0.5466 -0.1151
11675TIP3   OH256515   4.957   2.338  13.399  0.1870 -0.3598  0.5424
11675TIP3    H156516   4.969   2.281  13.322 -0.4686  0.1795  0.0296
11675TIP3    H256517   4.899   2.289  13.457 -0.0481 -0.3857  0.2847
11676TIP3   OH256518   0.518   5.474   1.033  0.6993  0.3659  0.6310
11676TIP3    H156519   0.463   5.442   1.105 -0.4127  2.9483  1.0803
11676TIP3    H256520   0.607   5.473   1.069  0.1977  1.3389  2.0195
11677TIP3   OH256521   6.600   1.199   2.267  0.2499  0.0558  0.4263
11677TIP3    H156522   6.562   1.157   2.190 -1.4156  3.1594 -0.6014
11677TIP3    H256523   6.691   1.215   2.243  0.1296 -0.3048 -0.3029
11678TIP3   OH256524   1.598   0.607  15.663 -0.3775  0.0815 -0.1063
11678TIP3    H156525   1.509   0.633  15.637 -0.6622 -0.2959  0.4819
11678TIP3    H256526   1.645   0.690  15.673  0.1896  0.2867 -3.2357
11679TIP3   OH256527   0.683   6.492   0.900 -0.0030  0.6473  0.1765
11679TIP3    H156528   0.769   6.450   0.894  0.2149  1.2014 -0.9304
11679TIP3    H256529   0.687   6.544   0.980  1.2282  1.7741 -0.5686
11680TIP3   OH256530   4.367   0.740  15.281  0.1246 -0.3293 -0.1737
11680TIP3    H156531   4.450   0.726  15.236  0.5892 -0.2937  0.6453
11680TIP3    H256532   4.315   0.794  15.221  1.0588  0.4563 -0.2880
11681TIP3   OH256533   3.190   2.429   2.096  0.0012  0.2081  0.4205
11681TIP3    H156534   3.137   2.350   2.106  1.5695 -1.0351 -0.7273
11681TIP3    H256535   3.179   2.453   2.004 -0.1594  1.1281  0.6715
11682TIP3   OH256536   2.155   0.746  12.539 -0.5650 -0.5006 -1.2409
11682TIP3    H156537   2.240   0.727  12.580 -2.7757 -1.2374  3.7931
11682TIP3    H256538   2.102   0.669  12.557 -2.9165  0.7937 -2.2394
11683TIP3   OH256539   0.576   1.630  16.547 -0.0730 -0.1182  0.4806
11683TIP3    H156540   0.537   1.585  16.622 -2.4688  0.1820 -0.4820
11683TIP3    H256541   0.519   1.609  16.473  1.4927  0.6008 -1.0208
11684TIP3   OH256542   2.339   6.813   3.919  0.2877  0.2161 -0.2030
11684TIP3    H156543   2.265   6.754   3.905  1.2379 -0.8328 -1.0403
11684TIP3    H256544   2.320   6.856   4.002  0.4164 -2.6523  1.4643
11685TIP3   OH256545   6.195   5.695   3.194  0.2513  0.1255  0.6489
11685TIP3    H156546   6.262   5.627   3.183  0.3682  0.5316 -1.5719
11685TIP3    H256547   6.159   5.679   3.281  1.3982 -1.7559  0.8310
11686TIP3   OH256548   0.626   6.199  16.617  0.0318  0.1479  0.7021
11686TIP3    H156549   0.576   6.122  16.647 -0.5272  0.3459  0.2779
11686TIP3    H256550   0.712   6.188  16.658 -0.1570 -0.5208  0.9359
11687TIP3   OH256551   3.586   5.739   3.620  0.3050  0.2315 -0.1094
11687TIP3    H156552   3.650   5.791   3.668  0.8003  1.6099 -2.1050
11687TIP3    H256553   3.638   5.689   3.557 -0.4552  0.0912 -0.6459
11688TIP3   OH256554   3.580   3.993   2.275 -0.2836 -0.0036  0.7146
11688TIP3    H156555   3.547   4.055   2.341  0.2835  0.8304  0.2322
11688TIP3    H256556   3.661   3.958   2.313 -0.1531  0.1954  0.6191
11689TIP3   OH256557   2.653   5.170   0.841  0.2843  0.2204 -0.2908
11689TIP3    H156558   2.585   5.115   0.802  0.6321 -1.2112  1.0001
11689TIP3    H256559   2.635   5.258   0.810 -1.7704 -0.2399 -0.4908
11690TIP3   OH256560   4.462   6.447  16.329  0.4052  0.2373  0.4819
11690TIP3    H156561   4.513   6.386  16.383  1.9015 -0.7081 -1.8286
11690TIP3    H256562   4.465   6.529  16.378  1.8287 -0.5110  1.7660
11691TIP3   OH256563   3.605   3.164  15.001  0.0034  0.3789  0.2617
11691TIP3    H156564   3.669   3.147  15.070  1.9679 -0.9595 -1.7483
11691TIP3    H256565   3.596   3.080  14.956 -2.2173  0.8851 -0.3464
11692TIP3   OH256566   5.036   0.119  10.530  0.8845  0.1498 -0.2210
11692TIP3    H156567   5.107   0.056  10.541  0.4800 -0.4621 -0.9993
11692TIP3    H256568   4.959   0.065  10.511  0.4367  0.8535 -0.4276
11693TIP3   OH256569   4.715   4.635   3.878  0.3505 -0.7451 -0.6172
11693TIP3    H156570   4.664   4.638   3.797 -1.2198  1.1256  0.3574
11693TIP3    H256571   4.746   4.725   3.890  2.6198 -1.5084 -0.3482
11694TIP3   OH256572   1.350   2.123   2.104  0.2423  0.1494 -0.3466
11694TIP3    H156573   1.376   2.215   2.099 -0.8630  0.6528  1.8315
11694TIP3    H256574   1.408   2.085   2.170 -0.9756 -0.0383  0.6506
11695TIP3   OH256575   2.806   0.091   5.514 -0.6570 -0.0710  0.0709
11695TIP3    H156576   2.792   0.103   5.608  2.6108  0.3187  0.6218
11695TIP3    H256577   2.878   0.028   5.509 -0.0760  0.6931 -2.1336
11696TIP3   OH256578   1.011   3.665  15.568 -0.1272  0.3253 -0.6140
11696TIP3    H156579   0.915   3.662  15.569 -0.1293 -1.9844 -1.4056
11696TIP3    H256580   1.038   3.576  15.548  2.1858  1.2417 -2.0631
11697TIP3   OH256581   2.299   1.414   0.183  0.7869 -0.0181 -0.2375
11697TIP3    H156582   2.279   1.323   0.161 -0.8526  0.3604 -0.5125
11697TIP3    H256583   2.238   1.435   0.254  1.2568  0.8156 -0.0678
11698TIP3   OH256584   3.063   4.878  17.086  0.2276 -0.6432 -0.6323
11698TIP3    H156585   3.012   4.941  17.035  1.1881  0.9830  0.3589
11698TIP3    H256586   3.027   4.882  17.174  2.3890  1.0326  0.2628
11699TIP3   OH256587   4.689   1.020  14.781 -0.4658  0.3778  0.6500
11699TIP3    H156588   4.643   1.055  14.858  0.2482  3.8353 -0.2991
11699TIP3    H256589   4.642   1.057  14.707  2.0321  1.6791 -0.3994
11700TIP3   OH256590   5.237   0.210  11.638  0.2743  0.1324 -0.9304
11700TIP3    H156591   5.289   0.271  11.588 -0.1608  0.8649 -0.5127
11700TIP3    H256592   5.231   0.249  11.725 -2.0615  0.7679 -1.3005
11701TIP3   OH256593   6.425   5.392   1.849  0.2053 -0.2214 -0.1283
11701TIP3    H156594   6.386   5.356   1.769  1.3753 -0.2898 -0.6905
11701TIP3    H256595   6.377   5.473   1.864 -1.1876 -1.0520  0.0850
11702TIP3   OH256596   1.598   4.120  16.223 -0.3253  0.4623  0.2880
11702TIP3    H156597   1.557   4.062  16.159 -0.9907  0.6107  0.5593
11702TIP3    H256598   1.690   4.095  16.223 -0.8457 -1.7791  1.6164
11703TIP3   OH256599   1.352   3.055   0.768  0.6225  0.0194 -0.3769
11703TIP3    H156600   1.361   2.990   0.698  3.9289  0.3473 -0.4355
11703TIP3    H256601   1.343   3.003   0.848 -0.4822 -0.3979 -0.7564
11704TIP3   OH256602   5.627   1.790   1.587 -0.2006  0.3075  0.1644
11704TIP3    H156603   5.700   1.747   1.542 -0.8851  1.4943 -2.2009
11704TIP3    H256604   5.549   1.753   1.547 -0.8495  1.4364  0.3462
11705TIP3   OH256605   1.835   3.725  14.203 -0.0452  0.1462  0.6174
11705TIP3    H156606   1.872   3.797  14.253 -0.5693  1.8104 -1.2743
11705TIP3    H256607   1.882   3.647  14.235  2.9054  1.7129  0.4379
11706TIP3   OH256608   2.546   3.677   1.851  0.4869 -0.2718  0.3276
11706TIP3    H156609   2.542   3.772   1.835  0.4118 -0.1053  1.2517
11706TIP3    H256610   2.589   3.670   1.936  0.9898 -1.1023  0.0085
11707TIP3   OH256611   4.974   3.078   4.076  0.6898  0.3773 -0.4410
11707TIP3    H156612   5.067   3.097   4.079  0.0576  4.5902  3.0740
11707TIP3    H256613   4.937   3.145   4.018 -0.2429 -1.7092 -2.4339
11708TIP3   OH256614   3.417   6.059   3.530  0.5330  0.2829  0.2510
11708TIP3    H156615   3.488   6.110   3.492  0.4119  1.2338  1.2550
11708TIP3    H256616   3.459   5.981   3.566  0.9244  0.3734 -0.0039
11709TIP3   OH256617   5.048   1.200   2.036  0.2138 -0.0798 -0.0276
11709TIP3    H156618   5.101   1.188   2.115 -1.0311  0.3069  0.9030
11709TIP3    H256619   5.098   1.263   1.984  1.2975 -0.7188  0.2046
11710TIP3   OH256620   2.577   3.756   1.245 -0.0175 -0.2496 -0.0022
11710TIP3    H156621   2.512   3.817   1.280  0.7564  0.2325  0.6503
11710TIP3    H256622   2.655   3.809   1.233  0.4444 -0.9515 -0.1570
11711TIP3   OH256623   1.669   5.396   3.477  1.2866  0.9078 -0.0208
11711TIP3    H156624   1.743   5.344   3.445  0.7772 -0.2516  0.6673
11711TIP3    H256625   1.600   5.333   3.494 -0.2723  2.0740 -1.6678
11712TIP3   OH256626   6.547   5.832  15.685  0.2987 -0.0604  0.1796
11712TIP3    H156627   6.589   5.799  15.605  0.5258 -3.1190  1.4298
11712TIP3    H256628   6.458   5.796  15.682 -0.8366  2.5141 -0.1744
11713TIP3   OH256629   4.957   4.896   1.187  0.1415 -0.3397 -0.0340
11713TIP3    H156630   4.957   4.856   1.274 -3.1779  0.4238  0.4853
11713TIP3    H256631   4.888   4.963   1.192 -0.3116 -0.3990 -3.2878
11714TIP3   OH256632   5.761   4.310   4.809 -0.0510  0.3828  0.2785
11714TIP3    H156633   5.757   4.231   4.755  1.1615  0.5132 -0.0417
11714TIP3    H256634   5.696   4.296   4.878  0.6973 -1.2525  0.6893
11715TIP3   OH256635   1.458   4.123   0.983  0.1641 -0.1749  0.0497
11715TIP3    H156636   1.461   4.218   0.972 -0.0203 -0.2503 -0.6567
11715TIP3    H256637   1.550   4.095   0.975  0.4356  0.0938  1.7755
11716TIP3   OH256638   3.335   5.736   3.516 -0.1374  0.2393  0.4208
11716TIP3    H156639   3.421   5.726   3.557  0.1679 -0.8764 -0.4252
11716TIP3    H256640   3.305   5.647   3.500 -0.3444  0.5953 -1.5042
11717TIP3   OH256641   4.697   1.188   3.071 -0.4118  0.3705 -0.2762
11717TIP3    H156642   4.669   1.219   2.984  1.7857  0.5981 -0.9611
11717TIP3    H256643   4.627   1.129   3.098 -1.6525  1.0786 -1.7409
11718TIP3   OH256644   5.927   1.085   5.382  1.0459 -0.2351 -0.4294
11718TIP3    H156645   5.979   1.155   5.422  0.2115  0.6551 -0.8481
11718TIP3    H256646   5.904   1.119   5.295 -1.4341  0.0571  0.2573
11719TIP3   OH256647   4.255   1.671   4.309 -0.5074 -0.0210  0.2833
11719TIP3    H156648   4.344   1.690   4.278 -1.1378  1.0159 -1.0073
11719TIP3    H256649   4.217   1.617   4.239 -0.8052 -0.6992  0.9635
11720TIP3   OH256650   5.707   6.487  14.325  0.4001  0.0112 -0.3972
11720TIP3    H156651   5.747   6.574  14.322  0.7297 -0.1510 -1.0294
11720TIP3    H256652   5.624   6.500  14.371  0.1768  0.7748 -0.9878
11721TIP3   OH256653   3.250   0.223   0.203  0.0689  0.3748 -0.2149
11721TIP3    H156654   3.318   0.173   0.247  0.8536 -0.7781 -2.5700
11721TIP3    H256655   3.169   0.178   0.226  0.3496  0.3361  0.7270
11722TIP3   OH256656   4.147   3.278  11.867  0.9989 -0.6606  0.4897
11722TIP3    H156657   4.060   3.310  11.844  0.3291 -2.5172  0.2611
11722TIP3    H256658   4.161   3.309  11.957  0.1704 -0.2371  0.4802
11723TIP3   OH256659   6.105   0.479   1.624  0.3342  0.0842 -0.0865
11723TIP3    H156660   6.014   0.502   1.605 -0.0196 -2.2228 -1.7171
11723TIP3    H256661   6.110   0.476   1.719 -0.6867  2.2643  0.0945
11724TIP3   OH256662   3.288   0.521   3.511  0.2610  0.1059  0.2212
11724TIP3    H156663   3.330   0.607   3.506  2.0150 -0.6842  0.6289
11724TIP3    H256664   3.350   0.462   3.468 -0.2824 -1.1772  1.1583
11725TIP3   OH256665   4.588   6.491   6.130  0.7612  0.1116  0.0156
11725TIP3    H156666   4.657   6.548   6.095 -1.0982  2.4610 -0.0672
11725TIP3    H256667   4.518   6.496   6.065  0.1228 -1.5303  0.5230
11726TIP3   OH256668   5.759   1.188  13.717  0.0447  0.1898 -0.0369
11726TIP3    H156669   5.835   1.206  13.772 -1.7074  0.7818  2.3465
11726TIP3    H256670   5.757   1.092  13.709  0.8199  0.1522  0.1668
11727TIP3   OH256671   5.346   4.336   1.186 -0.1268 -0.3728 -0.3238
11727TIP3    H156672   5.368   4.359   1.276 -1.3121 -1.7522  0.3612
11727TIP3    H256673   5.429   4.314   1.145  0.2757 -1.0832  0.8446
11728TIP3   OH256674   0.047   3.207  16.682  0.3367 -0.0609 -0.2505
11728TIP3    H156675   0.121   3.164  16.724  0.2532 -0.2063 -0.2509
11728TIP3    H256676   0.071   3.300  16.681 -0.1283  0.0850  1.0921
11729TIP3   OH256677   1.805   1.817  17.207 -0.4856  0.0313  0.6039
11729TIP3    H156678   1.742   1.887  17.225 -1.8852 -1.3364  1.2535
11729TIP3    H256679   1.770   1.741  17.253  2.6046 -0.3711  2.5366
11730TIP3   OH256680   4.840   3.957  11.381 -0.2843 -0.5715 -0.1900
11730TIP3    H156681   4.839   4.034  11.323 -1.2769  1.2345  2.0562
11730TIP3    H256682   4.769   3.973  11.443 -0.3520 -3.2368  0.5134
11731TIP3   OH256683   4.562   4.906  13.479 -0.3391 -0.2533  0.6817
11731TIP3    H156684   4.563   4.860  13.395 -1.7361 -0.4597  0.7551
11731TIP3    H256685   4.533   4.841  13.542  0.2049  0.0372  1.2406
11732TIP3   OH256686   5.165   3.262  12.605 -0.8355 -0.3160  0.2171
11732TIP3    H156687   5.087   3.268  12.660 -1.5262 -0.2460 -0.7391
11732TIP3    H256688   5.177   3.351  12.572 -1.2962 -0.6488 -0.8865
11733TIP3   OH256689   0.347   4.419   2.853  0.0978 -0.2371 -0.5634
11733TIP3    H156690   0.322   4.475   2.780  0.7933 -1.5163 -1.8381
11733TIP3    H256691   0.270   4.365   2.870  0.0861 -0.2520 -0.6628
11734TIP3   OH256692   4.183   4.483   1.010  0.1820  0.3108 -0.3320
11734TIP3    H156693   4.221   4.523   1.088  0.7299  0.4234 -0.6463
11734TIP3    H256694   4.189   4.551   0.943 -1.2960  0.5979 -0.2027
11735TIP3   OH256695   1.055   0.990   1.829  0.4978 -0.2354 -0.4628
11735TIP3    H156696   1.111   0.923   1.791 -3.7732 -4.3450 -0.5017
11735TIP3    H256697   0.984   1.000   1.765 -1.7729  0.1979  1.9654
11736TIP3   OH256698   2.504   3.263   2.843  0.2852 -0.1688  0.0392
11736TIP3    H156699   2.592   3.235   2.869 -0.3437 -3.4157 -0.9022
11736TIP3    H256700   2.518   3.348   2.801  3.0361 -0.7917 -0.5152
11737TIP3   OH256701   3.919   6.310   4.918 -0.1931 -0.6286 -0.1790
11737TIP3    H156702   3.899   6.217   4.906 -0.6349 -0.3389 -2.0511
11737TIP3    H256703   3.897   6.350   4.834 -1.6637  1.4772  1.0915
11738TIP3   OH256704   2.505   0.345  14.713 -0.0894 -0.1623 -0.1608
11738TIP3    H156705   2.409   0.342  14.714 -0.1264  0.3917  2.0976
11738TIP3    H256706   2.531   0.324  14.802  1.7462  2.8649  0.1656
11739TIP3   OH256707   3.711   0.622  14.736  0.0352 -0.3655  0.2829
11739TIP3    H156708   3.700   0.669  14.818 -3.1658 -2.2065  1.0679
11739TIP3    H256709   3.787   0.566  14.751 -0.3267 -0.4677  1.9081
11740TIP3   OH256710   6.813   5.222   3.930 -0.2183 -0.0438 -0.0468
11740TIP3    H156711   6.853   5.246   4.014 -1.9991 -0.7325  1.0384
11740TIP3    H256712   6.871   5.154   3.895  1.4223  1.3597 -0.1862
11741TIP3   OH256713   4.768   1.886   4.751  0.4715 -0.5244  0.1116
11741TIP3    H156714   4.690   1.919   4.705  0.9815  1.0113  0.3249
11741TIP3    H256715   4.750   1.902   4.843  0.8295 -0.6430  0.2012
11742TIP3   OH256716   0.371   6.535  15.540  0.1193 -0.2213 -1.2113
11742TIP3    H156717   0.462   6.508  15.550  0.1957  0.4101  0.0154
11742TIP3    H256718   0.324   6.489  15.610 -0.0917  1.2376 -0.3677
11743TIP3   OH256719   5.088   4.307  16.885 -0.1940 -0.1575 -0.3125
11743TIP3    H156720   5.029   4.261  16.825 -1.7535 -0.0160  1.0546
11743TIP3    H256721   5.120   4.381  16.833 -0.6383 -0.6379 -1.3127
11744TIP3   OH256722   1.596   2.088   0.323  0.3643 -0.0915 -0.3081
11744TIP3    H156723   1.547   2.038   0.388 -0.3980  0.4840 -0.4221
11744TIP3    H256724   1.686   2.057   0.331  0.1158 -0.6415  0.4212
11745TIP3   OH256725   3.860   4.780   2.375 -0.7247  0.1229 -0.3531
11745TIP3    H156726   3.786   4.739   2.419 -0.5479 -1.0374 -1.0798
11745TIP3    H256727   3.873   4.727   2.296  0.7482  0.4253 -0.3418
11746TIP3   OH256728   0.171   4.185   5.671 -0.5206  0.1497  0.0544
11746TIP3    H156729   0.092   4.143   5.706  0.7171 -0.1865  2.6453
11746TIP3    H256730   0.198   4.246   5.739  1.7009 -0.0677 -0.5547
11747TIP3   OH256731   5.231   4.910   5.019  0.5763 -0.6506 -0.4182
11747TIP3    H156732   5.241   4.822   5.055  4.1930 -0.0435  0.4638
11747TIP3    H256733   5.305   4.920   4.959  1.0123  2.1645  0.4280
11748TIP3   OH256734   3.995   3.870  15.638 -0.1576 -0.0159 -0.1895
11748TIP3    H156735   3.947   3.884  15.720  1.5480  1.4082  0.6257
11748TIP3    H256736   4.087   3.872  15.664  0.3989 -1.0641 -1.9399
11749TIP3   OH256737   4.742   4.514   1.312  1.4674  0.0941  0.2162
11749TIP3    H156738   4.782   4.427   1.320  2.5257  0.6862  1.6739
11749TIP3    H256739   4.649   4.500   1.330  1.4088 -0.8926 -0.7116
11750TIP3   OH256740   4.025   0.354   2.733 -0.0067 -0.2149  0.1209
11750TIP3    H156741   3.944   0.304   2.729  0.3451 -0.7986  0.1117
11750TIP3    H256742   4.084   0.300   2.786  0.0343  0.6985  1.0387
11751TIP3   OH256743   2.349   6.608  12.369  0.2440 -0.2819 -0.5358
11751TIP3    H156744   2.436   6.644  12.352  0.8837 -2.7824 -3.3930
11751TIP3    H256745   2.304   6.615  12.285 -2.1380  0.3389  0.7222
11752TIP3   OH256746   4.059   6.644  11.015 -0.4190  0.5397  0.3681
11752TIP3    H156747   3.992   6.614  11.077 -0.9795  1.2982  0.1397
11752TIP3    H256748   4.032   6.607  10.931  1.1738 -1.7931  0.7813
11753TIP3   OH256749   3.717   2.573  16.500  0.3142 -0.1892  0.3052
11753TIP3    H156750   3.766   2.650  16.530 -0.0562 -0.4264  1.5785
11753TIP3    H256751   3.647   2.610  16.446  0.9774  0.2588 -0.2642
11754TIP3   OH256752   2.489   3.302  13.857  0.2732  0.5121 -0.4645
11754TIP3    H156753   2.412   3.282  13.803 -0.7507 -0.9751  1.4333
11754TIP3    H256754   2.563   3.285  13.799 -0.7694 -0.5468 -1.5682
11755TIP3   OH256755   3.566   5.203   0.931  0.2402  0.0491  0.5545
11755TIP3    H156756   3.562   5.265   1.004  3.0107  0.2900  0.6441
11755TIP3    H256757   3.627   5.136   0.960 -0.6878 -1.3223 -0.5455
11756TIP3   OH256758   0.077   0.864   2.252  0.0699  0.0620 -0.4849
11756TIP3    H156759   0.054   0.868   2.345  4.3907 -0.9028  0.8574
11756TIP3    H256760   0.075   0.771   2.230  2.5122 -0.1633 -0.1362
11757TIP3   OH256761   6.320   6.682   2.778 -0.3053  0.2987  0.6285
11757TIP3    H156762   6.239   6.725   2.807 -0.4441  1.7088 -1.6116
11757TIP3    H256763   6.293   6.592   2.758 -0.8377  0.1742  1.7682
11758TIP3   OH256764   0.458   0.987   5.579  0.1143  0.2147 -0.2373
11758TIP3    H156765   0.452   1.077   5.611  0.8099  0.3432 -0.4482
11758TIP3    H256766   0.464   0.934   5.658 -2.7523  0.0956  0.0147
11759TIP3   OH256767   0.454   4.136   6.164 -0.3108 -0.3156 -0.4014
11759TIP3    H156768   0.450   4.145   6.069  1.0360  1.0563 -0.3703
11759TIP3    H256769   0.457   4.226   6.197  1.1313 -0.7532  0.8000
11760TIP3   OH256770   2.787   6.496  14.442  0.4278 -0.7383  0.2784
11760TIP3    H156771   2.761   6.589  14.443  2.8692  0.0722 -1.7145
11760TIP3    H256772   2.747   6.460  14.363  2.2805 -0.3802 -0.8923
11761TIP3   OH256773   4.529   5.640  14.152  0.6731  0.1710  0.4816
11761TIP3    H156774   4.497   5.584  14.222  2.3896 -0.5990  0.7139
11761TIP3    H256775   4.451   5.671  14.108 -0.3758 -2.5457  0.2318
11762TIP3   OH256776   3.248   0.172  16.144  0.3559 -0.2704 -0.5080
11762TIP3    H156777   3.282   0.218  16.067  0.5344 -0.7889 -0.7410
11762TIP3    H256778   3.299   0.207  16.217  0.7747 -0.3983 -0.7385
11763TIP3   OH256779   2.370   3.703  16.581  0.0484  0.1657  0.4234
11763TIP3    H156780   2.413   3.787  16.570  1.0227  0.0174  2.6904
11763TIP3    H256781   2.434   3.638  16.552 -0.8510  0.1523 -1.7217
11764TIP3   OH256782   6.366   4.555  13.843 -0.2664 -0.1162 -0.0141
11764TIP3    H156783   6.446   4.517  13.808  0.8004  2.2071 -0.2912
11764TIP3    H256784   6.296   4.504  13.803  1.0441 -1.0670 -1.1842
11765TIP3   OH256785   3.708   6.172   2.612  0.1182 -0.2008  0.0228
11765TIP3    H156786   3.636   6.212   2.563 -0.1616 -0.2859  0.3524
11765TIP3    H256787   3.773   6.148   2.546  0.0637  0.3343 -0.2300
11766TIP3   OH256788   0.527   6.062   1.187 -0.0505 -0.3273 -0.1948
11766TIP3    H156789   0.535   6.153   1.158 -2.0820 -0.3221 -0.9036
11766TIP3    H256790   0.580   6.013   1.124  1.3840  0.3607  0.4259
11767TIP3   OH256791   3.988   1.602  14.844  0.2211 -0.3308 -0.3382
11767TIP3    H156792   4.043   1.660  14.792 -0.3665 -0.3887 -1.0337
11767TIP3    H256793   3.983   1.644  14.930  0.2395  0.3763 -0.6783
11768TIP3   OH256794   5.031   0.479  11.729 -0.0904 -0.3175  0.4222
11768TIP3    H156795   5.012   0.392  11.762 -1.6648  1.4735  5.0031
11768TIP3    H256796   4.958   0.499  11.671 -0.1735 -1.6400  0.0358
11769TIP3   OH256797   3.482   3.616  15.168  0.3086 -0.4867  0.2007
11769TIP3    H156798   3.526   3.627  15.253  1.0458  1.1998 -0.3722
11769TIP3    H256799   3.546   3.571  15.114  1.0375  1.1484 -0.3524
11770TIP3   OH256800   6.029   3.531   3.060 -0.2278  0.4776  0.6245
11770TIP3    H156801   5.986   3.491   2.984 -2.5308  1.2169  1.4562
11770TIP3    H256802   5.991   3.485   3.135  3.5419 -1.7171  1.4166
11771TIP3   OH256803   6.342   3.266   1.144  0.1576 -0.4276  0.2324
11771TIP3    H156804   6.313   3.277   1.235  0.0793  0.2242  0.1385
11771TIP3    H256805   6.272   3.216   1.103  0.7653 -1.7865  0.8177
11772TIP3   OH256806   6.584   3.791  14.630 -0.2917  0.2137  0.3950
11772TIP3    H156807   6.653   3.728  14.654 -0.9846 -0.6656  0.1527
11772TIP3    H256808   6.624   3.877  14.644  1.1097 -0.2630 -0.4657
11773TIP3   OH256809   1.789   0.042   0.864  0.2478  0.1033  0.1791
11773TIP3    H156810   1.748   0.012   0.783  0.1012 -1.3657  0.7752
11773TIP3    H256811   1.718   0.083   0.914  0.3919  1.2401 -0.5200
11774TIP3   OH256812   6.404   3.960   3.982  0.1417  0.2404  0.1142
11774TIP3    H156813   6.401   3.949   3.887  0.4963 -1.7809  0.3017
11774TIP3    H256814   6.440   4.048   3.995  0.5925  0.3384 -1.6046
11775TIP3   OH256815   5.162   4.269  17.185 -0.3656  0.4731  0.4279
11775TIP3    H156816   5.174   4.348  17.237  0.9491  0.2239  0.5193
11775TIP3    H256817   5.138   4.302  17.098  1.0248  1.0276  0.2316
11776TIP3   OH256818   3.245   3.434   1.657  0.0706  0.3265 -0.1843
11776TIP3    H156819   3.206   3.519   1.676 -0.8654  0.1251 -1.1215
11776TIP3    H256820   3.334   3.440   1.693 -0.5490  1.0765  1.2802
11777TIP3   OH256821   0.608   6.642   4.970  0.1722  0.0488 -0.5463
11777TIP3    H156822   0.672   6.601   5.028 -0.1117  0.3752  0.0054
11777TIP3    H256823   0.527   6.646   5.022 -0.1464  0.1321 -1.0446
11778TIP3   OH256824   0.199   2.028   4.180  0.0182 -0.2158  0.4878
11778TIP3    H156825   0.182   2.118   4.208 -2.0161  0.0874 -1.4525
11778TIP3    H256826   0.264   2.036   4.110  1.7628 -0.5649  1.9872
11779TIP3   OH256827   2.675   3.933  15.779  0.1162  0.1345 -0.5042
11779TIP3    H156828   2.736   3.939  15.851 -0.0981 -2.4643 -0.0013
11779TIP3    H256829   2.645   4.023  15.764  1.7420  1.0118  1.2188
11780TIP3   OH256830   1.036   2.455  12.765  0.0020  0.2262  0.5295
11780TIP3    H156831   0.997   2.384  12.815  1.1976 -1.1883 -0.4494
11780TIP3    H256832   0.981   2.463  12.687  1.3992 -1.5838 -0.7190
11781TIP3   OH256833   0.046   2.996   6.627  0.3192 -0.1407 -0.2607
11781TIP3    H156834   0.056   3.025   6.717  0.2621 -0.2278 -0.2260
11781TIP3    H256835   0.015   3.073   6.580  0.3499 -0.0950 -0.2061
11782TIP3   OH256836   2.070   5.125  11.539 -0.1017  0.7896 -0.3223
11782TIP3    H156837   2.116   5.083  11.611 -0.7118  0.9729  0.1842
11782TIP3    H256838   2.076   5.219  11.559 -0.9745  0.8016 -0.0622
11783TIP3   OH256839   0.460   0.447  13.166 -0.1987  0.1509  0.2776
11783TIP3    H156840   0.463   0.538  13.137  1.4253 -0.3316 -1.2565
11783TIP3    H256841   0.382   0.442  13.222 -1.7318  1.9154 -1.5474
11784TIP3   OH256842   2.244   1.494  13.525  0.0794  0.9960 -0.2693
11784TIP3    H156843   2.265   1.512  13.433  1.1033  0.3050 -0.1922
11784TIP3    H256844   2.231   1.399  13.528  0.9195  0.8855  0.4451
11785TIP3   OH256845   1.569   2.270   5.557  0.3092  0.5705 -0.5252
11785TIP3    H156846   1.539   2.267   5.648 -0.2241  2.1103 -0.6197
11785TIP3    H256847   1.518   2.341   5.518  1.5770  0.8916 -1.6472
11786TIP3   OH256848   0.210   2.787   2.375 -0.1127 -0.6548  0.0215
11786TIP3    H156849   0.197   2.767   2.468  1.4493 -2.1570 -0.0293
11786TIP3    H256850   0.122   2.787   2.338 -0.7682  0.0187  1.5009
11787TIP3   OH256851   3.131   5.167   1.131  0.2961  0.5448 -0.1779
11787TIP3    H156852   3.137   5.228   1.058  0.1388 -0.0762 -0.7210
11787TIP3    H256853   3.221   5.143   1.150  0.3485  0.8278 -0.0628
11788TIP3   OH256854   5.473   4.018   4.270  0.3344 -0.1718  0.7004
11788TIP3    H156855   5.379   4.012   4.255  0.4453  0.5655 -0.3024
11788TIP3    H256856   5.490   4.111   4.281  0.8312 -0.3692  1.7410
11789TIP3   OH256857   2.613   1.219  12.473  0.1926 -0.2902  0.0490
11789TIP3    H156858   2.520   1.199  12.462  0.1771 -1.0950  1.3977
11789TIP3    H256859   2.616   1.312  12.493 -0.2577 -0.1019 -0.7461
11790TIP3   OH256860   4.857   4.497  14.145 -0.1473 -0.0477 -0.2032
11790TIP3    H156861   4.863   4.477  14.239 -1.1519 -1.0371 -0.3312
11790TIP3    H256862   4.764   4.487  14.124  0.0382  0.3535 -1.2719
11791TIP3   OH256863   3.814   2.454   2.688  0.5024  0.3455 -0.0550
11791TIP3    H156864   3.805   2.522   2.754  0.5920 -0.0886  0.4130
11791TIP3    H256865   3.789   2.373   2.733  2.7495 -0.3149  0.1388
11792TIP3   OH256866   3.348   2.580   5.776 -0.4849  0.2239  0.1389
11792TIP3    H156867   3.430   2.588   5.727  0.2490 -0.4952  1.1852
11792TIP3    H256868   3.285   2.632   5.727  0.3017 -0.1584 -1.3418
11793TIP3   OH256869   1.630   4.441  16.249 -0.6555  0.0008 -0.2522
11793TIP3    H156870   1.633   4.520  16.195 -1.7660  0.9082  0.9666
11793TIP3    H256871   1.648   4.370  16.187  1.7985  1.2570 -1.1428
11794TIP3   OH256872   3.932   2.304   3.458  0.1454 -0.8427  0.2401
11794TIP3    H156873   3.918   2.392   3.492 -0.8777 -1.2337  0.8746
11794TIP3    H256874   4.013   2.274   3.499  2.2566  0.9080 -2.3332
11795TIP3   OH256875   2.910   0.013  14.537 -1.0723 -0.9237  0.3547
11795TIP3    H156876   2.884  -0.040  14.462  1.5432 -0.4539 -1.0054
11795TIP3    H256877   2.877   0.101  14.517  1.4046 -0.3103 -1.3897
11796TIP3   OH256878   0.113   0.482   0.041  0.4306  0.3794  0.4683
11796TIP3    H156879   0.043   0.435  -0.004 -0.1705  0.5026  1.2461
11796TIP3    H256880   0.078   0.571   0.052  0.9054  0.5704  0.4398
11797TIP3   OH256881   2.376   6.323   2.800  0.0907  0.0635  0.5029
11797TIP3    H156882   2.294   6.368   2.823 -1.5083 -1.2636 -2.1622
11797TIP3    H256883   2.365   6.234   2.835  0.7480  0.0836  0.7794
11798TIP3   OH256884   4.925   6.169   5.422  0.0395 -0.1541  0.2173
11798TIP3    H156885   4.957   6.140   5.337 -1.2151  0.9322 -0.6646
11798TIP3    H256886   4.947   6.262   5.426  1.7269 -0.5503  1.9135
11799TIP3   OH256887   1.097   3.189   0.954 -0.1974  0.0037 -0.2145
11799TIP3    H156888   1.156   3.157   0.887  2.4304 -0.2801  2.0583
11799TIP3    H256889   1.010   3.161   0.925  1.0530 -1.9204 -2.4224
11800TIP3   OH256890   1.692   4.576  14.212  0.3230 -0.1590 -0.2848
11800TIP3    H156891   1.673   4.651  14.270  0.7021  2.5015 -3.3252
11800TIP3    H256892   1.638   4.592  14.135  0.9615 -2.7261 -1.3396
11801TIP3   OH256893   2.011   6.221   0.232  0.4274  0.3190 -0.0015
11801TIP3    H156894   2.085   6.252   0.283  1.1722  0.7161 -1.2846
11801TIP3    H256895   2.050   6.169   0.161 -0.5797 -0.2941 -0.1361
11802TIP3   OH256896   2.441   4.090   6.464 -0.5413 -0.2008  0.3375
11802TIP3    H156897   2.406   4.149   6.531 -0.4620 -1.4484  1.5069
11802TIP3    H256898   2.531   4.074   6.490 -0.5002 -0.6860 -0.0919
11803TIP3   OH256899   0.142   6.608  16.511 -0.0216 -0.0061 -0.1247
11803TIP3    H156900   0.210   6.638  16.572 -1.0437 -0.3348  1.2240
11803TIP3    H256901   0.130   6.682  16.451  0.7850  0.4659  0.2771
11804TIP3   OH256902   1.971   1.484   4.619  0.6530 -0.2756 -0.2736
11804TIP3    H156903   1.987   1.462   4.527  1.1370 -0.6885 -0.0964
11804TIP3    H256904   2.015   1.569   4.630 -0.7036  0.5357 -0.8017
11805TIP3   OH256905   6.828   1.304   0.597  0.2682  0.7637 -0.2370
11805TIP3    H156906   6.920   1.283   0.578  1.7123  2.2654  4.0582
11805TIP3    H256907   6.825   1.400   0.594 -0.0531  0.9848  3.1785
11806TIP3   OH256908   0.978   3.351  13.026  0.1989 -0.1198 -0.4073
11806TIP3    H156909   0.986   3.421  13.091 -1.4459  0.7650 -1.0973
11806TIP3    H256910   1.011   3.273  13.071  1.1406  0.8879  0.7227
11807TIP3   OH256911   4.578   2.396   2.983 -0.0475  0.1906 -0.5113
11807TIP3    H156912   4.500   2.359   2.942 -1.3381  1.0837  1.0093
11807TIP3    H256913   4.557   2.488   2.995  0.8782  0.2724  0.7034
11808TIP3   OH256914   5.899   1.786  12.616  0.2054  0.6177  0.0100
11808TIP3    H156915   5.902   1.813  12.524 -1.8051 -0.7186 -0.5285
11808TIP3    H256916   5.807   1.794  12.640  0.2027 -1.6807  1.0338
11809TIP3   OH256917   5.145   2.733  12.145  0.4957 -0.3352 -0.7883
11809TIP3    H156918   5.122   2.675  12.073  1.0178 -0.9923 -0.4293
11809TIP3    H256919   5.239   2.721  12.157  0.6026  0.5291 -0.6556
11810TIP3   OH256920   4.461   0.528  15.513  0.3832  0.4238  0.6655
11810TIP3    H156921   4.404   0.544  15.438 -0.0282 -1.4099  0.5212
11810TIP3    H256922   4.543   0.571  15.492 -0.2409  1.2491 -0.1217
11811TIP3   OH256923   5.441   5.739   4.285 -0.8806  0.6293  0.2104
11811TIP3    H156924   5.380   5.682   4.333 -2.3417  1.1220 -0.9761
11811TIP3    H256925   5.516   5.749   4.344 -1.8777 -0.1272  1.6741
11812TIP3   OH256926   0.516   5.385  10.304 -0.4740 -0.3926 -0.3533
11812TIP3    H156927   0.510   5.455  10.369  1.7469 -0.2282 -0.2424
11812TIP3    H256928   0.434   5.337  10.312 -2.6081  2.7856 -1.1710
11813TIP3   OH256929   0.440   3.127  12.162 -0.7195 -0.2942  0.5073
11813TIP3    H156930   0.482   3.171  12.089  0.5781 -0.1193  1.3195
11813TIP3    H256931   0.389   3.057  12.122 -1.4984  0.9187 -0.6733
11814TIP3   OH256932   5.511   5.311   6.068 -0.5303 -0.3811 -0.3994
11814TIP3    H156933   5.426   5.343   6.099 -0.5093  0.0506 -0.7699
11814TIP3    H256934   5.491   5.228   6.024 -0.8376 -0.0413 -0.9150
11815TIP3   OH256935   6.104   6.100  14.834  0.4863 -0.1276 -0.4411
11815TIP3    H156936   6.109   6.183  14.787  1.3000  0.0886  0.0055
11815TIP3    H256937   6.092   6.125  14.925 -0.6293 -0.5352 -0.4704
11816TIP3   OH256938   5.472   6.711   1.605  0.3668  0.1830  0.4317
11816TIP3    H156939   5.441   6.772   1.671  1.1958  0.9477  0.1330
11816TIP3    H256940   5.392   6.681   1.560 -0.2750 -0.8633  2.1726
11817TIP3   OH256941   2.417   6.698  11.269 -0.3870  0.0439  0.6201
11817TIP3    H156942   2.376   6.671  11.187  1.7415  0.5342 -0.6910
11817TIP3    H256943   2.441   6.616  11.313  0.1259 -0.2413 -0.1685
11818TIP3   OH256944   4.312   1.914   3.246 -0.1892 -0.5848  0.0530
11818TIP3    H156945   4.401   1.946   3.233 -0.8346  0.6919 -1.5364
11818TIP3    H256946   4.324   1.824   3.276  1.6589 -1.0840 -1.8629
11819TIP3   OH256947   0.775   2.950  16.679 -0.1233 -0.2387  0.6729
11819TIP3    H156948   0.685   2.920  16.666 -0.1041 -0.3052  0.6920
11819TIP3    H256949   0.812   2.955  16.591  0.3320 -1.6970  0.7488
11820TIP3   OH256950   0.957   2.903   3.650  0.0013 -0.1042 -0.2655
11820TIP3    H156951   0.865   2.901   3.622 -0.2204 -3.0510  0.2858
11820TIP3    H256952   1.006   2.924   3.571 -1.0542 -0.5402 -1.0647
11821TIP3   OH256953   5.657   1.930   0.504  0.1507 -0.1148  0.0031
11821TIP3    H156954   5.641   1.887   0.588  1.0500 -0.0216  0.2377
11821TIP3    H256955   5.698   1.862   0.450  1.9978  0.5195  0.5240
11822TIP3   OH256956   3.876   3.663  16.938 -0.5400  0.4885  0.7622
11822TIP3    H156957   3.874   3.643  17.031  1.8130 -1.0182  0.5858
11822TIP3    H256958   3.958   3.711  16.926 -0.2173 -0.3495 -0.6572
11823TIP3   OH256959   3.427   4.137  13.722 -0.0131 -0.3488 -0.1482
11823TIP3    H156960   3.336   4.147  13.695 -0.0598  0.9539  0.3986
11823TIP3    H256961   3.473   4.107  13.644 -1.1370 -2.4498 -0.0564
11824TIP3   OH256962   1.409   5.884   1.730  0.2870 -1.2924 -0.1940
11824TIP3    H156963   1.418   5.972   1.767 -1.9183 -1.0084 -0.1608
11824TIP3    H256964   1.444   5.892   1.641  0.3726 -0.4502 -0.0968
11825TIP3   OH256965   5.382   0.718   4.206  0.0831 -0.2140  0.5650
11825TIP3    H156966   5.367   0.626   4.183  0.1815 -0.0197 -0.3036
11825TIP3    H256967   5.374   0.765   4.123 -0.3565  0.6156  1.0688
11826TIP3   OH256968   3.013   1.024   4.874 -0.7166  0.6354 -0.8372
11826TIP3    H156969   2.973   0.993   4.955 -0.1454  1.6153 -0.1525
11826TIP3    H256970   3.017   0.947   4.818  0.1819 -0.4304  0.5960
11827TIP3   OH256971   6.824   2.221   2.490 -0.5694  0.5156  0.1544
11827TIP3    H156972   6.875   2.217   2.572 -0.3255 -0.5395 -0.0290
11827TIP3    H256973   6.867   2.289   2.438  0.2270  0.1249  0.2901
11828TIP3   OH256974   0.771   5.369   4.342 -0.4358  0.0039  0.4777
11828TIP3    H156975   0.760   5.284   4.300  2.4596  0.0438 -0.5702
11828TIP3    H256976   0.820   5.352   4.422 -0.0321  0.6542  0.3798
11829TIP3   OH256977   6.516   3.679  15.148 -0.2875 -0.4037  0.1176
11829TIP3    H156978   6.459   3.669  15.073 -0.2862  0.0924  0.0467
11829TIP3    H256979   6.598   3.714  15.112 -0.7091  1.0243  0.4954
11830TIP3   OH256980   3.862   2.194   3.722 -0.0766 -0.2908 -0.1134
11830TIP3    H156981   3.846   2.108   3.683  0.1751 -0.2048 -0.4165
11830TIP3    H256982   3.950   2.218   3.691 -0.3278  0.2710 -0.3924
11831TIP3   OH256983   6.583   1.547  14.032 -0.2241 -0.5217  0.2004
11831TIP3    H156984   6.584   1.473  13.971  2.5580 -0.6213  0.2393
11831TIP3    H256985   6.612   1.621  13.980  0.3969 -0.2197  0.9538
11832TIP3   OH256986   1.720   4.237   4.881  0.2975  0.2258 -0.0322
11832TIP3    H156987   1.674   4.279   4.809 -0.1314 -1.2981 -0.6713
11832TIP3    H256988   1.650   4.207   4.940  0.6515  1.8955  1.3106
11833TIP3   OH256989   2.268   4.377   2.379  0.0206  0.1145  0.5854
11833TIP3    H156990   2.174   4.370   2.361  0.1269  0.1410 -0.0182
11833TIP3    H256991   2.291   4.467   2.354  0.3802 -0.1760 -0.1702
11834TIP3   OH256992   0.214   0.234   5.750  0.0106  0.3803 -0.0086
11834TIP3    H156993   0.161   0.156   5.764  0.9620 -0.4887 -1.0126
11834TIP3    H256994   0.197   0.289   5.826 -4.1317  1.2691 -1.3275
11835TIP3   OH256995   5.464   0.492   3.194  0.0803 -0.4664  0.0372
11835TIP3    H156996   5.430   0.470   3.107  1.1958  1.1170 -0.8426
11835TIP3    H256997   5.542   0.438   3.203  1.8384  1.6489 -1.4003
11836TIP3   OH256998   2.393   2.072  13.758  0.9943 -0.0131 -0.5679
11836TIP3    H156999   2.368   2.155  13.718 -0.7236  0.5903  1.5875
11836TIP3    H257000   2.474   2.092  13.805  1.2358  0.1003 -1.0197
11837TIP3   OH257001   4.771   2.731   4.200 -0.2640  0.1941 -0.3390
11837TIP3    H157002   4.783   2.774   4.116  0.9981  1.6411  0.5298
11837TIP3    H257003   4.853   2.684   4.216 -0.4978 -0.0848  0.0819
11838TIP3   OH257004   2.973   0.238   0.914 -0.1256  0.5575  0.1053
11838TIP3    H157005   3.051   0.188   0.894  1.5245  2.6613  0.9257
11838TIP3    H257006   2.947   0.209   1.001 -0.7693 -0.6914 -0.4751
11839TIP3   OH257007   3.797   1.280   3.772 -0.0593  0.1964  0.3744
11839TIP3    H157008   3.807   1.207   3.833 -0.0019 -0.4380 -0.3817
11839TIP3    H257009   3.877   1.331   3.782  0.2714 -0.3095  0.3004
11840TIP3   OH257010   2.038   1.881   2.585 -0.1583 -0.1582  0.0477
11840TIP3    H157011   1.999   1.946   2.527 -2.0702 -1.0956  0.2102
11840TIP3    H257012   2.118   1.923   2.618  0.4264  0.8129 -2.3843
11841TIP3   OH257013   0.261   5.141  17.123  0.7725 -0.1786 -0.6551
11841TIP3    H157014   0.356   5.145  17.139  1.0324 -0.9395 -1.8718
11841TIP3    H257015   0.249   5.061  17.071 -0.9047 -1.7908  1.9502
11842TIP3   OH257016   5.707   5.219  16.127  0.7702  0.4809  0.6328
11842TIP3    H157017   5.724   5.137  16.173  1.6832  0.9958  1.2463
11842TIP3    H257018   5.612   5.229  16.129  0.4286 -1.5531 -1.2114
11843TIP3   OH257019   2.690   6.085   2.741 -0.1001  0.0111 -0.6538
11843TIP3    H157020   2.773   6.052   2.708  0.4325  1.9249 -1.3495
11843TIP3    H257021   2.693   6.179   2.725 -2.5877  0.0949 -1.1097
11844TIP3   OH257022   1.849   0.517   0.878 -0.7219  0.3839  0.1327
11844TIP3    H157023   1.861   0.603   0.918 -0.0464  0.7573 -0.8282
11844TIP3    H257024   1.911   0.516   0.805 -1.6056 -0.4338 -0.6354
11845TIP3   OH257025   0.573   1.536   5.621 -0.8520 -0.5949 -0.4320
11845TIP3    H157026   0.519   1.510   5.696 -0.9154 -2.3693 -1.0579
11845TIP3    H257027   0.574   1.632   5.626 -2.1231 -0.5958  0.9407
11846TIP3   OH257028   3.869   2.082  12.474  0.1241 -0.6582  0.7649
11846TIP3    H157029   3.938   2.086  12.539 -0.4425 -0.6802  1.3813
11846TIP3    H257030   3.889   2.004  12.422  2.0246  0.7541 -0.7680
11847TIP3   OH257031   5.558   0.564  16.855  0.4539 -0.6391  0.1733
11847TIP3    H157032   5.606   0.637  16.816 -1.1833 -0.1472 -1.0675
11847TIP3    H257033   5.589   0.487  16.807 -0.6701 -0.1907 -1.3560
11848TIP3   OH257034   5.241   2.124  17.118  0.4865 -0.5053  0.6172
11848TIP3    H157035   5.204   2.193  17.063  0.2834  0.0753  1.4789
11848TIP3    H257036   5.244   2.047  17.060  0.1236  0.0490 -0.1571
11849TIP3   OH257037   3.926   1.439   0.128 -0.4048 -0.5710 -0.0224
11849TIP3    H157038   3.920   1.530   0.099 -0.2689 -0.2480  0.9458
11849TIP3    H257039   4.008   1.434   0.176 -0.7418 -1.0335  0.5183
11850TIP3   OH257040   1.066   1.739   5.198  0.4169 -0.3967 -0.0277
11850TIP3    H157041   1.089   1.674   5.132 -0.2871 -1.8233  1.0866
11850TIP3    H257042   0.991   1.786   5.161  0.9303 -0.1926 -0.8390
11851TIP3   OH257043   6.210   2.167   2.225 -0.2204 -0.2836 -0.1126
11851TIP3    H157044   6.196   2.082   2.183  0.9632 -0.1777 -0.7654
11851TIP3    H257045   6.300   2.191   2.202 -0.2010  0.6892  0.8873
11852TIP3   OH257046   2.356   6.177  11.908 -0.4850  0.7472 -0.0022
11852TIP3    H157047   2.261   6.176  11.918 -0.4791 -1.3613  0.2278
11852TIP3    H257048   2.371   6.175  11.814 -0.6443  1.2014 -0.0426
11853TIP3   OH257049   3.576   6.122  12.228  0.3241 -0.0947  0.3204
11853TIP3    H157050   3.643   6.078  12.280  0.1073 -1.8025 -0.7841
11853TIP3    H257051   3.513   6.054  12.205 -0.8993  1.1246 -0.1001
11854TIP3   OH257052   4.178   4.801  11.832 -0.4114  0.6702 -0.3048
11854TIP3    H157053   4.156   4.714  11.865  0.0928  0.2525 -1.0444
11854TIP3    H257054   4.105   4.823  11.774 -0.1344  0.3843 -0.7626
11855TIP3   OH257055   2.941   5.079  16.910  0.5280 -0.1421 -0.1574
11855TIP3    H157056   3.005   5.086  16.839  2.0719  1.5213  1.3224
11855TIP3    H257057   2.944   5.164  16.954  0.0118 -1.2947  2.2366
11856TIP3   OH257058   4.884   3.864  12.759 -0.1056  0.4906 -0.2028
11856TIP3    H157059   4.974   3.883  12.730 -0.3206  1.2872 -0.3896
11856TIP3    H257060   4.833   3.939  12.729 -0.8213  0.0925 -0.0101
11857TIP3   OH257061   1.119   0.489   0.018  0.2248 -0.6090  0.1797
11857TIP3    H157062   1.108   0.396  -0.003 -0.5307 -0.7699  1.2134
11857TIP3    H257063   1.206   0.495   0.057 -0.4371 -1.2247  1.8102
11858TIP3   OH257064   1.025   3.036   6.023 -0.0416  0.2756 -0.4108
11858TIP3    H157065   0.951   3.086   6.059 -0.2046  0.2530 -0.7120
11858TIP3    H257066   1.042   2.968   6.088  0.4295  0.9529  0.1928
11859TIP3   OH257067   6.451   0.338   5.386  0.2300 -0.2239  0.1573
11859TIP3    H157068   6.416   0.415   5.430 -0.4146 -1.3822  1.7776
11859TIP3    H257069   6.374   0.282   5.372  0.7906 -0.9056 -0.2803
11860TIP3   OH257070   2.725   0.866   6.099 -0.0705  0.2232 -0.2516
11860TIP3    H157071   2.761   0.949   6.070 -0.7037  0.8604  0.7418
11860TIP3    H257072   2.739   0.865   6.194 -0.9284 -0.3695 -0.1171
11861TIP3   OH257073   1.876   6.585  15.639  0.1750  0.1265 -0.4515
11861TIP3    H157074   1.889   6.622  15.552 -2.6212 -1.6476 -1.7472
11861TIP3    H257075   1.838   6.657  15.690 -1.0822  0.3527 -1.6415
11862TIP3   OH257076   3.990   3.051  15.327  0.5478  0.0889  0.0329
11862TIP3    H157077   3.986   2.971  15.274 -2.5491 -0.7268  1.2806
11862TIP3    H257078   4.040   3.026  15.405 -1.4372 -1.0847  0.9859
11863TIP3   OH257079   1.578   0.947   1.815  0.1419 -0.0105 -0.0345
11863TIP3    H157080   1.663   0.921   1.851 -0.2166  1.5198  2.1606
11863TIP3    H257081   1.598   0.993   1.735  1.3290 -0.2464  0.1139
11864TIP3   OH257082   4.267   4.768   0.145 -0.0902 -0.0222 -0.1865
11864TIP3    H157083   4.242   4.825   0.217  0.3413  0.1053 -0.1316
11864TIP3    H257084   4.211   4.794   0.072 -0.0353  0.3324 -0.1021
11865TIP3   OH257085   1.350   1.142  15.922  0.4606  0.3284  0.0537
11865TIP3    H157086   1.405   1.174  15.851 -0.8590  2.5595 -0.0466
11865TIP3    H257087   1.368   1.201  15.995 -0.5184  0.0283  0.5612
11866TIP3   OH257088   2.329   2.260  13.493 -0.3025  0.1316  0.5180
11866TIP3    H157089   2.268   2.225  13.429 -0.5191 -1.7988  1.7026
11866TIP3    H257090   2.273   2.306  13.556 -0.3808 -0.3283  0.7864
11867TIP3   OH257091   0.522   3.137   5.583 -0.0032  0.1619  0.3379
11867TIP3    H157092   0.548   3.164   5.495 -1.1446 -0.0635 -0.0821
11867TIP3    H257093   0.477   3.212   5.620 -1.1092 -0.3366  0.0447
11868TIP3   OH257094   3.458   3.711   3.562 -0.5880 -0.0868 -0.0451
11868TIP3    H157095   3.532   3.655   3.586 -1.4301 -0.0877  2.9092
11868TIP3    H257096   3.468   3.790   3.616 -1.2728  1.1554 -1.6389
11869TIP3   OH257097   0.873   0.382  15.438 -0.5101 -0.0768  0.5497
11869TIP3    H157098   0.843   0.319  15.372 -0.9817  0.2183  0.4754
11869TIP3    H257099   0.832   0.353  15.519  0.4649 -0.7240  0.8133
11870TIP3   OH257100   3.933   0.469   1.995  0.2801 -0.4003  0.2980
11870TIP3    H157101   3.844   0.435   1.993 -0.1588  0.6096  1.6147
11870TIP3    H257102   3.976   0.421   2.067  0.6808 -0.5717 -0.0472
11871TIP3   OH257103   3.982   6.663  11.909 -0.2018 -0.7817  0.0145
11871TIP3    H157104   3.973   6.637  11.818  2.0340 -1.8359  0.0233
11871TIP3    H257105   4.073   6.692  11.917 -0.6422  0.3133  1.6835
11872TIP3   OH257106   3.340   1.155  12.139 -0.1665 -0.0930 -0.0669
11872TIP3    H157107   3.245   1.168  12.137 -0.3877 -1.0412  1.9749
11872TIP3    H257108   3.355   1.078  12.084 -0.4855  0.4422 -0.9174
11873TIP3   OH257109   2.063   0.284  12.837 -0.6388  0.2321 -0.1659
11873TIP3    H157110   2.002   0.292  12.763 -0.8296  0.2663 -0.0076
11873TIP3    H257111   2.039   0.202  12.880  1.0424 -1.0206 -1.5323
11874TIP3   OH257112   3.959   3.953   0.815  0.0169  0.5997  1.2065
11874TIP3    H157113   4.000   4.036   0.840  1.7315 -0.2687  1.4698
11874TIP3    H257114   3.903   3.930   0.889 -1.2568  1.9653  0.7133
11875TIP3   OH257115   0.887   0.514  12.128 -0.1018  0.3375  0.0628
11875TIP3    H157116   0.881   0.515  12.033 -0.4015 -0.9004  0.0516
11875TIP3    H257117   0.980   0.500  12.146 -0.3243 -1.6616 -0.1138
11876TIP3   OH257118   0.932   2.673  17.105  0.3355 -0.2069  0.5381
11876TIP3    H157119   0.870   2.672  17.178 -0.4630 -0.7830 -0.1193
11876TIP3    H257120   0.897   2.741  17.046  0.0906 -0.7982 -0.0157
11877TIP3   OH257121   2.530   6.723  15.511 -0.6718 -0.4366  0.2009
11877TIP3    H157122   2.495   6.648  15.463  0.3487 -1.5583  1.1526
11877TIP3    H257123   2.604   6.753  15.458 -1.8547  0.7923 -0.8634
11878TIP3   OH257124   1.751   0.593   6.764  0.1750  0.2408  0.0747
11878TIP3    H157125   1.755   0.500   6.787 -1.4956  0.1533  0.1797
11878TIP3    H257126   1.820   0.605   6.699  0.8186 -0.9292  0.5150
11879TIP3   OH257127   3.071   5.653   4.769 -0.0555  0.4428 -0.3120
11879TIP3    H157128   3.066   5.557   4.776 -2.5869  0.6141  1.5522
11879TIP3    H257129   3.103   5.681   4.855  1.2240  1.2939 -1.0334
11880TIP3   OH257130   5.767   5.900   0.318 -0.5594  0.4407  0.3776
11880TIP3    H157131   5.778   5.986   0.277 -0.7690  0.1631 -0.2769
11880TIP3    H257132   5.791   5.838   0.249 -0.5970 -0.0250  0.7852
11881TIP3   OH257133   3.624   4.154  13.522 -0.0468 -0.1456 -0.5418
11881TIP3    H157134   3.669   4.094  13.581  1.6264  0.3572 -1.2231
11881TIP3    H257135   3.638   4.117  13.435  2.8818  2.1753 -1.2362
11882TIP3   OH257136   1.070   4.063   1.741  0.1597  0.4735 -0.6161
11882TIP3    H157137   1.142   4.001   1.739 -0.8554 -0.7590 -0.5983
11882TIP3    H257138   1.054   4.081   1.833 -0.6810 -0.6593 -0.5188
11883TIP3   OH257139   4.246   6.399  16.598 -0.5603 -0.6445 -0.0200
11883TIP3    H157140   4.300   6.471  16.631  1.1727 -2.4012  1.2542
11883TIP3    H257141   4.156   6.430  16.607  0.1261  1.3558  0.4343
11884TIP3   OH257142   1.967   5.694  15.312 -0.1334 -0.0285 -0.2184
11884TIP3    H157143   1.924   5.749  15.246 -0.4807 -1.4347 -1.2082
11884TIP3    H257144   1.927   5.607  15.301  1.9183 -1.0237 -0.1660
11885TIP3   OH257145   2.440   5.520   3.626  0.2885 -0.4803 -0.2746
11885TIP3    H157146   2.473   5.463   3.696 -0.6067  0.6024  1.0909
11885TIP3    H257147   2.346   5.505   3.625  0.1625  0.2741 -0.5182
11886TIP3   OH257148   4.960   1.447  13.703  0.2536  1.0518  0.2172
11886TIP3    H157149   4.901   1.491  13.764  2.2936  1.2571  2.1495
11886TIP3    H257150   5.019   1.395  13.758  1.0487 -0.2317 -1.7012
11887TIP3   OH257151   4.238   2.561   1.695 -0.4908  0.1848  0.3364
11887TIP3    H157152   4.303   2.491   1.706 -0.4161  0.3461  0.9541
11887TIP3    H257153   4.288   2.633   1.657  0.3383  1.2313  3.1811
11888TIP3   OH257154   4.902   3.354  12.786 -0.0839  0.3601 -0.0644
11888TIP3    H157155   4.905   3.415  12.712 -0.2339 -0.1556 -0.5056
11888TIP3    H257156   4.870   3.406  12.859  1.8651  1.3714  0.1351
11889TIP3   OH257157   0.372   1.385  14.444  0.1726 -0.8072  0.6004
11889TIP3    H157158   0.316   1.383  14.366 -0.4144  3.2931  0.6693
11889TIP3    H257159   0.460   1.366  14.411 -0.4373 -1.6894 -0.5726
11890TIP3   OH257160   5.566   2.786   2.349  0.1377 -0.2982  0.2119
11890TIP3    H157161   5.598   2.715   2.293  0.6155 -0.3137  0.4968
11890TIP3    H257162   5.532   2.852   2.288  0.4249 -0.4223 -0.0846
11891TIP3   OH257163   2.070   1.096   2.992  0.7791 -0.5011  0.4174
11891TIP3    H157164   2.044   1.003   2.997  0.4064 -0.4806 -0.7361
11891TIP3    H257165   1.988   1.144   3.005  0.9051 -0.3405  0.6217
11892TIP3   OH257166   5.606   2.983   5.033  0.1896 -0.2033 -0.4127
11892TIP3    H157167   5.545   2.913   5.010  0.4138 -0.2850 -0.7851
11892TIP3    H257168   5.688   2.958   4.989 -0.0057  0.7948 -1.4094
11893TIP3   OH257169   3.404   2.076   5.228 -0.0772  0.1642  0.0270
11893TIP3    H157170   3.375   2.138   5.161  0.1091  0.2973  0.0688
11893TIP3    H257171   3.384   1.990   5.191 -0.3270  0.2472 -0.0347
11894TIP3   OH257172   0.706   6.344  11.534 -0.2424 -0.0894 -0.4951
11894TIP3    H157173   0.800   6.337  11.520 -0.3757 -0.0960 -1.4778
11894TIP3    H257174   0.667   6.303  11.457 -1.0424  1.0526 -0.7368
11895TIP3   OH257175   4.092   2.199   0.705 -0.2972 -0.8984  0.7853
11895TIP3    H157176   4.185   2.215   0.689 -0.9316  0.3540 -2.3674
11895TIP3    H257177   4.069   2.257   0.777  0.6868  1.4087 -0.6614
11896TIP3   OH257178   6.078   5.391   3.830 -0.0838 -0.1341 -0.4066
11896TIP3    H157179   6.161   5.411   3.873 -0.1263  1.6688 -1.0813
11896TIP3    H257180   6.052   5.307   3.867  0.3510  0.8536  2.3791
11897TIP3   OH257181   5.047   5.761   5.515 -0.4602 -0.4816 -0.1364
11897TIP3    H157182   5.072   5.668   5.517  0.5774 -0.2702  3.0418
11897TIP3    H257183   4.983   5.770   5.586 -0.9609  1.1430 -0.7528
11898TIP3   OH257184   1.713   3.444   5.087  0.1034 -0.0798 -0.8178
11898TIP3    H157185   1.744   3.355   5.073 -1.0163 -0.9579  1.6877
11898TIP3    H257186   1.617   3.438   5.084 -0.0992  0.4540  1.8867
11899TIP3   OH257187   1.021   4.597   2.903 -0.2623  0.0627  0.7589
11899TIP3    H157188   0.999   4.506   2.883  1.2172 -0.3088  0.7342
11899TIP3    H257189   1.063   4.594   2.989 -0.1065  0.7057  0.7121
11900TIP3   OH257190   2.488   0.094  12.904 -0.2441  0.9946 -0.2704
11900TIP3    H157191   2.487   0.186  12.929 -0.7962  0.4101  2.1530
11900TIP3    H257192   2.560   0.056  12.954  0.5061  0.2393 -1.8677
11901TIP3   OH257193   3.373   4.267  14.342  0.0023 -0.3006 -0.2573
11901TIP3    H157194   3.396   4.177  14.365  0.9811 -0.3083 -1.1749
11901TIP3    H257195   3.299   4.288  14.399  1.1368 -0.9137  1.5249
11902TIP3   OH257196   0.078   4.699   2.434 -0.1622 -0.0485 -0.4497
11902TIP3    H157197   0.160   4.748   2.436  0.5791 -1.2532 -0.2787
11902TIP3    H257198   0.017   4.752   2.484  1.0738 -0.0641  1.1856
11903TIP3   OH257199   6.057   1.175  14.744  0.3470 -0.5645 -0.2181
11903TIP3    H157200   6.067   1.209  14.656  1.7918  1.8174  0.7659
11903TIP3    H257201   5.992   1.105  14.736 -1.8369  1.5388 -2.6802
11904TIP3   OH257202   1.509   2.637  13.536  0.1598  0.3888 -0.4530
11904TIP3    H157203   1.414   2.627  13.531  0.3817 -1.7659 -1.4609
11904TIP3    H257204   1.529   2.709  13.476 -0.7374 -0.0349 -1.2804
11905TIP3   OH257205   2.405   3.629   6.318 -0.4172  0.6735 -0.3257
11905TIP3    H157206   2.337   3.616   6.252  0.1858  1.4610 -1.1427
11905TIP3    H257207   2.406   3.548   6.368 -0.4898 -0.2022 -1.6855
11906TIP3   OH257208   5.343   2.264   4.579  0.1023  0.8051  0.4608
11906TIP3    H157209   5.417   2.279   4.521  0.0707  0.4222  0.3199
11906TIP3    H257210   5.299   2.186   4.543 -0.7061  1.3732  0.1972
11907TIP3   OH257211   0.145   2.261   5.340 -0.4165  0.1221  0.4734
11907TIP3    H157212   0.068   2.301   5.381 -0.3903 -0.5933  1.2404
11907TIP3    H257213   0.114   2.175   5.311  0.5696 -0.9628  2.5085
11908TIP3   OH257214   6.523   5.931   1.191 -0.6913 -0.0142  0.3433
11908TIP3    H157215   6.430   5.940   1.169 -0.9655  0.4295  1.6084
11908TIP3    H257216   6.531   5.842   1.226 -0.7865  0.1621  0.8315
11909TIP3   OH257217   0.213   1.316  15.445 -0.1438 -0.5820 -0.3561
11909TIP3    H157218   0.135   1.282  15.489 -0.2319  0.1881  0.0912
11909TIP3    H257219   0.282   1.310  15.510 -0.2331  0.3825 -0.1600
11910TIP3   OH257220   2.605   2.246   3.389  0.3432  0.0132 -0.6086
11910TIP3    H157221   2.587   2.295   3.309  1.0217 -0.9362 -1.3791
11910TIP3    H257222   2.592   2.154   3.364 -0.0556 -0.2607  0.5522
11911TIP3   OH257223   2.599   6.743   0.392  0.0118  0.3543  0.2567
11911TIP3    H157224   2.639   6.830   0.399  1.4242 -0.3177  0.9669
11911TIP3    H257225   2.618   6.715   0.302  2.2125 -0.4022  0.8910
11912TIP3   OH257226   5.153   5.527   0.916  0.1238 -0.3068  0.1795
11912TIP3    H157227   5.159   5.619   0.891 -4.3229  0.7119  1.8154
11912TIP3    H257228   5.196   5.522   1.002 -1.3237  0.8534  1.0248
11913TIP3   OH257229   2.177   4.331   0.061 -0.4539  0.1448  0.2448
11913TIP3    H157230   2.119   4.255   0.063  0.0672 -0.2821 -0.3531
11913TIP3    H257231   2.249   4.304   0.003  0.5969  0.4665  1.3457
11914TIP3   OH257232   3.884   3.359   2.733 -0.2512  0.1794  0.4978
11914TIP3    H157233   3.883   3.430   2.797  0.1279 -1.4823  2.4497
11914TIP3    H257234   3.972   3.363   2.694 -0.6239  1.4527 -0.2601
11915TIP3   OH257235   5.851   1.548  12.369 -0.1633 -0.1260  0.7646
11915TIP3    H157236   5.881   1.462  12.397 -0.6223 -0.9690 -1.1794
11915TIP3    H257237   5.932   1.600  12.363  0.4187 -1.0810 -0.1299
11916TIP3   OH257238   1.226   1.338   2.382 -0.0647 -0.3091  0.1841
11916TIP3    H157239   1.256   1.293   2.303  0.0956 -1.3602  0.8141
11916TIP3    H257240   1.287   1.411   2.393  2.2204 -2.2220  1.2723
11917TIP3   OH257241   6.524   6.354   2.951  0.2496 -0.1763  0.2037
11917TIP3    H157242   6.467   6.281   2.978  0.4572 -0.9963 -1.4454
11917TIP3    H257243   6.609   6.333   2.989  0.2065 -0.5845  0.0815
11918TIP3   OH257244   2.445   3.233   0.974  0.4654 -0.1977 -0.3676
11918TIP3    H157245   2.408   3.145   0.976 -0.8070  0.3247  0.0857
11918TIP3    H257246   2.370   3.291   0.987  0.8550  1.1011 -3.2409
11919TIP3   OH257247   4.497   5.808  15.223 -0.1531 -0.0284  0.4392
11919TIP3    H157248   4.401   5.817  15.221 -0.1373  0.0722  0.0503
11919TIP3    H257249   4.525   5.862  15.296 -0.3378  0.4826  0.1376
11920TIP3   OH257250   5.079   2.895  13.717  0.7666  0.2061 -0.6813
11920TIP3    H157251   5.058   2.961  13.783  1.2225 -1.8463  1.6977
11920TIP3    H257252   5.173   2.904  13.702  0.9203 -0.1505 -0.0006
11921TIP3   OH257253   5.242   5.828  12.923 -0.1512 -0.2469 -0.2231
11921TIP3    H157254   5.278   5.828  13.012  0.8653  0.1612 -0.6147
11921TIP3    H257255   5.202   5.914  12.913  0.2550 -0.0682 -0.3502
11922TIP3   OH257256   0.983   1.794  16.774 -0.9626 -0.1149 -0.1492
11922TIP3    H157257   1.062   1.751  16.808 -0.1577  2.4851  1.6294
11922TIP3    H257258   0.970   1.756  16.687  2.3484 -0.5913 -0.5639
11923TIP3   OH257259   2.348   3.239  15.411  0.4586  1.0655  0.1989
11923TIP3    H157260   2.289   3.174  15.372 -1.0704  2.5272 -0.0492
11923TIP3    H257261   2.375   3.200  15.495  1.2819 -0.7569 -0.8521
11924TIP3   OH257262   2.689   5.230   1.111 -0.0219 -0.5737 -0.0461
11924TIP3    H157263   2.707   5.203   1.021 -0.8687 -1.2262 -0.0255
11924TIP3    H257264   2.751   5.178   1.163 -0.9243 -1.7304 -0.0948
11925TIP3   OH257265   3.584   5.640  13.135 -0.3030 -0.5266  0.1086
11925TIP3    H157266   3.676   5.635  13.113 -0.4204 -1.1397 -0.2479
11925TIP3    H257267   3.578   5.603  13.223  0.1154  1.6201  1.1114
11926TIP3   OH257268   3.018   6.406  14.835 -0.4876  0.4025  0.0029
11926TIP3    H157269   2.959   6.338  14.867 -1.0682  1.1113  0.4647
11926TIP3    H257270   3.094   6.402  14.893 -0.9550  0.8005  0.6497
11927TIP3   OH257271   3.685   4.947  12.219 -0.5270  0.5320  0.0701
11927TIP3    H157272   3.622   4.905  12.278 -0.6471  0.2491 -0.2599
11927TIP3    H257273   3.631   4.989  12.152 -0.3391 -0.4609 -0.7156
11928TIP3   OH257274   6.017   1.090  11.927 -0.5192 -0.3631 -0.1948
11928TIP3    H157275   6.064   1.008  11.910 -0.3901 -0.6984  1.6227
11928TIP3    H257276   5.965   1.073  12.005  0.0570  1.4703  0.6626
11929TIP3   OH257277   2.591   2.073  16.308  0.0890  0.9168  0.3236
11929TIP3    H157278   2.521   2.071  16.243  1.2553 -1.3416 -1.0217
11929TIP3    H257279   2.661   2.124  16.266  0.6180 -0.0363  0.0090
11930TIP3   OH257280   6.120   4.682  10.294 -0.1363  0.5444  0.3392
11930TIP3    H157281   6.057   4.613  10.309  0.5542 -0.4392 -1.0449
11930TIP3    H257282   6.204   4.637  10.287  0.1989  1.3598 -1.5969
11931TIP3   OH257283   6.031   1.572  14.991 -0.7887 -0.9483  0.6700
11931TIP3    H157284   5.990   1.606  14.911  0.7692 -1.8827 -0.5981
11931TIP3    H257285   5.989   1.621  15.062  0.6020  3.0064 -0.9106
11932TIP3   OH257286   3.832   4.553   3.170  0.6892 -0.5130  0.2738
11932TIP3    H157287   3.808   4.594   3.087  0.9853  1.2470  0.9983
11932TIP3    H257288   3.927   4.540   3.163  0.6487 -0.7590  0.1778
11933TIP3   OH257289   6.009   5.724  10.384 -0.1014 -0.2675  0.1472
11933TIP3    H157290   6.073   5.791  10.407 -0.8682  1.5111 -2.3906
11933TIP3    H257291   6.049   5.676  10.311 -1.7703  1.3473 -1.9804
11934TIP3   OH257292   0.992   4.668  14.485 -0.0748 -0.0420 -0.1307
11934TIP3    H157293   1.025   4.588  14.444 -1.2477 -0.7696  0.3073
11934TIP3    H257294   0.943   4.713  14.416  1.3551  0.7979 -0.6448
11935TIP3   OH257295   0.829   3.319   1.216 -0.1571  0.1603  0.0747
11935TIP3    H157296   0.855   3.327   1.124  0.6750  0.1343  0.2967
11935TIP3    H257297   0.777   3.239   1.220  0.8216 -0.5053 -0.1646
11936TIP3   OH257298   2.190   1.674  11.059 -0.3830  0.5724 -0.1714
11936TIP3    H157299   2.255   1.643  11.122 -0.1943  2.2331  0.4949
11936TIP3    H257300   2.232   1.662  10.974  0.0305 -0.1280  0.1194
11937TIP3   OH257301   2.965   1.743  11.412  0.3557  0.4364 -0.0054
11937TIP3    H157302   2.909   1.744  11.335 -0.2459 -0.3486  0.4050
11937TIP3    H257303   2.985   1.835  11.429 -0.0557  0.6555 -0.6962
11938TIP3   OH257304   3.654   4.369   2.466 -0.1402  0.4540  0.3631
11938TIP3    H157305   3.738   4.388   2.508 -0.5999 -0.1841  1.6179
11938TIP3    H257306   3.588   4.396   2.530 -0.8755 -0.2075 -0.0946
11939TIP3   OH257307   6.171   6.390  11.274  0.9890 -0.0120  0.1300
11939TIP3    H157308   6.218   6.307  11.283 -0.8019 -1.1666 -0.6091
11939TIP3    H257309   6.239   6.454  11.254  2.4119 -1.2938  0.6837
11940TIP3   OH257310   5.091   4.695  13.250 -0.1357  0.3580 -0.2330
11940TIP3    H157311   5.135   4.762  13.197  1.1204 -0.2047  0.0527
11940TIP3    H257312   5.030   4.744  13.305  0.9569  1.3116  0.1583
11941TIP3   OH257313   3.726   1.640  15.679 -0.3189  0.4133  0.0885
11941TIP3    H157314   3.702   1.548  15.685  0.0402  0.2939 -0.2159
11941TIP3    H257315   3.759   1.650  15.590 -0.7899  0.9450 -0.0275
11942TIP3   OH257316   2.456   0.094   0.579  1.1468  0.3477  0.4463
11942TIP3    H157317   2.510   0.085   0.500  0.6203  0.6328  0.0524
11942TIP3    H257318   2.432   0.005   0.602 -2.2334  0.3693 -2.1859
11943TIP3   OH257319   3.805   1.384  13.744  0.2550 -0.2148  0.5156
11943TIP3    H157320   3.759   1.431  13.675  0.0325 -1.5820 -0.3241
11943TIP3    H257321   3.815   1.447  13.815  0.8264  1.3507 -0.9087
11944TIP3   OH257322   3.065   2.880  13.676  0.1503 -0.2438  0.2341
11944TIP3    H157323   3.077   2.866  13.582 -2.0099  0.4014 -0.1888
11944TIP3    H257324   2.992   2.822  13.699  1.9492 -1.9627  2.0163
11945TIP3   OH257325   0.845   0.050   4.378 -0.1450 -0.1350  0.6861
11945TIP3    H157326   0.783  -0.022   4.375  0.3792 -0.6068  1.1365
11945TIP3    H257327   0.815   0.110   4.310  0.5028 -1.6595 -1.0137
11946TIP3   OH257328   6.702   1.573   2.579 -0.5056  0.0061 -0.0747
11946TIP3    H157329   6.656   1.617   2.507  0.7882  0.6613 -0.5235
11946TIP3    H257330   6.670   1.617   2.658 -2.8155 -1.4825 -0.0813
11947TIP3   OH257331   3.829   3.138   2.027  0.2865 -0.3780  0.7360
11947TIP3    H157332   3.779   3.205   2.074  0.7435  1.1469 -0.8490
11947TIP3    H257333   3.919   3.150   2.055  0.4868  0.2180 -0.1161
11948TIP3   OH257334   5.544   6.806  12.426 -0.1557 -0.4335 -0.1839
11948TIP3    H157335   5.449   6.799  12.418 -0.4503  2.4082  0.0075
11948TIP3    H257336   5.559   6.816  12.519  0.1031  1.1694 -0.3725
11949TIP3   OH257337   0.845   6.121   5.266 -0.0522  0.2198  0.2495
11949TIP3    H157338   0.837   6.030   5.238 -0.5374 -0.1976  1.6534
11949TIP3    H257339   0.929   6.125   5.311 -0.5047  0.1816  1.1252
11950TIP3   OH257340   0.738   3.477   5.168 -0.1299  0.0233  0.1966
11950TIP3    H157341   0.737   3.570   5.146  0.9472 -0.2082 -0.9682
11950TIP3    H257342   0.792   3.437   5.100 -0.5768 -1.4619  0.6714
11951TIP3   OH257343   6.350   2.738   0.105  0.0820  0.0266 -0.0980
11951TIP3    H157344   6.263   2.768   0.131 -1.3648 -4.5576  1.3944
11951TIP3    H257345   6.338   2.704   0.016  0.0320 -1.4355  0.4446
11952TIP3   OH257346   1.689   6.311   5.069  0.0434  0.8476  0.2666
11952TIP3    H157347   1.740   6.277   5.143  1.2049  0.9777 -0.4588
11952TIP3    H257348   1.725   6.266   4.993 -3.1203 -1.6644 -0.0112
11953TIP3   OH257349   2.435   5.230   1.582  0.1756 -0.1789 -0.2598
11953TIP3    H157350   2.417   5.315   1.623  0.4040 -0.2472 -0.0109
11953TIP3    H257351   2.351   5.203   1.544 -0.1197 -0.2653  0.4450
11954TIP3   OH257352   6.706   1.254   3.144  0.0507 -0.3599 -0.1251
11954TIP3    H157353   6.734   1.215   3.061 -2.3086 -2.1022 -0.2125
11954TIP3    H257354   6.656   1.332   3.119 -0.8719 -1.0221 -0.4095
11955TIP3   OH257355   3.885   0.404  14.775 -0.6828  0.1135  0.6622
11955TIP3    H157356   3.938   0.398  14.854 -0.8862 -2.2426  0.6966
11955TIP3    H257357   3.946   0.431  14.706  0.6185 -2.2609  0.7549
11956TIP3   OH257358   0.542   1.914   0.892  0.3279 -0.2111  0.2031
11956TIP3    H157359   0.604   1.986   0.907  0.5794  0.0900 -1.9856
11956TIP3    H257360   0.596   1.835   0.892  0.5892 -0.0389 -0.8202
11957TIP3   OH257361   0.085   1.415   6.555  0.5326 -0.6631 -0.3491
11957TIP3    H157362   0.034   1.480   6.603  0.7042  0.1299 -1.1994
11957TIP3    H257363   0.131   1.466   6.488  2.2307 -1.3910  0.2069
11958TIP3   OH257364   5.735   4.854  15.166  0.7469 -0.1710 -0.2696
11958TIP3    H157365   5.657   4.811  15.202 -0.0158 -0.0388 -1.7129
11958TIP3    H257366   5.716   4.947  15.173  1.2020 -0.1122  0.2607
11959TIP3   OH257367   6.348   4.462  11.874 -0.5680  0.0317  0.0979
11959TIP3    H157368   6.413   4.479  11.806  0.2685 -0.8891  0.6300
11959TIP3    H257369   6.336   4.546  11.918 -0.4209  0.4173 -0.5948
11960TIP3   OH257370   4.387   2.372   4.319  0.4375 -0.0341 -0.3983
11960TIP3    H157371   4.466   2.411   4.282  0.7962 -1.8244 -1.6633
11960TIP3    H257372   4.319   2.391   4.255  0.1663  0.2595 -0.0223
11961TIP3   OH257373   1.199   3.918   4.032 -0.2533  0.0084 -0.5755
11961TIP3    H157374   1.261   3.940   4.101 -0.1042 -0.8963 -0.3994
11961TIP3    H257375   1.233   3.962   3.954 -0.9489  1.8206  0.1155
11962TIP3   OH257376   0.821   1.355  12.357  0.2346  0.1730  0.0052
11962TIP3    H157377   0.842   1.323  12.270  1.2674  0.6304  0.0696
11962TIP3    H257378   0.905   1.359  12.402 -0.3990 -1.1565  1.4173
11963TIP3   OH257379   0.572   3.273   2.644  0.2871  0.2801  0.3720
11963TIP3    H157380   0.491   3.290   2.693  1.4618  0.8551  2.2096
11963TIP3    H257381   0.626   3.350   2.661  1.8129 -0.7746  0.4475
11964TIP3   OH257382   2.725   4.257  12.057 -0.3948 -0.5202 -0.5471
11964TIP3    H157383   2.815   4.276  12.081 -0.5750 -0.8297  0.4283
11964TIP3    H257384   2.719   4.162  12.060 -0.2649 -0.6362 -2.5126
11965TIP3   OH257385   1.386   2.603   3.828 -0.0663 -0.0848  0.9182
11965TIP3    H157386   1.291   2.610   3.823  0.0230  1.3403  0.9920
11965TIP3    H257387   1.408   2.639   3.914  0.4945 -0.9973  1.1704
11966TIP3   OH257388   1.433   2.781  12.606  0.0676  0.1788  0.2132
11966TIP3    H157389   1.483   2.796  12.686 -0.3085 -0.1556  0.5145
11966TIP3    H257390   1.350   2.745  12.637 -0.1183  0.1489 -0.3230
11967TIP3   OH257391   2.679   4.093  12.878  0.0511  0.1997  0.4247
11967TIP3    H157392   2.748   4.057  12.822 -0.2354  0.1838  0.0717
11967TIP3    H257393   2.612   4.123  12.816  1.0370  2.9959  0.5743
11968TIP3   OH257394   0.270   6.697   3.279 -0.0047  0.8329  0.7779
11968TIP3    H157395   0.329   6.749   3.335  0.9198  3.5785 -2.4306
11968TIP3    H257396   0.198   6.757   3.260 -1.1025 -0.6145  0.3155
11969TIP3   OH257397   0.966   3.571  13.943  0.3631  0.4666 -0.0820
11969TIP3    H157398   0.967   3.491  13.891 -1.3317  1.1781 -1.3082
11969TIP3    H257399   0.887   3.617  13.915  0.6444  2.0122  1.4607
11970TIP3   OH257400   2.981   4.258  12.141  0.6954 -0.2200 -0.1567
11970TIP3    H157401   3.000   4.301  12.224  0.3409  0.3532 -0.3727
11970TIP3    H257402   3.056   4.281  12.085 -0.1416  1.2811 -0.7143
11971TIP3   OH257403   4.163   4.809  16.179  0.4473 -0.2150 -0.3699
11971TIP3    H157404   4.099   4.850  16.237  0.2528  0.3115 -0.9455
11971TIP3    H257405   4.167   4.867  16.103  1.1599 -0.5663 -0.6063
11972TIP3   OH257406   0.512   1.529   5.079 -0.0194 -0.5387 -0.5385
11972TIP3    H157407   0.418   1.525   5.063  0.0852  0.8256 -1.6489
11972TIP3    H257408   0.543   1.441   5.059 -1.1173 -1.1636  0.3761
11973TIP3   OH257409   0.808   5.112   2.009  0.1700  0.2681 -0.7883
11973TIP3    H157410   0.886   5.099   2.062  1.0290  1.0544 -1.8210
11973TIP3    H257411   0.820   5.055   1.933 -1.9311 -2.3315  0.6724
11974TIP3   OH257412   0.868   0.357   0.986 -0.0391 -1.1430 -0.2668
11974TIP3    H157413   0.793   0.348   1.045 -0.1720 -0.0383 -0.2368
11974TIP3    H257414   0.916   0.432   1.021 -1.0506  0.6883 -2.5351
11975TIP3   OH257415   1.497   0.773  13.783 -0.4042  0.1009  0.1517
11975TIP3    H157416   1.411   0.735  13.764 -0.9116  1.0516  0.4766
11975TIP3    H257417   1.480   0.866  13.793  0.7976  0.4134 -0.5316
11976TIP3   OH257418   5.896   2.015  16.350  0.2326  0.5912 -1.0228
11976TIP3    H157419   5.885   1.922  16.329  1.5626  0.4533 -1.1683
11976TIP3    H257420   5.825   2.058  16.302 -0.1904 -0.3096 -1.2388
11977TIP3   OH257421   5.728   4.030   3.795  0.7360 -0.5922  0.5576
11977TIP3    H157422   5.739   4.078   3.877 -0.7760  1.8116 -0.5387
11977TIP3    H257423   5.789   3.957   3.802  1.4561  0.1486  3.3323
11978TIP3   OH257424   3.952   5.942   1.842 -0.0162 -0.4642 -0.2782
11978TIP3    H157425   3.879   5.982   1.794  0.6131 -0.3343 -1.1626
11978TIP3    H257426   3.911   5.903   1.920 -1.0421 -0.4650 -0.7913
11979TIP3   OH257427   1.751   3.162   3.291  0.2443  0.0478  0.2696
11979TIP3    H157428   1.760   3.192   3.201 -2.2880 -0.1663 -0.1180
11979TIP3    H257429   1.782   3.071   3.290 -1.2181 -0.4682 -0.7704
11980TIP3   OH257430   2.838   3.236  11.927  0.1949  0.3096 -0.2439
11980TIP3    H157431   2.934   3.236  11.931  0.1863 -0.1104  0.0878
11980TIP3    H257432   2.818   3.203  11.839  0.3573  0.9954 -0.5407
11981TIP3   OH257433   6.696   6.773   0.342 -0.1770  0.3065  0.1340
11981TIP3    H157434   6.635   6.773   0.268 -0.4800  2.4459  0.3264
11981TIP3    H257435   6.775   6.816   0.307 -0.4544  1.6616  1.1378
11982TIP3   OH257436   1.687   2.426  13.523  0.2906  0.0053  0.0308
11982TIP3    H157437   1.693   2.385  13.609 -1.3863  1.0199  0.6672
11982TIP3    H257438   1.634   2.504  13.537  2.1279  1.6238 -1.4368
11983TIP3   OH257439   1.203   3.906   0.195  0.5893 -0.5318 -0.6788
11983TIP3    H157440   1.284   3.890   0.243 -0.0334 -0.6547  0.3741
11983TIP3    H257441   1.230   3.948   0.113  1.6312  0.3280  0.0852
11984TIP3   OH257442   6.625   6.534  16.947  0.2070  0.3631  0.0455
11984TIP3    H157443   6.610   6.462  16.885 -0.5900  1.7922 -1.5178
11984TIP3    H257444   6.550   6.592  16.934  0.9917  1.6431  1.0049
11985TIP3   OH257445   1.559   0.625  14.223 -0.2906 -0.4719 -0.6648
11985TIP3    H157446   1.531   0.602  14.312  1.3898 -1.7421 -0.4158
11985TIP3    H257447   1.615   0.702  14.235  2.1281 -2.1943 -0.2053
11986TIP3   OH257448   4.532   6.787  13.332 -0.0225  0.3060 -0.0380
11986TIP3    H157449   4.570   6.764  13.247  0.7811  0.4365  0.2748
11986TIP3    H257450   4.440   6.804  13.313  0.2807  1.0008 -1.0199
11987TIP3   OH257451   3.665   6.645   1.083  0.1303  0.5843  0.2900
11987TIP3    H157452   3.686   6.693   1.163  0.9485  0.5396  0.1125
11987TIP3    H257453   3.724   6.569   1.084 -1.4614 -0.7024  0.7960
11988TIP3   OH257454   0.353   3.523   5.199  0.0770  0.2400 -0.7574
11988TIP3    H157455   0.274   3.567   5.169 -0.9659 -0.7930  0.3407
11988TIP3    H257456   0.372   3.459   5.131 -0.9146 -0.5050 -0.3634
11989TIP3   OH257457   0.699   2.539  13.114 -0.2104  0.4689 -0.2658
11989TIP3    H157458   0.794   2.534  13.106 -0.1335 -0.4115  1.0053
11989TIP3    H257459   0.673   2.455  13.152 -1.8282 -0.5001 -3.1386
11990TIP3   OH257460   1.478   1.246   4.482 -0.2503 -0.3921 -0.0969
11990TIP3    H157461   1.523   1.191   4.418  0.2272 -0.5681  0.3839
11990TIP3    H257462   1.422   1.303   4.429  1.0346  0.2965 -0.7667
11991TIP3   OH257463   6.515   0.778   1.274  0.2457  0.1895 -0.3209
11991TIP3    H157464   6.504   0.691   1.311  2.4300  0.3967  1.0169
11991TIP3    H257465   6.496   0.768   1.181  0.1623 -1.6264 -0.1393
11992TIP3   OH257466   2.714   4.014  14.373  0.0612  0.0679 -0.3329
11992TIP3    H157467   2.709   3.951  14.445 -2.0406  0.7663  0.1846
11992TIP3    H257468   2.669   3.971  14.300 -2.1665  1.2315  0.2811
11993TIP3   OH257469   0.984   1.828  16.083  0.0754  0.2335  0.3201
11993TIP3    H157470   0.950   1.775  16.010  0.9918 -0.6493  0.5306
11993TIP3    H257471   0.964   1.918  16.056 -0.5011 -0.1315 -0.5572
11994TIP3   OH257472   3.592   4.708   3.703  0.4979  0.1586  0.3427
11994TIP3    H157473   3.564   4.750   3.785 -0.0020 -1.9981  1.3686
11994TIP3    H257474   3.668   4.759   3.675 -0.0439  1.6946  1.4915
11995TIP3   OH257475   5.458   2.518   4.659  0.0913  0.3604 -0.1548
11995TIP3    H157476   5.381   2.567   4.632 -0.7066 -0.8700 -0.1847
11995TIP3    H257477   5.426   2.429   4.673  0.9080  0.4250  2.6523
11996TIP3   OH257478   0.356   2.512   2.638 -0.6216  0.0536 -0.1013
11996TIP3    H157479   0.289   2.448   2.612 -2.0173  1.3717  0.0666
11996TIP3    H257480   0.397   2.538   2.555 -0.5400 -0.5187 -0.2460
11997TIP3   OH257481   1.781   5.425  12.630  0.5068 -0.0118  0.4123
11997TIP3    H157482   1.836   5.503  12.620  0.7454 -0.2019  0.2322
11997TIP3    H257483   1.813   5.365  12.562 -2.3525  1.2609 -2.2992
11998TIP3   OH257484   2.081   0.690  13.373 -0.0254 -0.0937  0.2586
11998TIP3    H157485   2.020   0.629  13.416  1.2795 -1.0187  0.8631
11998TIP3    H257486   2.110   0.643  13.294  1.9324 -0.8446  1.3593
11999TIP3   OH257487   2.908   1.807   1.756  0.2142  0.0452 -0.2026
11999TIP3    H157488   2.830   1.781   1.707 -0.4547  2.2865 -0.4460
11999TIP3    H257489   2.941   1.884   1.710  2.7561 -0.9684 -0.2286
12000TIP3   OH257490   0.353   0.180  14.596  0.1148  0.1972 -0.1674
12000TIP3    H157491   0.341   0.258  14.541 -2.4599  0.7734  1.0516
12000TIP3    H257492   0.266   0.141  14.601  0.6438 -0.8484  1.9911
12001TIP3   OH257493   2.135   6.420   3.949  0.1733 -0.1315  0.1055
12001TIP3    H157494   2.132   6.492   3.886  0.4087  0.9394  1.2884
12001TIP3    H257495   2.043   6.398   3.965  0.1009 -1.7001 -1.9761
12002TIP3   OH257496   6.637   6.620   4.650  0.2451 -0.5250 -0.2756
12002TIP3    H157497   6.651   6.696   4.593  1.3473  1.1732  2.0947
12002TIP3    H257498   6.725   6.590   4.671  0.0529  0.6623  2.6561
12003TIP3   OH257499   5.015   0.756  10.628  0.0324  0.1224 -0.1381
12003TIP3    H157500   5.076   0.799  10.568 -0.6718  0.4125 -0.6560
12003TIP3    H257501   4.928   0.779  10.595 -0.3723 -1.9437 -0.6135
12004TIP3   OH257502   5.995   4.498  11.209 -0.4216  0.4746 -0.2725
12004TIP3    H157503   6.083   4.534  11.218 -1.0317  1.9808  0.0896
12004TIP3    H257504   6.001   4.436  11.136  0.7039  1.3299 -0.9334
12005TIP3   OH257505   2.523   4.266   4.670 -0.3459 -0.2116  1.0756
12005TIP3    H157506   2.440   4.288   4.628  1.7274 -0.2172 -3.5067
12005TIP3    H257507   2.537   4.337   4.733 -2.4204  1.4310 -0.1696
12006TIP3   OH257508   0.008   5.893  11.277 -0.4999  0.3521 -0.1420
12006TIP3    H157509   0.084   5.906  11.334  0.4643  0.6457 -1.4548
12006TIP3    H257510  -0.067   5.919  11.331  0.2160 -0.6911  1.4561
12007TIP3   OH257511   1.526   0.986  16.354  0.0067  0.4972 -0.1030
12007TIP3    H157512   1.585   0.912  16.368 -0.0839  0.2928 -0.7786
12007TIP3    H257513   1.506   0.984  16.261  0.1189  1.4650 -0.1585
12008TIP3   OH257514   1.299   4.190   0.076 -0.4034 -0.4951 -0.1324
12008TIP3    H157515   1.389   4.168   0.101 -0.1170 -1.6579 -1.9637
12008TIP3    H257516   1.293   4.164  -0.016 -2.0225  1.4559 -0.6413
12009TIP3   OH257517   2.808   3.941   3.379 -0.0404  0.0975 -0.1052
12009TIP3    H157518   2.820   3.915   3.470  1.0293  0.1104 -0.2323
12009TIP3    H257519   2.896   3.949   3.344 -0.2692  2.9504 -0.3400
12010TIP3   OH257520   0.083   6.262  13.659  0.1910 -0.9412 -0.5601
12010TIP3    H157521   0.160   6.210  13.678  0.0974 -0.8651  0.0679
12010TIP3    H257522   0.116   6.338  13.610  0.5215 -0.8801 -0.2445
12011TIP3   OH257523   5.353   5.697  14.786  0.2515 -0.2300  0.0068
12011TIP3    H157524   5.374   5.787  14.760  0.7000 -0.0594  0.9448
12011TIP3    H257525   5.409   5.679  14.861 -1.1425 -0.6624  0.9811
12012TIP3   OH257526   4.903   2.519  15.333  0.2756 -0.2321 -0.3144
12012TIP3    H157527   4.992   2.551  15.348  0.3447 -0.2366 -0.7193
12012TIP3    H257528   4.884   2.542  15.242  0.5284 -1.7713 -0.7919
12013TIP3   OH257529   0.818   2.014  13.547  0.1921 -0.7014  0.1458
12013TIP3    H157530   0.755   2.045  13.612  0.2125 -0.9294  0.2763
12013TIP3    H257531   0.902   2.051  13.575  0.6751 -2.8089  1.6960
12014TIP3   OH257532   6.639   1.189  16.306 -0.0318  0.4628  0.0045
12014TIP3    H157533   6.583   1.242  16.363 -0.3787 -0.5052  0.5784
12014TIP3    H257534   6.606   1.100  16.315  2.3946 -0.4026  1.4604
12015TIP3   OH257535   2.495   4.520  15.017  0.5291  0.1403 -0.2300
12015TIP3    H157536   2.582   4.544  14.984  1.1929  0.0947  1.4108
12015TIP3    H257537   2.469   4.595  15.071 -0.1829 -0.1097 -0.2249
12016TIP3   OH257538   0.402   3.348  11.676  0.3857 -0.1285 -0.3503
12016TIP3    H157539   0.437   3.269  11.715 -1.0943  0.1476  1.6787
12016TIP3    H257540   0.479   3.403  11.658  1.2166 -0.8610  0.8871
12017TIP3   OH257541   6.137   0.902  14.414  0.2701  0.2807 -0.3695
12017TIP3    H157542   6.167   0.964  14.348  1.5190  1.0140  0.8397
12017TIP3    H257543   6.163   0.816  14.380  0.0407  0.5519 -1.2579
12018TIP3   OH257544   6.206   4.826   4.369  0.2458 -0.0183 -0.1204
12018TIP3    H157545   6.287   4.810   4.322 -0.0493 -1.6577 -0.1132
12018TIP3    H257546   6.168   4.740   4.383  0.0477  0.4153  2.6679
12019TIP3   OH257547   3.218   3.708  12.914 -1.0293 -0.4379 -0.0899
12019TIP3    H157548   3.172   3.791  12.905 -0.1444 -0.0276 -1.1364
12019TIP3    H257549   3.192   3.657  12.838 -3.0032 -1.9097  1.4637
12020TIP3   OH257550   0.365   0.007  16.475 -0.2215 -0.2344  0.0986
12020TIP3    H157551   0.448   0.053  16.461 -0.6199  0.4240 -0.1603
12020TIP3    H257552   0.346   0.020  16.568 -0.3935  0.2311 -0.0005
12021TIP3   OH257553   1.639   3.902   1.510  0.4790 -0.3967  0.6630
12021TIP3    H157554   1.587   3.827   1.481  1.6751 -0.5220 -1.4405
12021TIP3    H257555   1.652   3.954   1.430  0.5565  1.5155  1.8608
12022TIP3   OH257556   1.155   2.321   1.336 -0.2052  0.2782  0.2163
12022TIP3    H157557   1.225   2.377   1.301  0.9799 -1.0406  0.3776
12022TIP3    H257558   1.188   2.290   1.420 -0.8089 -0.6728  0.1236
12023TIP3   OH257559   3.315   0.549  14.794 -0.4431 -0.0047 -0.3113
12023TIP3    H157560   3.283   0.537  14.884  1.4254 -0.3090  0.3774
12023TIP3    H257561   3.292   0.639  14.772 -0.0655  0.3988  0.8670
12024TIP3   OH257562   3.622   1.888   4.668 -0.1233  0.4431 -0.0383
12024TIP3    H157563   3.574   1.858   4.590  1.0363  0.8020 -0.9238
12024TIP3    H257564   3.635   1.809   4.720 -1.2364  0.2594 -0.0183
12025TIP3   OH257565   4.451   3.406  16.442 -0.3495  0.0626 -0.0855
12025TIP3    H157566   4.386   3.474  16.463 -1.9139 -1.1647 -0.7562
12025TIP3    H257567   4.401   3.324  16.442  1.1604 -0.9021 -0.8785
12026TIP3   OH257568   4.643   3.435  15.502  0.3178  0.0012  0.1646
12026TIP3    H157569   4.601   3.428  15.588 -0.0886 -0.5577 -0.0690
12026TIP3    H257570   4.572   3.463  15.444  0.3989 -0.4139 -0.1338
12027TIP3   OH257571   3.912   5.200  13.795  0.0650 -0.3114  0.2459
12027TIP3    H157572   3.822   5.183  13.825  0.3283 -0.7796  0.7820
12027TIP3    H257573   3.967   5.178  13.870  0.6570 -0.3341 -0.1892
12028TIP3   OH257574   5.111   5.247   2.562  0.7596 -0.6578 -0.2793
12028TIP3    H157575   5.086   5.246   2.654  2.4288  0.6157  0.2608
12028TIP3    H257576   5.201   5.281   2.562  0.3287  0.7546 -2.4648
12029TIP3   OH257577   1.432   3.100   4.842 -0.7504 -0.2296  0.0081
12029TIP3    H157578   1.358   3.090   4.901 -1.1727 -0.6096 -0.5672
12029TIP3    H257579   1.404   3.057   4.761 -1.0268  2.1196 -1.2014
12030TIP3   OH257580   4.854   3.663   2.013  0.0693 -0.8303 -0.0016
12030TIP3    H157581   4.782   3.724   1.996  1.6975  0.7616 -1.6011
12030TIP3    H257582   4.848   3.599   1.943 -0.3837 -1.3026  0.4624
12031TIP3   OH257583   4.227   1.457  14.748  0.0378 -0.2244  0.3502
12031TIP3    H157584   4.224   1.437  14.841 -0.8123  1.2856  0.6816
12031TIP3    H257585   4.172   1.535  14.738 -0.5950 -0.8430 -1.5420
12032TIP3   OH257586   0.411   6.658  12.788 -0.5661  0.4604  0.6615
12032TIP3    H157587   0.395   6.718  12.860 -1.0395  0.6470  0.4062
12032TIP3    H257588   0.460   6.709  12.724 -2.1600  1.0196 -0.1640
12033TIP3   OH257589   4.391   4.225  16.156  0.4590 -0.2104 -0.4359
12033TIP3    H157590   4.390   4.136  16.191 -0.1347  0.0616  0.2901
12033TIP3    H257591   4.466   4.267  16.197  1.4105 -0.6904 -1.6449
12034TIP3   OH257592   4.588   0.463   6.036  0.1554  0.3342 -0.2143
12034TIP3    H157593   4.649   0.389   6.036 -0.0903  0.1080  0.7466
12034TIP3    H257594   4.644   0.540   6.043  0.3882  0.2043 -0.6226
12035TIP3   OH257595   4.542   6.418  13.348  0.3444  0.1698  0.0815
12035TIP3    H157596   4.472   6.363  13.311  2.4456 -1.5519 -1.5655
12035TIP3    H257597   4.498   6.468  13.417 -2.1310 -2.1714  0.3911
12036TIP3   OH257598   3.702   3.063  11.573  0.5635 -0.2201  0.3338
12036TIP3    H157599   3.709   3.079  11.478 -1.4906 -1.1775 -0.0363
12036TIP3    H257600   3.782   3.101  11.609  1.2446  0.4939 -1.7404
12037TIP3   OH257601   5.384   0.347   0.684  0.1073  0.7227 -0.3363
12037TIP3    H157602   5.306   0.300   0.654  0.2713 -0.8805  1.5406
12037TIP3    H257603   5.351   0.410   0.748  0.4446 -1.8026  2.5566
12038TIP3   OH257604   1.736   2.809   4.699  0.3098 -0.2128 -0.2849
12038TIP3    H157605   1.688   2.830   4.779 -0.7762 -0.8063 -0.7602
12038TIP3    H257606   1.687   2.738   4.658  2.5720 -2.1030  0.0668
12039TIP3   OH257607   0.660   5.217   5.251  0.8705 -0.7407 -0.1148
12039TIP3    H157608   0.716   5.289   5.220  0.2863 -1.2763 -2.7053
12039TIP3    H257609   0.713   5.139   5.238  0.3556 -1.0424 -0.4290
12040TIP3   OH257610   5.307   6.290   3.654 -0.4041  0.3755  0.3369
12040TIP3    H157611   5.352   6.373   3.644  0.0460  0.2867  1.5529
12040TIP3    H257612   5.333   6.239   3.577  0.4455  0.8361  0.3156
12041TIP3   OH257613   0.527   3.420  11.968 -0.3343  0.8627 -0.7663
12041TIP3    H157614   0.442   3.461  11.984 -0.3406  0.8313 -0.7232
12041TIP3    H257615   0.580   3.490  11.929 -0.0002  1.2307  0.3148
12042TIP3   OH257616   3.372   2.960  10.490  0.7294  0.0074 -0.1670
12042TIP3    H157617   3.433   3.028  10.518  0.9473 -0.6521  1.0347
12042TIP3    H257618   3.405   2.932  10.404  1.3877  0.5277 -0.0868
12043TIP3   OH257619   6.668   3.757   4.308 -0.1791 -0.2662 -0.3363
12043TIP3    H157620   6.632   3.686   4.256  0.9091 -1.0549 -0.0541
12043TIP3    H257621   6.592   3.800   4.347 -0.8293 -1.8726  0.2555
12044TIP3   OH257622   4.331   1.870  17.076  0.2072 -0.3571 -0.0246
12044TIP3    H157623   4.396   1.901  17.139 -0.2102  0.6390 -0.0750
12044TIP3    H257624   4.246   1.888  17.117 -0.1018  1.0676 -1.1816
12045TIP3   OH257625   5.971   3.728  12.932 -0.0267 -0.4094  0.0815
12045TIP3    H157626   6.019   3.785  12.991 -0.2358 -1.0674  0.9060
12045TIP3    H257627   5.923   3.787  12.874  0.0581  0.2391  0.6709
12046TIP3   OH257628   3.574   6.522  11.767  0.4245  0.3591  0.0188
12046TIP3    H157629   3.479   6.519  11.775  0.4451 -2.1229  0.1671
12046TIP3    H257630   3.591   6.581  11.694 -1.1385  1.6275  0.6170
12047TIP3   OH257631   6.799   5.148   2.483 -0.0290 -0.9323 -0.3616
12047TIP3    H157632   6.886   5.132   2.520 -0.0575 -0.0639  0.1033
12047TIP3    H257633   6.815   5.197   2.403 -0.1075 -0.2203  0.0473
12048TIP3   OH257634   3.823   5.991  16.136 -0.2505  0.4410  0.3034
12048TIP3    H157635   3.750   5.978  16.196 -0.0306  0.0899  0.4967
12048TIP3    H257636   3.901   5.970  16.187  0.0573  1.5238  0.3243
12049TIP3   OH257637   2.691   3.439  14.530 -0.3433  0.0094  0.2919
12049TIP3    H157638   2.613   3.493  14.547 -0.4529  0.3023 -1.0201
12049TIP3    H257639   2.668   3.388  14.452 -0.2450 -1.9841  1.5072
12050TIP3   OH257640   0.168   2.351  15.077 -0.6744 -0.3884  0.6715
12050TIP3    H157641   0.151   2.288  15.148 -1.4023 -1.2066 -0.2155
12050TIP3    H257642   0.260   2.337  15.055 -1.1379 -2.0280 -0.3423
12051TIP3   OH257643   5.085   5.388   0.332  0.0628 -0.6000  0.4115
12051TIP3    H157644   4.990   5.393   0.337  0.0355 -0.9723  0.2902
12051TIP3    H257645   5.104   5.372   0.240  0.1542 -2.1190  0.6626
12052TIP3   OH257646   0.387   1.154   2.304 -0.6575 -0.1341 -0.0328
12052TIP3    H157647   0.321   1.222   2.293 -1.2700 -0.7605 -0.3028
12052TIP3    H257648   0.392   1.139   2.398  0.4843  1.2389  0.1624
12053TIP3   OH257649   6.698   6.493   1.233 -0.1101 -0.2365 -0.2732
12053TIP3    H157650   6.652   6.432   1.291  0.3222 -0.8984 -0.6078
12053TIP3    H257651   6.751   6.436   1.176  3.1606  0.4917  1.7632
12054TIP3   OH257652   4.275   1.204  15.684  0.1290  0.0768 -0.3965
12054TIP3    H157653   4.357   1.194  15.731  1.1039 -0.3249 -2.1041
12054TIP3    H257654   4.210   1.161  15.740  1.0583  0.3922  0.9670
12055TIP3   OH257655   3.573   4.728  15.681  0.3239 -0.0599 -0.3871
12055TIP3    H157656   3.669   4.729  15.686  0.3024  1.6985  0.7060
12055TIP3    H257657   3.548   4.647  15.726  1.2981 -1.6296 -2.4901
12056TIP3   OH257658   1.354   1.852   3.131 -0.3403  0.6707  0.2368
12056TIP3    H157659   1.272   1.808   3.107 -0.3255  0.0869  1.2090
12056TIP3    H257660   1.383   1.808   3.211  2.3203 -0.9231 -1.4685
12057TIP3   OH257661   2.783   5.202   2.570 -0.4127 -0.4723 -0.2927
12057TIP3    H157662   2.779   5.291   2.534 -0.9548 -0.6418 -0.6605
12057TIP3    H257663   2.822   5.213   2.656  0.0098  0.0608 -0.5447
12058TIP3   OH257664   1.747   4.143   4.348  0.4510 -0.2862  0.0125
12058TIP3    H157665   1.763   4.222   4.399 -0.0423 -0.7513  0.9170
12058TIP3    H257666   1.833   4.104   4.336  0.4889 -0.6345  1.2849
12059TIP3   OH257667   1.443   3.062  15.977 -0.4652 -0.1965  0.2927
12059TIP3    H157668   1.352   3.086  15.996 -0.0754  1.5986  0.0858
12059TIP3    H257669   1.492   3.092  16.054  0.0501 -0.3784  0.0421
12060TIP3   OH257670   5.811   1.612   5.997 -0.2049  0.5240 -0.1644
12060TIP3    H157671   5.806   1.708   6.006 -0.0463  0.7467 -2.0497
12060TIP3    H257672   5.791   1.579   6.084  0.1196  2.2885  0.6260
12061TIP3   OH257673   1.880   4.961  13.658 -0.0112 -0.3475  0.2784
12061TIP3    H157674   1.793   4.995  13.677 -0.5233 -1.7354  0.5553
12061TIP3    H257675   1.866   4.868  13.639  1.1691 -0.2093 -1.5684
12062TIP3   OH257676   0.281   0.697   6.182  0.0262 -0.4292 -0.2738
12062TIP3    H157677   0.365   0.681   6.226 -0.2421 -3.3497 -0.6289
12062TIP3    H257678   0.224   0.627   6.212 -1.9351  0.7390 -1.0497
12063TIP3   OH257679   5.849   2.534  11.386  0.6592 -0.1711  0.3397
12063TIP3    H157680   5.906   2.533  11.309  0.5584 -1.0523  0.2689
12063TIP3    H257681   5.908   2.557  11.458  1.1254 -1.0994  0.2677
12064TIP3   OH257682   2.615   2.418   4.581  0.1112 -0.0373 -0.2499
12064TIP3    H157683   2.604   2.472   4.660  0.4526 -0.5926  0.1847
12064TIP3    H257684   2.579   2.333   4.606  0.0411 -0.1572 -0.7654
12065TIP3   OH257685   1.665   4.863   2.911  0.3876 -0.3554 -0.5860
12065TIP3    H157686   1.680   4.790   2.971 -0.5047 -0.2294 -0.1970
12065TIP3    H257687   1.730   4.851   2.842  0.2946 -1.4886 -0.4930
12066TIP3   OH257688   0.427   2.251  12.363 -0.2846  0.7363  1.1503
12066TIP3    H157689   0.487   2.265  12.290 -0.7463 -1.5338  0.2478
12066TIP3    H257690   0.340   2.271  12.326 -0.3084  2.1996  1.9134
12067TIP3   OH257691   5.975   6.723   5.114  0.7503 -0.6372 -0.1480
12067TIP3    H157692   6.020   6.683   5.188  1.4132  0.6528  0.1578
12067TIP3    H257693   5.906   6.660   5.092 -1.1547  0.0568  3.1927
12068TIP3   OH257694   1.675   2.129   3.403  0.1532  0.3537 -0.2877
12068TIP3    H157695   1.722   2.075   3.466  0.2773  1.5159  0.6595
12068TIP3    H257696   1.589   2.144   3.444  0.1044  0.8221 -0.5594
12069TIP3   OH257697   4.012   2.032  15.892  0.0005  0.3035 -0.2795
12069TIP3    H157698   4.035   1.943  15.917  1.2902  0.7415  0.1443
12069TIP3    H257699   3.938   2.021  15.832 -0.8325 -0.9608  0.9214
12070TIP3   OH257700   1.305   6.073   3.626 -0.1625  0.3721  0.6466
12070TIP3    H157701   1.349   6.077   3.541 -1.1173 -1.8480 -0.0185
12070TIP3    H257702   1.257   5.990   3.625 -2.5187  1.5956  2.2436
12071TIP3   OH257703   1.827   0.408   6.127  0.3927 -0.3235 -0.5023
12071TIP3    H157704   1.741   0.366   6.140  1.2752 -2.4984 -1.2319
12071TIP3    H257705   1.815   0.497   6.161 -2.6109 -0.0092 -2.0019
12072TIP3   OH257706   1.346   6.132   1.077 -0.2987  0.0139  0.2988
12072TIP3    H157707   1.418   6.116   1.015  0.5060  0.3210  1.1324
12072TIP3    H257708   1.363   6.219   1.112 -1.4869  0.3854 -0.0087
12073TIP3   OH257709   4.873   5.795  14.866  0.5938  0.1119 -1.0969
12073TIP3    H157710   4.951   5.817  14.916 -0.5399  0.0185  0.8092
12073TIP3    H257711   4.851   5.706  14.892 -0.4172  0.3028 -1.2361
12074TIP3   OH257712   1.720   5.756   6.286  0.3836  0.6832  0.4706
12074TIP3    H157713   1.665   5.794   6.355  1.3516 -0.3914  1.8819
12074TIP3    H257714   1.809   5.763   6.320  0.7804 -0.9368 -0.1420
12075TIP3   OH257715   3.587   2.773   1.924  0.4242  0.3620  0.0257
12075TIP3    H157716   3.493   2.751   1.926 -0.2224  2.3730 -2.3767
12075TIP3    H257717   3.595   2.849   1.981  0.4031  0.7450 -0.4786
12076TIP3   OH257718   3.186   4.243  15.846  0.5713  0.0981 -0.0394
12076TIP3    H157719   3.102   4.198  15.840 -0.0531  0.8979  1.9328
12076TIP3    H257720   3.252   4.174  15.832 -0.3828 -0.9198  0.3957
12077TIP3   OH257721   4.162   3.360   2.983 -0.5770 -0.2148 -0.5816
12077TIP3    H157722   4.133   3.426   2.920  1.0996 -0.2452 -1.4344
12077TIP3    H257723   4.257   3.353   2.969 -0.0570  0.0709  2.2260
12078TIP3   OH257724   3.626   4.990  15.428  0.1329  0.3910  0.4419
12078TIP3    H157725   3.665   4.944  15.353  0.7336  0.5750  0.6298
12078TIP3    H257726   3.628   5.082  15.402  2.3488  0.7237  1.5009
12079TIP3   OH257727   6.059   2.546  16.318  0.4785 -0.2197  0.4873
12079TIP3    H157728   6.119   2.581  16.384  2.1903 -1.5274 -0.2933
12079TIP3    H257729   6.114   2.491  16.262 -1.3000 -0.7641 -0.8269
12080TIP3   OH257730   3.982   2.508   1.678 -0.2759  0.4999  0.3818
12080TIP3    H157731   3.977   2.468   1.765 -0.8591 -0.6943 -0.1817
12080TIP3    H257732   4.072   2.538   1.670  0.2162 -0.8293  0.7843
12081TIP3   OH257733   4.002   5.961  14.381 -0.2505  0.5948  0.2852
12081TIP3    H157734   3.915   5.994  14.402 -1.5672 -1.6097 -1.2228
12081TIP3    H257735   3.991   5.866  14.376  2.3672  0.2018  0.4781
12082TIP3   OH257736   3.675   1.408  16.197  0.2269 -0.2235  0.3580
12082TIP3    H157737   3.728   1.341  16.154  0.9454 -0.0584  0.9582
12082TIP3    H257738   3.675   1.381  16.289 -0.5600 -0.1006  0.3976
12083TIP3   OH257739   4.134   0.081  11.687 -0.1401  0.4175  0.4326
12083TIP3    H157740   4.158   0.008  11.629  0.0285 -0.4781  1.6069
12083TIP3    H257741   4.093   0.145  11.628 -0.8587 -0.8806 -0.5363
12084TIP3   OH257742   5.313   5.239   1.322 -0.3912 -0.2085  0.5476
12084TIP3    H157743   5.314   5.169   1.257  0.0185  0.3191 -0.0256
12084TIP3    H257744   5.242   5.215   1.382 -0.0824 -1.2492  0.5142
12085TIP3   OH257745   2.051   1.642  14.336  0.1505  0.5674 -0.1828
12085TIP3    H157746   2.131   1.690  14.316  0.5711  0.1226  0.3737
12085TIP3    H257747   2.023   1.677  14.421 -0.8007  1.4126 -0.8219
12086TIP3   OH257748   2.065   2.241  15.654  0.2447 -0.0064  0.0023
12086TIP3    H157749   2.009   2.221  15.729  1.5192 -2.0215  0.5062
12086TIP3    H257750   2.154   2.224  15.684  0.8668 -0.0398 -1.7102
12087TIP3   OH257751   1.028   5.177   2.328 -0.2770  0.1710  0.1480
12087TIP3    H157752   1.048   5.174   2.234 -0.8084 -1.1020  0.0512
12087TIP3    H257753   1.106   5.214   2.368  0.4221 -0.3374 -0.6962
12088TIP3   OH257754   4.800   0.392   4.923 -0.1267 -0.2076 -0.3082
12088TIP3    H157755   4.826   0.468   4.871 -0.5910  0.4076  0.3472
12088TIP3    H257756   4.868   0.327   4.906  1.9502  1.3751  1.4381
12089TIP3   OH257757   0.853   6.345  12.646  0.0033 -0.3061  0.2356
12089TIP3    H157758   0.770   6.331  12.601 -0.4745 -1.3712  1.3814
12089TIP3    H257759   0.828   6.384  12.730  0.9018  2.1082 -0.5327
12090TIP3   OH257760   3.198   0.757  14.344  0.2641  0.0020 -0.0532
12090TIP3    H157761   3.105   0.752  14.325 -0.0900  3.3939  0.2029
12090TIP3    H257762   3.241   0.727  14.263 -1.0389 -0.4962 -0.5776
12091TIP3   OH257763   1.024   0.189   5.465  0.0064  0.1664 -0.3137
12091TIP3    H157764   1.081   0.210   5.391 -1.5637 -1.9454 -2.2742
12091TIP3    H257765   1.079   0.200   5.542  2.1279  1.1762 -1.8795
12092TIP3   OH257766   5.917   4.232  14.483 -0.5601  0.0470  0.1133
12092TIP3    H157767   5.878   4.144  14.484  1.1163 -0.7396 -0.0737
12092TIP3    H257768   5.997   4.223  14.534 -0.1813  1.3904 -0.2121
12093TIP3   OH257769   5.604   2.504  13.541 -0.0388 -0.1756  0.0394
12093TIP3    H157770   5.651   2.562  13.601 -1.1928 -0.1448  0.9481
12093TIP3    H257771   5.532   2.557  13.506 -0.5834 -0.7933  0.2075
12094TIP3   OH257772   6.811   2.538  13.934 -0.1967  0.7404 -0.2270
12094TIP3    H157773   6.830   2.581  14.018 -1.0827 -0.4455  0.6347
12094TIP3    H257774   6.779   2.608  13.877 -0.8416  1.3744  0.8712
12095TIP3   OH257775   4.783   5.055  11.813 -0.3859  0.1371  0.6003
12095TIP3    H157776   4.767   5.078  11.721  1.2509 -0.5768  0.0933
12095TIP3    H257777   4.774   5.138  11.860  0.2759  0.8253 -0.4339
12096TIP3   OH257778   0.527   0.092  12.659 -0.2238 -0.2673  0.4868
12096TIP3    H157779   0.513   0.094  12.565 -0.1926 -1.4182  0.4459
12096TIP3    H257780   0.622   0.089  12.670 -0.2347 -0.5371  0.5322
12097TIP3   OH257781   5.510   4.705   0.329 -0.7917  0.0264 -0.6285
12097TIP3    H157782   5.470   4.665   0.406 -0.7650  0.6763 -0.2741
12097TIP3    H257783   5.443   4.764   0.295  0.7697  3.4321  1.6910
12098TIP3   OH257784   0.945   1.317  16.612 -0.1111 -0.0334  0.4719
12098TIP3    H157785   0.929   1.226  16.635  0.6697  0.1906  2.0646
12098TIP3    H257786   0.898   1.330  16.530  2.7349 -2.8982 -1.8951
12099TIP3   OH257787   0.268   0.071  16.999  0.3434 -0.1239  0.1648
12099TIP3    H157788   0.347   0.108  17.037  0.9340 -0.7733 -0.3988
12099TIP3    H257789   0.253  -0.009  17.048  1.2523 -1.0967 -1.0809
12100TIP3   OH257790   2.646   3.947   4.966  0.2804  0.1421  0.1036
12100TIP3    H157791   2.564   3.991   4.990 -0.0785 -0.7487  0.5988
12100TIP3    H257792   2.699   4.014   4.925 -0.5991  0.8086  0.0320
12101TIP3   OH257793   4.551   4.829  12.942 -0.3281 -0.0121  0.0103
12101TIP3    H157794   4.526   4.778  12.865  0.4010  0.3806 -0.5076
12101TIP3    H257795   4.565   4.918  12.908  2.3889 -0.3125  0.0672
12102TIP3   OH257796   2.892   6.818   3.398  0.4354  0.0612 -0.2449
12102TIP3    H157797   2.797   6.816   3.388  0.3252 -1.4898  0.7616
12102TIP3    H257798   2.915   6.730   3.430  2.3336  0.0054 -1.5574
12103TIP3   OH257799   4.642   6.098  15.562  0.5525 -0.0673 -0.3184
12103TIP3    H157800   4.599   6.176  15.599  0.9428  0.1102 -0.2360
12103TIP3    H257801   4.570   6.037  15.544  0.3010  0.0905  0.1506
12104TIP3   OH257802   3.574   6.084  15.532  0.2778  0.2166 -0.0517
12104TIP3    H157803   3.487   6.093  15.571  0.2330  0.6854 -0.2532
12104TIP3    H257804   3.610   6.172  15.533 -0.1102  0.4533 -1.9414
12105TIP3   OH257805   4.741   2.296   1.578  0.3212 -0.8372 -0.0520
12105TIP3    H157806   4.750   2.201   1.571  2.1940 -0.7586  0.6175
12105TIP3    H257807   4.820   2.330   1.537 -0.4009  0.4503 -0.4070
12106TIP3   OH257808   3.173   0.514  11.350  0.1000  0.5843 -0.2358
12106TIP3    H157809   3.120   0.489  11.426  0.3604 -0.4844 -0.4002
12106TIP3    H257810   3.246   0.564  11.387 -0.5778  1.3837  0.0616
12107TIP3   OH257811   0.252   0.085  14.021  0.3920  0.1055 -0.5189
12107TIP3    H157812   0.320   0.151  14.033 -0.2375  0.6808 -0.0584
12107TIP3    H257813   0.185   0.128  13.968  0.2215 -0.3431 -0.6738
12108TIP3   OH257814   2.816   4.446   3.213  0.0406 -0.3088 -0.4233
12108TIP3    H157815   2.784   4.416   3.128 -2.1056 -1.0394  0.5709
12108TIP3    H257816   2.766   4.395   3.277 -0.3701  2.0731  1.3098
12109TIP3   OH257817   3.079   1.255  12.553 -0.9086  0.3101 -0.2512
12109TIP3    H157818   3.106   1.345  12.537  0.8302  0.0073  0.6687
12109TIP3    H257819   3.161   1.208  12.567 -1.8088 -1.3192 -0.1943
12110TIP3   OH257820   3.011   1.097  13.150 -0.1208 -0.1878  0.4304
12110TIP3    H157821   3.034   1.071  13.239 -4.0610 -0.0374  1.6668
12110TIP3    H257822   2.938   1.158  13.161 -1.0695 -0.5535 -2.9221
12111TIP3   OH257823   5.676   2.184   4.638 -0.0816 -0.4526  0.5485
12111TIP3    H157824   5.731   2.206   4.563  0.8037  0.4114  1.4086
12111TIP3    H257825   5.669   2.089   4.637  1.7113 -0.6205  0.5805
12112TIP3   OH257826   0.412   2.310   1.019 -0.5652 -0.0239 -0.1376
12112TIP3    H157827   0.371   2.226   1.000  0.1068 -0.2128 -0.7468
12112TIP3    H257828   0.349   2.375   0.986 -0.8359 -0.2917 -0.1522
12113TIP3   OH257829   2.415   3.537  14.906 -0.4638 -0.2460  0.2763
12113TIP3    H157830   2.478   3.482  14.952 -3.8707 -2.6126  2.5924
12113TIP3    H257831   2.360   3.475  14.857 -3.5034  1.1161  1.7039
12114TIP3   OH257832   1.440   6.039   0.334 -0.2000 -0.1365 -0.2757
12114TIP3    H157833   1.405   6.034   0.245 -1.1433 -0.0612  0.0801
12114TIP3    H257834   1.366   6.067   0.388  0.8561  1.8149  0.2535
12115TIP3   OH257835   3.498   4.537  10.998 -0.1437 -0.1798  0.4548
12115TIP3    H157836   3.457   4.461  10.957 -1.6667 -0.2028  1.9009
12115TIP3    H257837   3.570   4.560  10.939 -2.4039  0.0688 -2.4405
12116TIP3   OH257838   4.772   1.557  10.278 -0.2944  0.4256 -0.3130
12116TIP3    H157839   4.685   1.521  10.294 -0.9240  1.1584 -1.9067
12116TIP3    H257840   4.759   1.651  10.274  0.8393  0.6550  0.8262
12117TIP3   OH257841   3.955   6.674   0.354 -0.5772 -0.4439  0.4231
12117TIP3    H157842   4.025   6.664   0.290  0.9631 -1.1381  2.1378
12117TIP3    H257843   3.899   6.597   0.339 -2.3544  1.1952 -2.4019
12118TIP3   OH257844   6.279   1.621  11.288  0.3419 -0.1509  0.5535
12118TIP3    H157845   6.260   1.688  11.223  0.9622 -0.4769  0.0213
12118TIP3    H257846   6.363   1.647  11.325 -0.0189  0.0442  1.2466
12119TIP3   OH257847   5.516   2.693  17.024 -0.1947  0.1579  0.1148
12119TIP3    H157848   5.601   2.694  17.068 -0.2738 -0.1748  0.2768
12119TIP3    H257849   5.456   2.656  17.088 -1.0471  2.8622  1.0353
12120TIP3   OH257850   0.802   6.006   5.557  0.2065  0.1088  0.0458
12120TIP3    H157851   0.772   6.018   5.647 -0.3286  1.4455 -0.2930
12120TIP3    H257852   0.885   6.053   5.553 -0.1663  0.7519 -0.3578
12121TIP3   OH257853   6.379   0.220   1.999 -0.5918 -0.2130 -0.2037
12121TIP3    H157854   6.446   0.288   2.000 -1.0620  0.2497  0.1009
12121TIP3    H257855   6.305   0.258   2.046 -0.8206 -0.9746  0.0705
12122TIP3   OH257856   0.169   2.810   3.697 -0.0721  0.3459  0.7474
12122TIP3    H157857   0.173   2.724   3.739  0.2258 -0.3445 -0.6362
12122TIP3    H257858   0.188   2.872   3.767  0.9275 -0.7915  1.5139
12123TIP3   OH257859   6.409   0.864   2.201  0.3301 -0.1234  0.1768
12123TIP3    H157860   6.340   0.847   2.265  0.0904  1.7917  0.4844
12123TIP3    H257861   6.478   0.907   2.252 -0.5088  2.9068 -1.0406
12124TIP3   OH257862   3.156   5.881  11.690 -0.0682  0.7560  0.0245
12124TIP3    H157863   3.226   5.924  11.641 -0.1320  0.0699 -0.6880
12124TIP3    H257864   3.199   5.809  11.736 -0.7979 -2.2552 -3.5549
12125TIP3   OH257865   2.590   1.626  14.084 -0.4212 -0.1203 -0.7373
12125TIP3    H157866   2.530   1.697  14.061  0.6416  1.1144  0.1234
12125TIP3    H257867   2.676   1.658  14.058  0.2966 -0.3655  1.1910
12126TIP3   OH257868   4.867   2.200   2.741  0.3874  0.4272 -0.3527
12126TIP3    H157869   4.795   2.263   2.733  0.0305  0.1344  0.4012
12126TIP3    H257870   4.942   2.252   2.769  0.4128  0.6946 -0.8918
12127TIP3   OH257871   6.756   0.539  12.181  0.2435  0.0327  0.1878
12127TIP3    H157872   6.839   0.514  12.223  0.2939  0.2552  0.2189
12127TIP3    H257873   6.708   0.456  12.175 -0.5047  0.2447  2.2815
12128TIP3   OH257874   5.902   5.415  11.529 -0.3180 -0.2347 -0.3462
12128TIP3    H157875   5.972   5.399  11.465  0.5095  2.8488 -0.4012
12128TIP3    H257876   5.946   5.415  11.614 -0.7906 -0.9284 -0.0913
12129TIP3   OH257877   4.105   1.188  11.571  0.4791 -0.6721  0.0352
12129TIP3    H157878   4.122   1.273  11.531 -1.2661 -0.2058  0.1951
12129TIP3    H257879   4.146   1.125  11.512 -0.9397  0.0827 -1.8613
12130TIP3   OH257880   1.974   3.967   1.398  0.1436  0.3088 -0.2403
12130TIP3    H157881   2.057   3.920   1.408  1.0630  1.7903 -0.5278
12130TIP3    H257882   1.915   3.926   1.461  0.4955 -2.0108 -1.2982
12131TIP3   OH257883   3.525   3.051   2.556 -0.0728  0.4063 -0.7356
12131TIP3    H157884   3.443   3.005   2.573 -0.1243 -0.1723 -2.4364
12131TIP3    H257885   3.529   3.118   2.625 -0.4377 -1.4943  1.2330
12132TIP3   OH257886   2.432   6.162  14.575  0.0998 -0.0262 -0.5663
12132TIP3    H157887   2.466   6.220  14.643 -0.1451 -0.0854 -0.3911
12132TIP3    H257888   2.410   6.081  14.621 -2.8879  0.9134 -0.1121
12133TIP3   OH257889   0.788   2.496   5.447  0.0104 -0.1499  0.4774
12133TIP3    H157890   0.734   2.433   5.494 -2.9826  0.7194 -1.5008
12133TIP3    H257891   0.765   2.581   5.486  1.5256  0.0858  0.9299
12134TIP3   OH257892   1.117   2.616  14.150 -0.2969 -0.2527  0.2006
12134TIP3    H157893   1.036   2.570  14.127  0.4723 -2.0069  0.8326
12134TIP3    H257894   1.163   2.627  14.066 -0.1069 -1.4241  0.1420
12135TIP3   OH257895   4.501   2.765  11.653 -0.2714  0.0051 -0.1788
12135TIP3    H157896   4.573   2.703  11.660  0.3326  0.1593 -3.5209
12135TIP3    H257897   4.538   2.849  11.679  0.2463 -0.2169 -0.1895
12136TIP3   OH257898   3.614   6.235  15.275 -0.3520  0.4948  0.6565
12136TIP3    H157899   3.620   6.291  15.352 -0.5224 -0.1949  1.1807
12136TIP3    H257900   3.694   6.182  15.278 -0.2321  0.6524  0.2147
12137TIP3   OH257901   6.709   2.268   3.649 -0.1376  0.0348 -0.1723
12137TIP3    H157902   6.725   2.220   3.567  1.7128 -1.3067  0.8826
12137TIP3    H257903   6.796   2.298   3.676 -0.8106  1.0125  0.9769
12138TIP3   OH257904   2.575   3.088   4.306 -0.1796  0.3560 -0.0504
12138TIP3    H157905   2.552   3.121   4.393  0.5410  2.2287 -0.5029
12138TIP3    H257906   2.631   3.157   4.269 -0.8783 -0.1560 -2.1859
12139TIP3   OH257907   0.474   3.568   1.917  0.1867 -0.2407  0.4039
12139TIP3    H157908   0.568   3.556   1.909  0.2621 -2.7618  3.2226
12139TIP3    H257909   0.459   3.582   2.011 -2.1111  2.7153 -0.2249
12140TIP3   OH257910   5.246   3.872   4.145  0.0930 -0.6888  0.1539
12140TIP3    H157911   5.201   3.870   4.229 -2.4145 -0.2117 -1.0695
12140TIP3    H257912   5.176   3.863   4.080  1.8062 -0.0327 -1.9103
12141TIP3   OH257913   4.537   1.316   2.061  0.1228 -0.0095 -0.1755
12141TIP3    H157914   4.443   1.333   2.063  0.2700  0.8667 -0.3149
12141TIP3    H257915   4.544   1.222   2.045 -0.7400 -0.7371  3.0346
12142TIP3   OH257916   2.578   5.103  13.024  0.1087  0.6728  1.2253
12142TIP3    H157917   2.508   5.055  13.068 -0.0376  1.2232  1.5991
12142TIP3    H257918   2.624   5.036  12.973 -1.4928  0.5066 -0.0904
12143TIP3   OH257919   6.391   1.116  13.577  0.5028  0.6726  0.3370
12143TIP3    H157920   6.375   1.051  13.645  1.5461  1.4892  1.3956
12143TIP3    H257921   6.422   1.064  13.502 -0.9086 -0.2516  0.3658
12144TIP3   OH257922   3.787   1.661   2.781 -0.1790  0.5347 -0.2089
12144TIP3    H157923   3.698   1.683   2.810  0.2219 -1.0020  2.5391
12144TIP3    H257924   3.781   1.570   2.752  0.7350 -0.0885  1.4427
12145TIP3   OH257925   1.783   0.247  13.515 -0.0319  0.1188  0.3011
12145TIP3    H157926   1.707   0.286  13.472  0.9379  0.9208 -0.7267
12145TIP3    H257927   1.746   0.197  13.588 -1.5421  0.4447 -0.2129
12146TIP3   OH257928   1.898   4.267   5.526 -0.2366  0.2784  0.4193
12146TIP3    H157929   1.931   4.238   5.611 -0.4030  1.2232  0.8119
12146TIP3    H257930   1.942   4.210   5.463  1.2726  0.7416  1.0038
12147TIP3   OH257931   5.175   2.355   0.765 -0.4581  0.4056  0.0949
12147TIP3    H157932   5.219   2.439   0.774  0.4424 -0.1028  0.5770
12147TIP3    H257933   5.138   2.338   0.852  1.9335 -1.0674  0.9233
12148TIP3   OH257934   5.666   6.786  12.713 -0.4049  0.0399 -0.7194
12148TIP3    H157935   5.687   6.839  12.790  0.0822  1.2383 -1.6463
12148TIP3    H257936   5.751   6.765  12.674 -0.6910  2.0335 -2.5949
12149TIP3   OH257937   0.603   4.304   4.611  0.0472 -0.3729  0.4145
12149TIP3    H157938   0.688   4.346   4.620 -0.1640  0.2897 -0.5837
12149TIP3    H257939   0.558   4.353   4.542 -0.3640 -1.9689 -0.5118
12150TIP3   OH257940   3.607   3.037  14.100 -0.4259 -0.1627 -0.3530
12150TIP3    H157941   3.554   3.115  14.085 -0.1985 -0.3841 -2.5286
12150TIP3    H257942   3.544   2.968  14.122 -0.6915  0.4092  0.7513
12151TIP3   OH257943   0.366   4.558   3.232  0.9663 -0.1750 -0.1232
12151TIP3    H157944   0.399   4.502   3.302  2.0508 -0.0325 -0.5054
12151TIP3    H257945   0.372   4.504   3.154 -2.5210 -1.2206  0.1729
12152TIP3   OH257946   3.171   0.930   4.147  0.0300  0.1671 -0.4507
12152TIP3    H157947   3.131   1.013   4.174  1.2086  0.7064 -0.2619
12152TIP3    H257948   3.114   0.896   4.079 -1.9077 -0.1724  1.2518
12153TIP3   OH257949   2.786   5.545  14.497 -0.2293 -0.2669 -0.5617
12153TIP3    H157950   2.806   5.631  14.461  0.3593 -0.7274 -1.3679
12153TIP3    H257951   2.702   5.522  14.457 -0.5282  0.0557 -0.1207
12154TIP3   OH257952   1.212   6.488  17.039 -0.6870 -0.1216  0.5896
12154TIP3    H157953   1.240   6.399  17.016  0.7974  0.6626 -0.8665
12154TIP3    H257954   1.172   6.522  16.960 -0.4300  0.8066  0.8448
12155TIP3   OH257955   6.274   3.410   6.035 -0.5627  0.7974  0.8491
12155TIP3    H157956   6.343   3.357   5.997  1.1907  3.0984  0.6182
12155TIP3    H257957   6.209   3.420   5.965 -0.2417  0.1484  0.4508
12156TIP3   OH257958   5.286   2.518   0.198 -0.0737  0.7448  0.3569
12156TIP3    H157959   5.219   2.491   0.134  0.0870  1.9202 -0.3422
12156TIP3    H257960   5.364   2.534   0.145  0.2130  1.2418  0.9261
12157TIP3   OH257961   5.403   3.895   5.070 -0.0801 -0.8088 -0.1023
12157TIP3    H157962   5.366   3.983   5.083 -1.5477 -1.3856 -0.2552
12157TIP3    H257963   5.485   3.897   5.120  0.4889  1.0002 -1.0147
12158TIP3   OH257964   5.774   3.480  15.386 -0.0288 -0.5163 -0.2103
12158TIP3    H157965   5.751   3.412  15.449 -0.4613 -0.0267  0.1649
12158TIP3    H257966   5.697   3.537  15.382 -1.0000 -1.8686 -3.0221
12159TIP3   OH257967   5.802   3.231   4.472  0.2107 -0.7299  0.3299
12159TIP3    H157968   5.835   3.184   4.548 -0.1536  0.0185  0.9689
12159TIP3    H257969   5.867   3.301   4.457 -0.2884 -0.1849  0.6594
12160TIP3   OH257970   4.664   6.220  14.929  0.4038  0.2305 -0.3553
12160TIP3    H157971   4.719   6.181  14.996 -0.5142  1.5797  1.2671
12160TIP3    H257972   4.580   6.175  14.937  0.4981 -0.1070 -1.1220
12161TIP3   OH257973   2.041   6.050  15.992  0.0189 -0.3265 -0.2104
12161TIP3    H157974   2.054   6.134  16.035 -1.8426 -0.4435  0.6618
12161TIP3    H257975   2.109   5.994  16.029 -0.5009  0.0388  1.3588
12162TIP3   OH257976   1.297   5.098  12.005  0.3067  0.1362 -0.0450
12162TIP3    H157977   1.351   5.173  11.981 -0.1179  0.1664 -0.9751
12162TIP3    H257978   1.354   5.022  11.995  0.4721  0.2598 -0.0251
12163TIP3   OH257979   1.182   3.848   4.667 -0.3906  0.6540  0.1740
12163TIP3    H157980   1.270   3.886   4.663 -0.3069  0.4547  0.1157
12163TIP3    H257981   1.156   3.859   4.759  0.0202 -0.0101  0.3744
12164TIP3   OH257982   6.285   1.397  11.564  0.5086 -0.3112 -0.1516
12164TIP3    H157983   6.279   1.475  11.508  0.7250  0.2769  0.6280
12164TIP3    H257984   6.195   1.372  11.580  0.4310 -0.0880 -0.2293
12165TIP3   OH257985   4.484   1.429   3.671  0.2877  0.1017  0.3441
12165TIP3    H157986   4.443   1.479   3.742 -0.4433  0.5371 -0.3686
12165TIP3    H257987   4.562   1.481   3.648  0.3860  0.0930  0.6527
12166TIP3   OH257988   3.166   3.858   1.441  0.2825 -0.0021 -0.0835
12166TIP3    H157989   3.172   3.856   1.536 -0.9447 -0.0761  0.0083
12166TIP3    H257990   3.192   3.946   1.416  0.9431 -0.0882  0.2885
12167TIP3   OH257991   1.448   4.794   0.065  0.8311  0.0390 -0.2680
12167TIP3    H157992   1.513   4.854   0.028  0.8189 -0.3411 -0.9328
12167TIP3    H257993   1.379   4.790  -0.002  0.4560 -0.0997  0.1212
12168TIP3   OH257994   5.388   2.952  10.594  0.1282 -0.2619  0.3634
12168TIP3    H157995   5.330   3.025  10.575  0.7097  0.1255  0.0106
12168TIP3    H257996   5.370   2.888  10.525  1.0556  0.4365 -0.5701
12169TIP3   OH257997   5.123   3.702   0.274 -0.0485 -0.0450  0.0977
12169TIP3    H157998   5.081   3.786   0.251 -0.2042  0.2317  1.3476
12169TIP3    H257999   5.050   3.641   0.283  0.0275 -0.1956 -0.2773
12170TIP3   OH258000   3.438   5.060   0.199 -0.0459  0.1172  0.0610
12170TIP3    H158001   3.368   5.008   0.240  0.0194  0.6862  0.9321
12170TIP3    H258002   3.402   5.085   0.114 -0.8980  0.3586  0.4738
12171TIP3   OH258003   0.399   1.418   4.666  0.0023  0.0948  0.1242
12171TIP3    H158004   0.374   1.338   4.712  1.4430 -0.2216  0.4114
12171TIP3    H258005   0.326   1.478   4.680 -0.2318 -0.5021  1.6169
12172TIP3   OH258006   6.705   5.971  17.077  0.0473  0.0376 -0.2664
12172TIP3    H158007   6.776   5.949  17.137 -0.6723 -2.5617 -0.2675
12172TIP3    H258008   6.625   5.954  17.126 -0.5671  0.3353 -1.1440
12173TIP3   OH258009   3.829   0.451   4.042  0.7576 -0.2500  0.2092
12173TIP3    H158010   3.847   0.545   4.048 -0.2745  0.1485 -1.8293
12173TIP3    H258011   3.741   0.441   4.079 -0.2157  0.0729 -1.8819
12174TIP3   OH258012   1.858   3.063   0.794 -0.2785  0.2830  0.7444
12174TIP3    H158013   1.782   3.105   0.754  0.8474  1.5382 -0.1718
12174TIP3    H258014   1.877   2.988   0.737 -0.0955  0.6866  0.2717
12175TIP3   OH258015   0.498   5.185  10.891 -0.0060  0.1431  0.3788
12175TIP3    H158016   0.403   5.196  10.895 -0.1009 -0.9539  2.4527
12175TIP3    H258017   0.510   5.100  10.849 -0.0255 -0.4549  1.5566
12176TIP3   OH258018   5.224   0.606  13.021 -0.0936 -0.4935 -0.4262
12176TIP3    H158019   5.187   0.542  13.082  2.0858 -1.4368  0.0124
12176TIP3    H258020   5.316   0.582  13.015  0.1833  0.8589 -2.5311
12177TIP3   OH258021   4.677   6.584   0.480 -0.0195  0.4072 -0.0228
12177TIP3    H158022   4.713   6.560   0.566  0.0478 -0.3678 -0.2569
12177TIP3    H258023   4.583   6.574   0.489  0.1007 -1.5398 -0.5673
12178TIP3   OH258024   3.676   5.852   5.745 -0.5217  0.4631  0.1640
12178TIP3    H158025   3.768   5.827   5.752 -0.9742 -1.3459  0.1898
12178TIP3    H258026   3.663   5.914   5.817  0.3755 -0.2707  0.9890
12179TIP3   OH258027   0.556   4.208  15.805  0.0086 -0.1972 -0.3158
12179TIP3    H158028   0.555   4.204  15.709  2.4654  0.9872 -0.4789
12179TIP3    H258029   0.546   4.117  15.833 -0.0420 -0.6502 -1.7143
12180TIP3   OH258030   0.993   6.677   0.956 -0.6588 -0.5189  0.5337
12180TIP3    H158031   0.937   6.721   1.021 -0.1549  2.6397 -1.0199
12180TIP3    H258032   1.077   6.722   0.962 -0.4371 -0.4860 -1.9163
12181TIP3   OH258033   4.946   3.517  16.787  0.0420 -0.7806  0.6538
12181TIP3    H158034   4.913   3.509  16.698  1.2859 -0.0866  0.0967
12181TIP3    H258035   4.881   3.572  16.832 -0.2856 -0.6231 -0.0008
12182TIP3   OH258036   0.467   0.247  11.029 -0.3840 -0.1305 -0.0754
12182TIP3    H158037   0.541   0.189  11.009 -0.7634 -0.7992  0.3937
12182TIP3    H258038   0.391   0.202  10.992 -0.5785  0.4799 -0.4292
12183TIP3   OH258039   3.455   2.116  11.547 -0.0258  1.0305  0.2544
12183TIP3    H158040   3.369   2.082  11.570  0.3060  1.4774  2.2972
12183TIP3    H258041   3.498   2.133  11.631  1.5811  2.0174 -0.7132
12184TIP3   OH258042   4.212   0.208  15.881  0.3085 -0.8486  0.3453
12184TIP3    H158043   4.123   0.237  15.860  0.6548  0.7117  0.9250
12184TIP3    H258044   4.268   0.257  15.822  0.8139 -1.7374  0.0637
12185TIP3   OH258045   0.786   3.297   0.145  0.0438  0.4778 -0.0400
12185TIP3    H158046   0.827   3.281   0.230 -2.4571 -1.3048  0.9490
12185TIP3    H258047   0.800   3.216   0.096  0.8657  1.2373 -1.0896
12186TIP3   OH258048   2.643   4.196  15.791 -0.0473  0.1535 -0.1414
12186TIP3    H158049   2.711   4.211  15.856  0.2324 -1.4100 -0.0199
12186TIP3    H258050   2.561   4.208  15.839  0.1422  0.9576 -0.0101
12187TIP3   OH258051   5.461   5.677  12.054 -0.6614  0.2643  0.1830
12187TIP3    H158052   5.371   5.649  12.040 -1.2622  2.5679 -1.1218
12187TIP3    H258053   5.506   5.654  11.972 -0.1530 -0.4687  0.6555
12188TIP3   OH258054   0.893   6.796  13.014  0.1913  0.2989  0.8621
12188TIP3    H158055   0.853   6.758  12.936  2.8478 -0.9018 -0.0186
12188TIP3    H258056   0.821   6.798  13.078 -1.9630  0.9436 -1.4030
12189TIP3   OH258057   3.127   3.506  15.145 -0.8056 -0.5622 -0.1692
12189TIP3    H158058   3.043   3.463  15.156 -0.8118 -0.6411 -0.5105
12189TIP3    H258059   3.111   3.598  15.167 -0.4263 -1.0119  2.1863
12190TIP3   OH258060   5.116   2.680   0.614  0.0648  0.0664 -0.7706
12190TIP3    H158061   5.045   2.655   0.555  0.3306  0.4850 -1.2732
12190TIP3    H258062   5.187   2.708   0.555  0.3349  0.4770 -0.2493
12191TIP3   OH258063   6.239   3.509   1.494 -0.0706 -0.4676 -0.0844
12191TIP3    H158064   6.304   3.570   1.459  1.0845 -0.4778  1.8746
12191TIP3    H258065   6.288   3.430   1.514 -1.1334 -1.2727 -0.5354
12192TIP3   OH258066   5.076   3.475   3.964 -0.0628  0.7406 -0.0582
12192TIP3    H158067   5.000   3.502   4.015 -0.1424 -1.3502  1.0210
12192TIP3    H258068   5.149   3.478   4.025  0.5300  1.5479 -0.7692
12193TIP3   OH258069   1.490   3.364   0.864  0.0089  0.5101 -0.5414
12193TIP3    H158070   1.417   3.407   0.818  0.7830 -0.6356 -3.0734
12193TIP3    H258071   1.490   3.275   0.828  0.0654 -0.8579  2.5722
12194TIP3   OH258072   0.016   6.222   1.430  0.7675  0.3650  0.5969
12194TIP3    H158073  -0.066   6.216   1.381  0.2881  1.9203  1.1340
12194TIP3    H258074   0.079   6.172   1.379 -0.4881 -0.7727  0.1105
12195TIP3   OH258075   2.915   5.382  12.008 -0.1151  0.0389  0.1759
12195TIP3    H158076   2.839   5.390  11.950  0.2501  1.6156 -0.1594
12195TIP3    H258077   2.973   5.320  11.965 -1.4774 -1.7050  0.7753
12196TIP3   OH258078   0.113   2.562   3.835 -0.4684 -0.7787  0.0315
12196TIP3    H158079   0.138   2.499   3.768 -0.6922 -1.2953  0.4230
12196TIP3    H258080   0.018   2.551   3.844 -0.8585  0.9984 -1.2841
12197TIP3   OH258081   5.381   2.159   1.791  0.2414 -0.0530  0.1097
12197TIP3    H158082   5.429   2.161   1.874  0.4308 -0.9985  0.0297
12197TIP3    H258083   5.446   2.182   1.725  0.4626 -0.7914  0.0627
12198TIP3   OH258084   0.607   1.270   4.276  0.0523 -0.0257 -0.2551
12198TIP3    H158085   0.512   1.273   4.276  0.0674  3.1539 -0.1767
12198TIP3    H258086   0.634   1.339   4.216  2.3004 -0.1066  0.5530
12199TIP3   OH258087   5.284   0.647   1.719 -0.4420 -0.4075  0.8414
12199TIP3    H158088   5.302   0.710   1.789 -1.5980 -0.4920  1.2303
12199TIP3    H258089   5.191   0.661   1.697  0.0922  0.2297 -1.2735
12200TIP3   OH258090   2.325   3.023   4.010  0.2254 -0.1500 -0.3109
12200TIP3    H158091   2.379   3.099   4.033  0.7452 -0.5155 -0.2910
12200TIP3    H258092   2.303   2.983   4.094 -0.9693  0.5881 -0.2557
12201TIP3   OH258093   0.833   3.287   3.663 -0.3005 -0.5263 -0.2243
12201TIP3    H158094   0.927   3.269   3.670  0.1118  0.9631 -1.2740
12201TIP3    H258095   0.809   3.252   3.577 -0.8149 -1.2451  0.2006
12202TIP3   OH258096   1.533   2.914   5.812  0.3171 -0.1135  0.4250
12202TIP3    H158097   1.441   2.909   5.789  0.9018 -2.6753 -1.8635
12202TIP3    H258098   1.547   2.842   5.873  0.8426  0.1188  0.5842
12203TIP3   OH258099   2.057   3.546   5.134 -0.3249  0.5381 -0.5528
12203TIP3    H158100   2.055   3.520   5.227 -0.9104  0.6557 -0.5294
12203TIP3    H258101   2.080   3.466   5.088 -0.3437  0.4005 -0.3285
12204TIP3   OH258102   0.609   1.473   3.924 -0.8327  0.5346  0.3590
12204TIP3    H158103   0.629   1.492   4.016 -0.1572 -1.9363  0.7969
12204TIP3    H258104   0.650   1.544   3.875  1.8912  0.0803  1.7764
12205TIP3   OH258105   5.448   5.635  16.009  0.0262 -0.1704 -0.2856
12205TIP3    H158106   5.450   5.725  16.044 -2.7498  0.3060 -1.1459
12205TIP3    H258107   5.444   5.580  16.087 -1.7402  0.6762  0.2841
12206TIP3   OH258108   5.522   3.481  12.099  0.5324  0.4781 -0.1902
12206TIP3    H158109   5.519   3.386  12.093 -0.5499  0.5311 -0.6792
12206TIP3    H258110   5.580   3.508  12.028  1.7274  0.1421  0.6263
12207TIP3   OH258111   4.206   4.217   1.286 -0.1696  0.1635  0.6228
12207TIP3    H158112   4.115   4.229   1.260  0.1213  0.2817 -0.4097
12207TIP3    H258113   4.245   4.304   1.278 -0.0340  0.1814  1.3871
12208TIP3   OH258114   2.383   1.069   5.795 -0.3437 -0.8539 -0.2850
12208TIP3    H158115   2.478   1.073   5.806 -0.2094 -1.4729 -1.1193
12208TIP3    H258116   2.350   1.150   5.835  0.5980 -0.2313 -0.7477
12209TIP3   OH258117   6.066   4.568   1.833  0.1823  0.3692 -0.1897
12209TIP3    H158118   6.023   4.644   1.872  0.8621  0.5657  0.1992
12209TIP3    H258119   6.053   4.498   1.896  0.6812  0.5069  0.0720
12210TIP3   OH258120   3.912   2.797  15.164 -0.9987  0.1061 -0.1179
12210TIP3    H158121   3.929   2.704  15.178 -0.6012  0.2073  0.0814
12210TIP3    H258122   3.823   2.799  15.127 -1.0233 -0.3472 -0.0987
12211TIP3   OH258123   6.607   6.308  10.595  0.1709 -0.1660 -0.2107
12211TIP3    H158124   6.694   6.273  10.578 -0.6479 -2.3199 -0.2776
12211TIP3    H258125   6.610   6.336  10.687  1.2231  0.8345 -0.5227
12212TIP3   OH258126   3.679   2.267  16.005  0.1322 -0.1388  0.2304
12212TIP3    H158127   3.736   2.196  16.036 -0.9837 -0.4571  1.7023
12212TIP3    H258128   3.671   2.325  16.081  1.0745  1.6551 -0.9610
12213TIP3   OH258129   6.111   2.098   2.481 -0.4553  0.8885  0.5417
12213TIP3    H158130   6.142   2.114   2.392 -1.4874  0.9265  0.1754
12213TIP3    H258131   6.153   2.166   2.534  0.1841  0.8496  0.0893
12214TIP3   OH258132   5.326   1.312  12.836  0.0198  0.0473  0.1077
12214TIP3    H158133   5.413   1.324  12.799 -0.2369 -1.2983 -1.0186
12214TIP3    H258134   5.341   1.279  12.924  0.6656  4.2780  1.7830
12215TIP3   OH258135   2.686   1.085  11.771  0.5073 -0.6817 -0.1386
12215TIP3    H158136   2.708   1.157  11.830  2.2325 -1.4589  0.2260
12215TIP3    H258137   2.730   1.108  11.689 -0.8852 -0.1944 -0.7654
12216TIP3   OH258138   4.941   0.764   3.524  0.3766  0.0343 -0.5612
12216TIP3    H158139   4.852   0.744   3.497  0.4533 -1.8318  0.3927
12216TIP3    H258140   4.988   0.681   3.518  1.7045  0.6739  0.2857
12217TIP3   OH258141   6.146   2.767  10.960  0.0513 -0.2382  0.6780
12217TIP3    H158142   6.084   2.829  10.998  1.0550  0.5935  1.0013
12217TIP3    H258143   6.209   2.821  10.913  0.6585 -1.0459  0.5273
12218TIP3   OH258144   1.473   6.790   0.479  0.3377  0.7130 -0.1970
12218TIP3    H158145   1.564   6.814   0.501  0.6507  1.4747 -2.1109
12218TIP3    H258146   1.448   6.854   0.412 -1.3377 -0.0109 -0.2839
12219TIP3   OH258147   2.990   1.735   2.865 -0.0180  0.0921 -0.5196
12219TIP3    H158148   2.908   1.703   2.826  0.0129  0.7726 -1.1626
12219TIP3    H258149   3.036   1.656   2.893 -1.7340 -0.2462  1.6066
12220TIP3   OH258150   3.962   0.193  15.484 -0.6834 -0.6381 -0.2869
12220TIP3    H158151   3.953   0.122  15.420 -2.3089 -0.2304 -0.5730
12220TIP3    H258152   4.049   0.229  15.468 -0.7146 -1.1118 -1.7011
12221TIP3   OH258153   2.500   3.469   3.741  0.1255 -0.3583 -0.2380
12221TIP3    H158154   2.581   3.519   3.736  1.9747 -2.2869  4.3476
12221TIP3    H258155   2.517   3.390   3.690  0.7022 -0.2270 -0.2490
12222TIP3   OH258156   5.621   4.767  11.415 -0.2090 -0.3580  0.1362
12222TIP3    H158157   5.665   4.775  11.500  1.0356  0.1635 -0.5399
12222TIP3    H258158   5.628   4.675  11.393  0.9287 -0.2135 -0.1521
12223TIP3   OH258159   3.605   6.128   4.554 -0.6641  0.1249 -0.4192
12223TIP3    H158160   3.527   6.178   4.530  0.4565  1.9153 -0.5124
12223TIP3    H258161   3.652   6.116   4.472  0.9424  2.3267  0.0818
12224TIP3   OH258162   0.103   0.838   6.400  1.0471 -0.4916 -0.7244
12224TIP3    H158163   0.157   0.841   6.479  0.0021  0.9480 -0.0231
12224TIP3    H258164   0.158   0.793   6.335  2.9966  0.6866  0.0125
12225TIP3   OH258165   5.354   0.798  14.046  0.0770 -0.3090  0.0673
12225TIP3    H158166   5.282   0.759  13.997  1.2643 -0.5375 -1.5977
12225TIP3    H258167   5.318   0.880  14.081 -1.2085 -0.8119 -0.0242
12226TIP3   OH258168   6.513   3.841  14.120  0.5968 -0.2081  0.1204
12226TIP3    H158169   6.454   3.774  14.085  0.0414  0.8984 -1.1682
12226TIP3    H258170   6.462   3.885  14.188  1.0213 -1.1649  1.0864
12227TIP3   OH258171   0.976   1.311  13.126  0.2497  0.4920 -0.3420
12227TIP3    H158172   1.045   1.302  13.192  1.0149  0.9253 -1.0669
12227TIP3    H258173   0.934   1.225  13.125  1.6218 -0.2123 -0.8036
12228TIP3   OH258174   6.383   0.690  11.915  0.1370 -0.0658 -0.3158
12228TIP3    H158175   6.322   0.703  11.987 -0.0486  0.5443 -0.5789
12228TIP3    H258176   6.352   0.611  11.871  0.9870 -1.1665  1.0053
12229TIP3   OH258177   1.135   6.510  11.771 -0.0827  0.5666 -0.1116
12229TIP3    H158178   1.115   6.568  11.844 -0.2259  0.8286 -0.3571
12229TIP3    H258179   1.113   6.423  11.803 -2.2243  0.8796 -0.5444
12230TIP3   OH258180   1.741   4.976   0.960  0.7134  0.1646  0.1794
12230TIP3    H158181   1.803   4.912   0.925  0.3085 -0.7851  1.1392
12230TIP3    H258182   1.756   4.975   1.055  0.3225  1.0989  0.2640
12231TIP3   OH258183   5.705   0.761  16.283 -0.0834 -0.4025  0.1120
12231TIP3    H158184   5.703   0.809  16.366 -0.5703  0.8340 -0.5765
12231TIP3    H258185   5.776   0.698  16.293  1.3317  1.1994  0.6913
12232TIP3   OH258186   4.881   2.216   5.872 -0.0145 -0.0491  0.6037
12232TIP3    H158187   4.823   2.160   5.924 -1.9386 -0.2206 -1.5697
12232TIP3    H258188   4.825   2.287   5.841  1.3201  0.6422 -0.3545
12233TIP3   OH258189   3.181   3.211   5.922  0.1112 -0.3651  0.3124
12233TIP3    H158190   3.222   3.253   5.997  0.5152 -0.8344  0.3596
12233TIP3    H258191   3.087   3.217   5.939  0.1970 -0.3497  0.7889
12234TIP3   OH258192   5.397   5.975  10.973  0.5084  0.3370  0.6649
12234TIP3    H158193   5.303   5.970  10.993  0.1122 -1.4208 -1.2948
12234TIP3    H258194   5.434   5.896  11.011  1.1002  0.7262  0.9137
12235TIP3   OH258195   1.250   2.031   1.321 -0.2468 -0.0208  0.0891
12235TIP3    H158196   1.313   2.011   1.390  1.3904 -0.1750 -1.3701
12235TIP3    H258197   1.304   2.056   1.246 -1.9323 -0.2134 -1.2503
12236TIP3   OH258198   6.297   1.251   2.290 -0.3526  0.6101 -0.8770
12236TIP3    H158199   6.350   1.329   2.299 -0.2836  0.7852 -2.4246
12236TIP3    H258200   6.359   1.178   2.298 -0.5151  0.6482  1.2198
12237TIP3   OH258201   5.148   5.758   4.963  1.0140 -0.3274 -0.1917
12237TIP3    H158202   5.237   5.725   4.951  0.3110 -1.5997 -2.3839
12237TIP3    H258203   5.135   5.820   4.892 -0.1395 -0.8613 -0.4815
12238TIP3   OH258204   1.607   2.863   1.482 -0.4759  0.1284  0.2729
12238TIP3    H158205   1.641   2.777   1.456 -1.1208  0.3611 -1.4412
12238TIP3    H258206   1.680   2.923   1.467 -0.0311 -0.0907  1.4527
12239TIP3   OH258207   5.944   1.709   0.845  0.1166  0.0517  0.0310
12239TIP3    H158208   5.908   1.792   0.875 -1.5803 -0.6646  0.0891
12239TIP3    H258209   5.924   1.647   0.915  0.3596 -0.6432 -0.5026
12240TIP3   OH258210   4.838   6.541   0.988  0.0093 -0.0415 -0.1472
12240TIP3    H158211   4.829   6.460   1.038 -0.4997  0.0714 -0.0431
12240TIP3    H258212   4.932   6.551   0.974  0.2843  0.4557  1.7002
12241TIP3   OH258213   3.955   4.574   2.197 -0.2674 -0.1981  0.0697
12241TIP3    H158214   4.026   4.635   2.182  0.2927 -0.7863  0.2620
12241TIP3    H258215   3.988   4.514   2.264 -0.2366 -1.5743 -1.1191
12242TIP3   OH258216   2.344   6.173  15.871 -0.0262  0.3862  0.7751
12242TIP3    H158217   2.348   6.159  15.965 -0.0929 -0.2799  0.6840
12242TIP3    H258218   2.289   6.103  15.838 -2.1180  2.0501  0.5145
12243TIP3   OH258219   6.636   5.045   1.354 -0.5525  0.4180  0.5641
12243TIP3    H158220   6.555   5.095   1.345 -0.5485  0.6248  1.5670
12243TIP3    H258221   6.608   4.961   1.390 -0.3575  0.3605  0.5798
12244TIP3   OH258222   5.998   4.158  13.725  0.0838 -0.0563  0.0468
12244TIP3    H158223   5.996   4.093  13.655 -1.1194 -0.7469  0.6936
12244TIP3    H258224   5.970   4.110  13.803 -0.1057  1.0599  0.6873
12245TIP3   OH258225   0.526   3.244  12.694  0.2538  0.3649 -0.5027
12245TIP3    H158226   0.515   3.241  12.789  1.8952  1.2745 -0.2338
12245TIP3    H258227   0.511   3.336  12.671 -0.6733  0.0476 -1.2132
12246TIP3   OH258228   2.365   1.679  10.852 -0.6287  0.2837  0.4977
12246TIP3    H158229   2.368   1.631  10.769  0.8456  0.4610  0.4181
12246TIP3    H258230   2.397   1.766  10.831 -0.5735  0.4426  1.1947
12247TIP3   OH258231   5.127   0.663  12.450  0.3740  0.0338  0.5447
12247TIP3    H158232   5.086   0.693  12.369 -0.2355 -0.7010  0.5717
12247TIP3    H258233   5.206   0.717  12.459 -0.4345  1.2655  0.3375
12248TIP3   OH258234   1.035   2.703   3.066 -0.1211 -0.5951  0.5463
12248TIP3    H158235   1.056   2.795   3.078  1.3467 -1.0530  1.6406
12248TIP3    H258236   1.062   2.684   2.976 -1.5718  0.3017 -0.1235
12249TIP3   OH258237   3.374   2.198  11.286 -0.3119 -0.4546  0.0154
12249TIP3    H158238   3.438   2.189  11.356  0.3923  2.0506 -0.1899
12249TIP3    H258239   3.327   2.115  11.284  0.5399 -1.0620  2.5499
12250TIP3   OH258240   1.927   5.515  15.842  0.4048  0.0270  0.2030
12250TIP3    H158241   1.899   5.551  15.757  1.8312 -0.2727 -0.4305
12250TIP3    H258242   1.862   5.547  15.904  0.7973  2.4633 -0.5621
12251TIP3   OH258243   4.878   6.646   1.736 -0.5213  0.4268 -0.4851
12251TIP3    H158244   4.796   6.604   1.762 -0.6230  1.3254  0.7418
12251TIP3    H258245   4.916   6.587   1.671 -1.7736 -0.3739 -0.5195
12252TIP3   OH258246   2.425   4.556   0.598  0.2166 -0.2960 -0.4601
12252TIP3    H158247   2.340   4.533   0.637  0.1892 -0.4147 -0.5894
12252TIP3    H258248   2.439   4.490   0.530  0.3366 -0.1796 -0.5487
12253TIP3   OH258249   5.743   3.901  14.750  0.6150  0.3803  0.2774
12253TIP3    H158250   5.796   3.829  14.783  1.8440  1.7067  1.3383
12253TIP3    H258251   5.656   3.863  14.735  1.2454 -1.3068  0.7714
12254TIP3   OH258252   3.651   1.397   5.415 -0.1401  0.4650 -0.5905
12254TIP3    H158253   3.627   1.323   5.358  0.0954 -0.8441  0.9355
12254TIP3    H258254   3.745   1.389   5.425 -0.1412  0.8655 -0.2684
12255TIP3   OH258255   4.452   3.986   6.376 -0.1859 -0.3937  0.0064
12255TIP3    H158256   4.393   3.918   6.344  1.9980 -1.1812 -2.8299
12255TIP3    H258257   4.507   3.942   6.441 -0.3133 -0.6909 -0.0853
12256TIP3   OH258258   3.687   4.927   0.168 -0.3657 -0.5451  0.1332
12256TIP3    H158259   3.616   4.989   0.187  0.4819  0.7299 -0.6786
12256TIP3    H258260   3.682   4.861   0.237 -2.1830 -0.3486  0.2285
12257TIP3   OH258261   6.133   6.261   1.205 -0.1208 -0.3190 -0.2652
12257TIP3    H158262   6.120   6.173   1.170  1.9236 -1.2786  1.1853
12257TIP3    H258263   6.202   6.299   1.150  0.7229 -0.5796  0.5784
12258TIP3   OH258264   6.133   1.969  12.535  0.4279 -0.1680  0.1766
12258TIP3    H158265   6.040   1.949  12.545  0.0639  0.5492 -1.3740
12258TIP3    H258266   6.159   1.920  12.457  1.3111 -0.2135  0.4919
12259TIP3   OH258267   1.874   5.996  12.122 -0.3369 -0.9829 -0.4461
12259TIP3    H158268   1.800   6.036  12.076 -0.4448 -0.2142  0.3753
12259TIP3    H258269   1.844   5.988  12.213  0.5727 -0.6945 -0.1152
12260TIP3   OH258270   6.317   1.450   4.816  0.0619  0.1607  0.0474
12260TIP3    H158271   6.396   1.490   4.779  0.8242  0.1867  1.6168
12260TIP3    H258272   6.350   1.387   4.880 -1.1972  0.7583  1.3264
12261TIP3   OH258273   1.664   0.850  11.850 -0.3204  0.2700 -0.4449
12261TIP3    H158274   1.686   0.851  11.757 -1.5377 -1.8120 -0.8276
12261TIP3    H258275   1.748   0.842  11.895  0.2292  0.4797 -1.4107
12262TIP3   OH258276   5.818   2.744   0.659 -0.4085  0.1355  0.7641
12262TIP3    H158277   5.732   2.704   0.661 -0.2830 -0.1805 -0.0541
12262TIP3    H258278   5.801   2.838   0.658 -0.7782  0.0638 -0.6851
12263TIP3   OH258279   3.973   5.855   0.189 -0.9456  0.3175 -0.5548
12263TIP3    H158280   4.060   5.850   0.151 -0.8039  2.6462 -0.6464
12263TIP3    H258281   3.976   5.793   0.262  0.7967  0.3764 -0.5262
12264TIP3   OH258282   6.529   0.603   2.683  0.1545  0.1057  0.4854
12264TIP3    H158283   6.520   0.582   2.776  0.5372  1.4260  0.8552
12264TIP3    H258284   6.607   0.556   2.655  0.2217 -0.0467  0.9227
12265TIP3   OH258285   2.832   1.927   2.102  0.2705  0.2912 -0.1508
12265TIP3    H158286   2.786   1.844   2.092  0.1546  0.2634  0.5402
12265TIP3    H258287   2.834   1.942   2.197  2.1693  0.0166 -0.1051
12266TIP3   OH258288   4.430   6.184  12.592 -0.4248  0.6082  0.2137
12266TIP3    H158289   4.405   6.142  12.675 -1.4677 -2.3624 -1.4487
12266TIP3    H258290   4.500   6.128  12.558 -1.1544  0.7690 -1.6478
12267TIP3   OH258291   4.959   5.400  15.169  0.3413  0.3774 -0.1681
12267TIP3    H158292   4.864   5.409  15.166  0.2032 -0.9168 -0.1833
12267TIP3    H258293   4.980   5.401  15.262  0.3990  1.3545 -0.1824
12268TIP3   OH258294   6.509   1.962  15.696 -0.2586 -0.5501 -0.0125
12268TIP3    H158295   6.592   1.924  15.723  0.3987 -1.3493 -2.8007
12268TIP3    H258296   6.532   2.048  15.661 -0.7281 -0.3982  0.0497
12269TIP3   OH258297   3.725   2.004  11.156  0.2678  0.2378 -0.8831
12269TIP3    H158298   3.714   2.049  11.240  0.3564  0.7465 -1.1378
12269TIP3    H258299   3.647   1.948  11.148  0.0986  0.4312 -0.6122
12270TIP3   OH258300   4.996   3.940  11.735 -0.3083 -0.4807 -0.2723
12270TIP3    H158301   4.993   3.864  11.678  0.3726  0.5846 -1.7898
12270TIP3    H258302   4.919   3.992  11.711  0.0345  0.0272 -0.2877
12271TIP3   OH258303   3.741   5.503   0.300  0.4754 -0.3185  0.3234
12271TIP3    H158304   3.743   5.590   0.339 -1.2148  0.3807 -0.9997
12271TIP3    H258305   3.711   5.517   0.210 -0.7324 -2.3146  0.3401
12272TIP3   OH258306   1.572   3.341  14.915 -0.6276  0.3340 -0.1262
12272TIP3    H158307   1.662   3.330  14.945 -0.2972  0.8995 -0.8594
12272TIP3    H258308   1.570   3.430  14.878 -1.0649 -0.2157 -1.4969
12273TIP3   OH258309   2.705   1.854  16.996  0.5349  1.0013  0.3699
12273TIP3    H158310   2.796   1.852  16.966  0.2943  0.8398 -0.3584
12273TIP3    H258311   2.678   1.945  16.988  0.1307  0.7845 -0.9732
12274TIP3   OH258312   3.221   5.117  15.687 -0.2306  0.0490 -0.7227
12274TIP3    H158313   3.249   5.047  15.746  0.9866  1.0308 -0.0787
12274TIP3    H258314   3.244   5.087  15.600  3.8644  1.1231 -0.1949
12275TIP3   OH258315   5.259   3.334  13.851 -0.0589  0.0647 -0.8866
12275TIP3    H158316   5.324   3.272  13.884 -0.2377 -1.2655 -2.8476
12275TIP3    H258317   5.176   3.287  13.860 -1.1923  2.3650  3.2168
12276TIP3   OH258318   4.631   0.038  12.829 -0.1836 -0.1833 -0.1997
12276TIP3    H158319   4.564   0.050  12.896  1.6029  0.0413  1.6422
12276TIP3    H258320   4.671  -0.046  12.851  0.5562 -0.0107 -0.8640
12277TIP3   OH258321   2.120   5.451  14.815 -0.1982  0.2121 -0.0327
12277TIP3    H158322   2.195   5.401  14.783 -0.6363 -0.7360  0.3918
12277TIP3    H258323   2.129   5.451  14.910  1.3149  3.3679 -0.0678
12278TIP3   OH258324   0.189   3.944  15.081 -0.3159 -0.2393 -0.3448
12278TIP3    H158325   0.244   3.998  15.024  0.1313 -0.1262  0.1907
12278TIP3    H258326   0.121   4.003  15.112 -1.7519 -0.7573 -2.3046
12279TIP3   OH258327   2.066   3.178  14.378  0.4879  0.6951 -0.0815
12279TIP3    H158328   2.089   3.105  14.321  0.1110 -0.9028  1.7124
12279TIP3    H258329   1.975   3.199  14.354 -0.5187 -1.5454  1.4060
12280TIP3   OH258330   3.362   2.327  15.012  0.1724 -0.1213 -0.0161
12280TIP3    H158331   3.454   2.343  14.991  0.6606 -0.1693  1.8977
12280TIP3    H258332   3.354   2.232  15.016  0.0632 -0.1149 -0.0775
12281TIP3   OH258333   2.743   0.239   3.772  0.0418 -0.5344  0.0317
12281TIP3    H158334   2.754   0.313   3.712  0.0597  0.5410  1.3137
12281TIP3    H258335   2.703   0.170   3.718  2.6374 -0.6546 -1.9441
12282TIP3   OH258336   3.039   0.398  13.349 -0.3279  0.5074 -0.0997
12282TIP3    H158337   2.987   0.321  13.326  0.6568  0.4257 -2.2899
12282TIP3    H258338   3.100   0.409  13.276  1.0259  2.0996  1.1740
12283TIP3   OH258339   6.400   3.669   1.829  0.5026 -0.0327 -0.6291
12283TIP3    H158340   6.468   3.601   1.832  0.0208 -0.4937  0.2513
12283TIP3    H258341   6.424   3.730   1.898  0.0112 -0.2249 -0.2778
12284TIP3   OH258342   3.194   1.438  12.100  0.5113 -0.4564 -0.2838
12284TIP3    H158343   3.190   1.343  12.097 -0.9831 -0.4049 -1.3477
12284TIP3    H258344   3.275   1.460  12.053 -0.8687 -1.1657 -3.2738
12285TIP3   OH258345   0.557   6.002   3.040 -0.0720  0.7338 -0.2925
12285TIP3    H158346   0.588   5.930   3.095  0.3733  1.1559  0.0146
12285TIP3    H258347   0.563   6.079   3.096 -1.7285  0.8349 -0.1951
12286TIP3   OH258348   4.994   2.047  10.607 -0.4026  0.5477  0.1041
12286TIP3    H158349   4.922   2.105  10.632 -0.5871  0.1971  0.3929
12286TIP3    H258350   5.037   2.093  10.535 -0.7900  0.8584  0.0627
12287TIP3   OH258351   1.333   0.756   5.396  0.3806  0.0306  0.0938
12287TIP3    H158352   1.422   0.776   5.422  0.3294 -0.5207  0.6992
12287TIP3    H258353   1.332   0.773   5.301  1.3272 -0.6712 -0.0561
12288TIP3   OH258354   3.200   2.995   1.356 -0.1790 -0.4649  0.1378
12288TIP3    H158355   3.215   3.037   1.441 -1.0581 -1.1605  0.6522
12288TIP3    H258356   3.108   2.968   1.358  0.2549 -2.0998 -0.3030
12289TIP3   OH258357   2.395   1.049   6.272 -0.0847  0.3559  0.1332
12289TIP3    H158358   2.328   1.055   6.340 -1.4258  0.7029 -1.1685
12289TIP3    H258359   2.363   0.981   6.212  1.4723 -0.5300  0.2510
12290TIP3   OH258360   3.069   6.277   5.742  0.0556 -0.4442  0.1463
12290TIP3    H158361   3.162   6.280   5.722  0.5971  0.8605  2.4109
12290TIP3    H258362   3.064   6.231   5.826 -1.5509 -1.9080 -0.6824
12291TIP3   OH258363   2.125   6.295   5.352 -0.2450 -0.0979  0.2671
12291TIP3    H158364   2.154   6.376   5.312 -1.1554 -0.0743 -0.3946
12291TIP3    H258365   2.205   6.244   5.366  0.3669  1.0462  1.0316
12292TIP3   OH258366   3.057   6.068   2.377  0.3043  0.1041 -0.0050
12292TIP3    H158367   3.081   6.140   2.319 -1.0489  2.4518  2.0955
12292TIP3    H258368   3.124   6.069   2.445  0.5639 -0.9885 -0.2369
12293TIP3   OH258369   1.633   6.018  10.937 -0.4943  0.5261  0.3757
12293TIP3    H158370   1.687   5.962  10.882 -1.7181 -0.9661  0.6288
12293TIP3    H258371   1.622   5.969  11.019 -1.9542  0.8944  0.4384
12294TIP3   OH258372   1.815   6.318  12.617 -0.5335 -0.1173 -0.0162
12294TIP3    H158373   1.798   6.296  12.709  2.2757  0.1073  0.6405
12294TIP3    H258374   1.866   6.399  12.620  0.0243 -0.3495 -1.7433
12295TIP3   OH258375   0.428   0.711  15.959  0.5191 -0.1181  0.6091
12295TIP3    H158376   0.504   0.669  15.999  1.3580  0.7679 -0.0045
12295TIP3    H258377   0.354   0.654  15.980  1.8665 -3.1150 -2.0114
12296TIP3   OH258378   6.315   0.270   4.717 -0.1151  0.0684 -0.4816
12296TIP3    H158379   6.267   0.271   4.800  0.9350  0.0375  0.1492
12296TIP3    H258380   6.330   0.363   4.698  1.0502  0.0429  0.2259
12297TIP3   OH258381   5.817   5.710  15.948 -0.2499  0.2187 -0.5217
12297TIP3    H158382   5.847   5.670  15.867  0.7761 -0.2716  0.0879
12297TIP3    H258383   5.884   5.775  15.970 -0.5488  0.3933 -0.0893
12298TIP3   OH258384   5.705   0.504  13.455  0.4448 -0.2329 -0.2681
12298TIP3    H158385   5.617   0.524  13.422 -0.0889  1.5577  1.9801
12298TIP3    H258386   5.762   0.564  13.407  0.1673 -0.0564 -0.3792
12299TIP3   OH258387   2.453   1.842  12.578 -0.1159  0.1964 -0.0504
12299TIP3    H158388   2.542   1.865  12.551  0.2726 -1.1950 -0.0112
12299TIP3    H258389   2.397   1.895  12.522  0.7248  1.4306  0.2278
12300TIP3   OH258390   6.443   6.379   1.088 -0.0262 -0.4581 -0.0293
12300TIP3    H158391   6.524   6.329   1.093 -1.3358 -2.7555 -0.6814
12300TIP3    H258392   6.410   6.364   0.999 -0.7097  1.2297 -0.1056
12301TIP3   OH258393   0.698   6.835  12.206 -0.5136 -0.3333 -0.3429
12301TIP3    H158394   0.741   6.749  12.202 -0.6749 -0.5846  1.9649
12301TIP3    H258395   0.763   6.895  12.170 -0.3655 -1.3667 -1.9270
12302TIP3   OH258396   3.044   6.629  11.112  0.1567  0.0694  0.2959
12302TIP3    H158397   3.137   6.609  11.108  0.1808  0.3590 -1.4877
12302TIP3    H258398   3.040   6.724  11.123  0.0711  0.1143 -0.1275
12303TIP3   OH258399   5.435   5.686  12.515  0.5128 -0.4480  0.0808
12303TIP3    H158400   5.421   5.595  12.490 -1.1875  0.1129 -1.1851
12303TIP3    H258401   5.433   5.686  12.611 -0.0514 -1.6609  0.0803
12304TIP3   OH258402   0.111   1.570  12.472 -0.1438 -0.6741 -0.1028
12304TIP3    H158403   0.131   1.477  12.485 -1.2812 -0.8118  0.7655
12304TIP3    H258404   0.017   1.578  12.489 -0.1222  0.5917 -0.4428
12305TIP3   OH258405   3.587   5.788   4.237 -0.4292 -0.0645 -0.1903
12305TIP3    H158406   3.566   5.860   4.178 -0.5317 -0.3313 -0.4843
12305TIP3    H258407   3.532   5.802   4.313 -0.0455  0.4777 -0.0028
12306TIP3   OH258408   5.481   3.149   5.342  0.5904 -0.4588 -0.0361
12306TIP3    H158409   5.471   3.220   5.279 -1.6173 -0.1326  0.6030
12306TIP3    H258410   5.415   3.084   5.315  0.0452 -0.5917  1.5303
12307TIP3   OH258411   1.426   5.656  16.518  0.1787 -0.0051 -0.0187
12307TIP3    H158412   1.427   5.561  16.531 -0.8596  0.2423  2.3206
12307TIP3    H258413   1.357   5.670  16.453  0.4516 -0.8421 -0.5090
12308TIP3   OH258414   2.762   5.737  14.054  0.3411 -0.2179 -0.3753
12308TIP3    H158415   2.831   5.800  14.034  2.0181 -1.2644  1.6973
12308TIP3    H258416   2.769   5.670  13.986  1.9807 -0.7355  0.2654
12309TIP3   OH258417   2.351   3.012  16.665  0.1436 -0.0606  0.4780
12309TIP3    H158418   2.329   2.948  16.732  1.5869 -0.9793  0.1192
12309TIP3    H258419   2.419   2.970  16.612 -0.9377  0.6203 -1.5904
12310TIP3   OH258420   1.414   6.283  15.187 -0.3611 -0.2019 -0.2600
12310TIP3    H158421   1.498   6.322  15.162 -0.9821  1.3656 -0.0022
12310TIP3    H258422   1.374   6.347  15.246 -1.4230 -1.2589  0.2162
12311TIP3   OH258423   0.521   0.708   2.913 -0.2919 -0.0877 -0.0749
12311TIP3    H158424   0.579   0.661   2.853 -1.0674 -1.8036  0.4598
12311TIP3    H258425   0.433   0.690   2.879 -0.7025 -0.5855  1.1929
12312TIP3   OH258426   5.935   5.518   2.419  0.2668  0.0041 -0.6199
12312TIP3    H158427   5.899   5.480   2.339 -1.0638 -2.3686  0.9941
12312TIP3    H258428   5.863   5.566   2.458  0.2119 -0.7147  0.2140
12313TIP3   OH258429   5.909   5.177  14.986  0.2759  0.3086  0.3605
12313TIP3    H158430   5.831   5.123  14.998  0.4114  0.3536  1.4919
12313TIP3    H258431   5.911   5.194  14.892 -1.4406  0.8380  0.3793
12314TIP3   OH258432   5.291   2.329  13.719 -0.0113 -0.0532  0.2687
12314TIP3    H158433   5.304   2.245  13.676 -0.8200 -0.8105  1.4360
12314TIP3    H258434   5.271   2.306  13.810  1.0960  1.4594  0.9292
12315TIP3   OH258435   6.020   5.322  15.512 -0.3579 -0.6579 -0.3373
12315TIP3    H158436   6.061   5.307  15.426  1.7907 -1.1396  0.7171
12315TIP3    H258437   5.927   5.302  15.497  0.1538 -1.9203 -2.2566
12316TIP3   OH258438   4.767   5.886  13.560 -0.2704  0.2251 -0.4328
12316TIP3    H158439   4.675   5.871  13.581 -0.9184  0.3776 -2.8667
12316TIP3    H258440   4.785   5.975  13.592 -0.5973 -0.2409  1.1022
12317TIP3   OH258441   6.699   5.500  16.471 -0.8681 -0.4299 -0.0522
12317TIP3    H158442   6.690   5.585  16.514 -0.3974 -0.8434  0.8955
12317TIP3    H258443   6.710   5.521  16.378  3.0799  0.8388  0.4851
12318TIP3   OH258444   5.708   2.551   5.393  0.0322  0.7425 -0.1987
12318TIP3    H158445   5.717   2.614   5.465 -0.8421  1.3180 -0.5671
12318TIP3    H258446   5.688   2.468   5.437 -0.3924  1.0660  0.2363
12319TIP3   OH258447   5.052   5.615   4.013  0.0623 -0.3277  0.0120
12319TIP3    H158448   4.992   5.681   4.048  0.0782 -1.1102  1.6154
12319TIP3    H258449   5.133   5.663   3.995 -0.4371  0.3798 -0.3637
12320TIP3   OH258450   3.025   5.403   5.671 -0.5833 -0.1766 -0.3101
12320TIP3    H158451   3.077   5.366   5.742 -0.5556  0.8942  0.2596
12320TIP3    H258452   3.088   5.418   5.600 -0.2420  0.4199  0.1053
12321TIP3   OH258453   3.797   2.668   5.111 -0.1253  0.4041 -0.3891
12321TIP3    H158454   3.833   2.604   5.050 -0.4882  0.1524 -0.3351
12321TIP3    H258455   3.819   2.753   5.072  0.4573  0.2525 -0.3989
12322TIP3   OH258456   2.104   1.945  16.730  0.1311  0.0521  0.1255
12322TIP3    H158457   2.166   1.896  16.676  0.2887 -0.1103  0.4545
12322TIP3    H258458   2.101   2.032  16.689  0.1578 -0.1049 -0.2164
12323TIP3   OH258459   4.055   5.290  15.855 -0.3612 -0.4994 -0.3197
12323TIP3    H158460   4.062   5.377  15.816 -1.9703 -0.4076 -0.4861
12323TIP3    H258461   4.118   5.291  15.927 -0.8548  1.0720  0.1307
12324TIP3   OH258462   5.468   5.389   2.366  0.1059  0.0862  0.2528
12324TIP3    H158463   5.471   5.366   2.459 -1.0517 -0.7593  0.1027
12324TIP3    H258464   5.444   5.482   2.366  0.0327  0.0728  0.8086
12325TIP3   OH258465   2.429   6.647   0.755 -0.0067 -0.4279 -0.3974
12325TIP3    H158466   2.417   6.569   0.809  2.6093 -0.3902  0.3490
12325TIP3    H258467   2.458   6.714   0.817 -0.3672  0.6325 -1.3334
12326TIP3   OH258468   0.052   5.116   5.002  0.5565  0.6937 -0.2507
12326TIP3    H158469   0.064   5.208   5.022  0.0788  0.8877 -0.8145
12326TIP3    H258470   0.138   5.076   5.017  1.0659  1.4435 -1.0728
12327TIP3   OH258471   5.074   1.888   4.966 -0.2895 -0.4730 -0.8637
12327TIP3    H158472   5.152   1.836   4.985 -1.4670 -2.0456 -0.1165
12327TIP3    H258473   5.088   1.971   5.012  0.1224 -1.4638  0.8852
12328TIP3   OH258474   6.614   0.039  12.354 -0.2599  0.3680 -0.5196
12328TIP3    H158475   6.519   0.034  12.366  0.0206 -0.0159  2.0042
12328TIP3    H258476   6.631   0.133  12.340 -0.8386  0.7234  1.0059
12329TIP3   OH258477   6.778   6.554  13.652  0.2766 -0.3116  0.1259
12329TIP3    H158478   6.708   6.619  13.644  0.4364 -0.2473 -0.8543
12329TIP3    H258479   6.832   6.586  13.724 -0.2123  0.1000  0.3157
12330TIP3   OH258480   2.335   6.715  15.033 -0.0389  0.2359  0.1043
12330TIP3    H158481   2.335   6.619  15.027 -2.8109  0.1423  0.4500
12330TIP3    H258482   2.422   6.736  15.068  0.0941 -2.2594  1.5387
12331TIP3   OH258483   5.736   2.898   2.522 -0.5545  0.2539 -0.0334
12331TIP3    H158484   5.728   2.844   2.600  1.9917  0.9031  0.7518
12331TIP3    H258485   5.684   2.853   2.456  0.3104 -2.3872  0.9845
12332TIP3   OH258486   5.521   0.380   5.434 -0.6590 -0.4006 -0.0532
12332TIP3    H158487   5.561   0.299   5.401 -0.8631 -0.0147 -1.2919
12332TIP3    H258488   5.442   0.392   5.381 -0.5208  0.7167 -0.0397
12333TIP3   OH258489   6.548   1.892  16.092  0.6246  0.2068 -0.0800
12333TIP3    H158490   6.584   1.977  16.117  0.3087 -0.1647  1.8124
12333TIP3    H258491   6.499   1.910  16.011  2.0755  1.4166 -0.7339
12334TIP3   OH258492   3.960   1.470  12.385 -0.2235 -0.0041 -0.1560
12334TIP3    H158493   3.993   1.546  12.338 -0.5756 -0.1199 -0.6022
12334TIP3    H258494   3.877   1.450  12.342  1.7868 -3.2773 -3.0148
12335TIP3   OH258495   3.180   4.402   1.390 -0.2628  0.2686  0.4517
12335TIP3    H158496   3.251   4.379   1.451 -0.1007 -0.4390  0.0071
12335TIP3    H258497   3.224   4.435   1.313 -0.4851  1.6220  0.8855
12336TIP3   OH258498   4.138   1.242  12.556 -0.0158  0.0312 -0.1027
12336TIP3    H158499   4.215   1.207  12.511 -0.6013  0.3279 -1.3912
12336TIP3    H258500   4.135   1.334  12.529 -0.7101  0.0701  0.0981
12337TIP3   OH258501   5.494   3.213  10.768 -0.2537 -0.2785 -0.1792
12337TIP3    H158502   5.473   3.293  10.815 -0.1723  0.6595 -1.6792
12337TIP3    H258503   5.436   3.147  10.807 -2.4726  1.1434 -0.8473
12338TIP3   OH258504   0.163   1.190   0.035  0.7885  0.2913 -0.2942
12338TIP3    H158505   0.247   1.183  -0.009  1.1210  0.6506  0.2668
12338TIP3    H258506   0.165   1.120   0.101  0.5422  0.1376 -0.4489
12339TIP3   OH258507   0.409   2.350  15.846 -0.5604 -0.3300 -0.8087
12339TIP3    H158508   0.345   2.335  15.916  0.3551  2.2250  0.7007
12339TIP3    H258509   0.395   2.441  15.819  0.9730 -0.4033 -2.0189
12340TIP3   OH258510   0.101   6.324   0.600  0.7302  0.1105 -0.7035
12340TIP3    H158511   0.156   6.310   0.677  0.2322  1.7381 -0.0245
12340TIP3    H258512   0.129   6.408   0.564 -1.6401  1.3039  0.0076
12341TIP3   OH258513   1.938   1.798  11.072 -0.6731 -0.1272  0.7344
12341TIP3    H158514   2.020   1.749  11.066 -0.8722 -0.5956  1.7161
12341TIP3    H258515   1.966   1.890  11.078 -0.1374 -0.3541  2.3237
12342TIP3   OH258516   5.007   4.271   1.151 -0.9809 -0.5241  0.5535
12342TIP3    H158517   5.067   4.205   1.185  0.0860  0.1025 -0.0631
12342TIP3    H258518   4.923   4.250   1.192 -0.5829 -2.0074  0.6875
12343TIP3   OH258519   6.502   4.203   2.371  0.6207  0.4631  1.0512
12343TIP3    H158520   6.515   4.109   2.355 -0.9262  0.0389  2.1277
12343TIP3    H258521   6.479   4.209   2.463 -3.0075  1.4241  0.2568
12344TIP3   OH258522   3.761   2.784  12.793 -0.5244 -0.4553  0.2127
12344TIP3    H158523   3.780   2.812  12.882 -0.2790  0.4629 -0.1182
12344TIP3    H258524   3.838   2.809  12.742 -1.4834  0.8924 -0.6364
12345TIP3   OH258525   5.694   4.185   5.564  0.1581 -0.0193  0.2817
12345TIP3    H158526   5.717   4.272   5.597 -0.5087  0.0146  0.6644
12345TIP3    H258527   5.599   4.188   5.551  0.3328 -0.1672 -1.2556
12346TIP3   OH258528   4.536   0.708  10.785  0.2405  0.0441  0.1352
12346TIP3    H158529   4.615   0.665  10.750  0.1825 -1.0745  1.3027
12346TIP3    H258530   4.554   0.802  10.776  1.6371 -0.1919  0.2298
12347TIP3   OH258531   5.535   0.105   3.408  0.2671  0.4778 -0.2273
12347TIP3    H158532   5.558   0.194   3.435  2.6627  0.1139 -0.8678
12347TIP3    H258533   5.589   0.088   3.331 -0.4689 -1.3904 -0.3892
12348TIP3   OH258534   5.926   2.283  12.447 -0.1117  0.9552 -0.6291
12348TIP3    H158535   5.874   2.357  12.480 -2.0735  0.3722 -2.1610
12348TIP3    H258536   5.884   2.206  12.486  1.4591  0.5710  0.3744
12349TIP3   OH258537   1.426   2.241   0.172 -0.3853 -0.7604 -0.1834
12349TIP3    H158538   1.354   2.204   0.122 -0.3238  1.4143 -2.0322
12349TIP3    H258539   1.468   2.165   0.213 -2.7153 -2.2433 -0.3363
12350TIP3   OH258540   6.714   2.696  15.140  0.1274 -0.0143 -0.4637
12350TIP3    H158541   6.771   2.661  15.208  0.8572 -0.2408 -1.1728
12350TIP3    H258542   6.650   2.750  15.187  1.5188  1.0620  0.2801
12351TIP3   OH258543   1.912   5.780   5.575 -0.0821  0.1179  0.6205
12351TIP3    H158544   1.955   5.853   5.530 -1.4644  0.9155  0.5286
12351TIP3    H258545   1.831   5.767   5.526  0.7697 -2.4723 -0.2662
12352TIP3   OH258546   5.780   0.211  12.234  0.0615 -0.2006  0.1125
12352TIP3    H158547   5.732   0.270  12.292  0.0023 -0.2539  0.1182
12352TIP3    H258548   5.729   0.130  12.235  0.1481 -0.2550  0.1133
12353TIP3   OH258549   1.775   0.776   5.304  0.8224  0.0449 -0.0705
12353TIP3    H158550   1.860   0.818   5.294  0.7032  0.5466  0.9000
12353TIP3    H258551   1.776   0.703   5.242  1.3293  1.0177 -1.2231
12354TIP3   OH258552   5.051   5.162  14.257 -0.6289 -0.0587 -0.0132
12354TIP3    H158553   5.090   5.169  14.344  1.2348 -1.1245 -0.7105
12354TIP3    H258554   5.040   5.253  14.228 -1.0924  0.3009  1.2383
12355TIP3   OH258555   2.157   5.183  16.709 -0.0697 -0.2487  0.3870
12355TIP3    H158556   2.128   5.263  16.666  0.6735 -0.8083 -1.2472
12355TIP3    H258557   2.085   5.121  16.695  1.8434 -1.9017 -4.4057
12356TIP3   OH258558   2.872   0.337  15.923  0.1605 -0.6251  0.1958
12356TIP3    H158559   2.923   0.418  15.926 -0.3841 -0.0909 -2.5377
12356TIP3    H258560   2.932   0.270  15.956  1.2930  0.5666  0.6535
12357TIP3   OH258561   2.311   1.642   6.088  0.0301 -0.2810  0.1818
12357TIP3    H158562   2.232   1.659   6.139  0.1149  1.3511 -0.1725
12357TIP3    H258563   2.378   1.699   6.128  0.4355  0.0380 -0.9007
12358TIP3   OH258564   5.567   0.567  16.541 -0.3683 -0.2667 -0.1486
12358TIP3    H158565   5.615   0.632  16.592 -0.1398  0.3370 -1.1015
12358TIP3    H258566   5.489   0.613  16.509 -0.4082 -0.5728 -0.5093
12359TIP3   OH258567   1.502   0.716   6.812 -0.0129 -0.3968 -0.0858
12359TIP3    H158568   1.579   0.662   6.830 -1.1591 -1.3822  2.2693
12359TIP3    H258569   1.537   0.801   6.787  1.8209 -1.0732  0.0775
12360TIP3   OH258570   0.203   5.829   2.096  0.3037 -0.0192  0.0473
12360TIP3    H158571   0.177   5.846   2.186 -0.9486  2.2002 -0.6413
12360TIP3    H258572   0.286   5.876   2.085 -0.0519  0.5650 -0.2020
12361TIP3   OH258573   6.314   5.940   1.018  0.1040 -0.2840  0.3336
12361TIP3    H158574   6.298   6.023   0.975 -0.2914 -0.4162  0.2249
12361TIP3    H258575   6.231   5.917   1.059  0.8254  0.5468  2.4137
12362TIP3   OH258576   0.793   5.677   0.503  0.4473  0.2393  0.0938
12362TIP3    H158577   0.709   5.704   0.464 -1.0704 -1.5071  1.9517
12362TIP3    H258578   0.769   5.616   0.572  3.3315 -0.7590  0.3414
12363TIP3   OH258579   1.326   0.551  13.562  0.5471  0.0855 -0.1513
12363TIP3    H158580   1.288   0.604  13.492  1.0359 -0.2555 -0.6894
12363TIP3    H258581   1.417   0.580  13.568  0.1720  1.0779  1.3074
12364TIP3   OH258582   6.766   1.625  14.294 -0.2298 -0.1437  0.0519
12364TIP3    H158583   6.692   1.597  14.240  0.1470  0.1723 -0.6499
12364TIP3    H258584   6.840   1.574  14.261 -0.0608 -0.1999  0.5100
12365TIP3   OH258585   3.972   4.899   0.201 -0.5263 -0.5452 -0.0782
12365TIP3    H158586   4.009   4.868   0.283 -0.9748  0.3853  0.4851
12365TIP3    H258587   3.892   4.847   0.189 -0.3379 -0.8426 -0.0546
12366TIP3   OH258588   0.839   5.610   0.882 -0.5282  0.0199  0.0169
12366TIP3    H158589   0.776   5.583   0.816 -0.0642 -2.1979  0.4177
12366TIP3    H258590   0.920   5.625   0.834 -0.0396 -2.1344  0.0888
12367TIP3   OH258591   2.760   2.045  15.280 -0.0388 -0.1856 -0.3358
12367TIP3    H158592   2.708   2.021  15.204  0.2577 -0.5169 -0.4381
12367TIP3    H258593   2.846   2.070  15.245 -0.3396  1.0471 -0.2261
12368TIP3   OH258594   0.241   1.809  13.873 -0.4326  0.1327 -0.1198
12368TIP3    H158595   0.322   1.842  13.912 -2.2351  5.3808 -0.0453
12368TIP3    H258596   0.188   1.781  13.948 -0.4206  1.2393  0.3116
12369TIP3   OH258597   2.054   0.983   6.061 -0.2633  0.0906  0.2610
12369TIP3    H158598   2.056   1.077   6.080  1.0028  0.1535 -0.0504
12369TIP3    H258599   1.988   0.948   6.120  0.4833  0.9331  1.6636
12370TIP3   OH258600   6.453   6.255  13.995  0.0917  0.6212  0.2647
12370TIP3    H158601   6.422   6.345  13.996 -2.5655 -0.2243  0.7146
12370TIP3    H258602   6.479   6.238  14.086  1.2233  1.0929  0.0467
12371TIP3   OH258603   4.870   2.404   2.957 -0.2803 -0.2578  0.5225
12371TIP3    H158604   4.882   2.426   3.050 -1.0145  1.1818  0.3093
12371TIP3    H258605   4.796   2.344   2.956 -1.7358  1.4612  0.7225
12372TIP3   OH258606   5.708   0.754   2.738 -0.0312 -0.4407 -0.1149
12372TIP3    H158607   5.639   0.797   2.789 -0.6877 -1.3153 -0.2493
12372TIP3    H258608   5.679   0.663   2.730  0.9160 -0.7127 -0.5723
12373TIP3   OH258609   4.180   5.679  17.035 -0.6063 -0.1494 -0.3810
12373TIP3    H158610   4.252   5.738  17.014 -0.9320 -0.1376 -1.5871
12373TIP3    H258611   4.162   5.694  17.127  1.2592 -0.5243  0.0837
12374TIP3   OH258612   0.326   1.829   5.131 -0.0250  0.1831  0.1993
12374TIP3    H158613   0.313   1.772   5.056 -0.6930  1.2115 -0.4839
12374TIP3    H258614   0.398   1.887   5.106  1.1236 -0.7541  1.1574
12375TIP3   OH258615   1.246   6.645   4.042  0.1940 -0.0768  0.3294
12375TIP3    H158616   1.295   6.659   3.960  0.1247 -0.1902  0.2693
12375TIP3    H258617   1.279   6.713   4.101  1.9673 -1.4501  1.0006
12376TIP3   OH258618   1.558   5.116  15.489 -0.6284  0.6506  0.0976
12376TIP3    H158619   1.621   5.118  15.418 -0.6929 -0.3300 -0.0084
12376TIP3    H258620   1.607   5.082  15.564 -0.6613  1.2958  0.4134
12377TIP3   OH258621   4.318   3.988  12.275  0.5470 -0.2644  0.1596
12377TIP3    H158622   4.241   3.976  12.220 -0.6092  0.4085  1.5551
12377TIP3    H258623   4.372   3.911  12.259  0.4690  0.1171 -2.1936
12378TIP3   OH258624   3.757   4.877   3.568  0.3237  0.0358  0.0407
12378TIP3    H158625   3.693   4.935   3.528  0.1144  0.2589  0.6832
12378TIP3    H258626   3.834   4.933   3.583  0.1550  0.1392  0.5732
12379TIP3   OH258627   3.311   6.640   1.503  0.1558  0.1426 -0.7293
12379TIP3    H158628   3.286   6.716   1.555  0.5526 -0.2793  0.1148
12379TIP3    H258629   3.232   6.616   1.454 -0.2594  0.4932 -0.2335
12380TIP3   OH258630   5.632   6.512  14.047 -0.2018 -0.2263  0.4932
12380TIP3    H158631   5.679   6.493  14.128 -0.6256  1.9216  1.2922
12380TIP3    H258632   5.683   6.581  14.005 -1.0784  0.1050 -0.0621
12381TIP3   OH258633   3.725   1.240   2.093  0.2500 -0.0782  0.1740
12381TIP3    H158634   3.807   1.205   2.128  0.2957 -0.2043 -0.0541
12381TIP3    H258635   3.753   1.302   2.025  0.1527 -2.2625 -1.9919
12382TIP3   OH258636   0.738   0.336  17.052  0.9114 -0.2741  0.0100
12382TIP3    H158637   0.780   0.375  17.129 -0.5883 -0.0286  0.7258
12382TIP3    H258638   0.779   0.381  16.978  0.2119  1.7259  0.7701
12383TIP3   OH258639   1.643   0.759   0.953 -0.4823 -0.2476 -0.5075
12383TIP3    H158640   1.700   0.727   0.883 -0.7351  0.2560 -0.9537
12383TIP3    H258641   1.661   0.853   0.957 -1.4545 -0.0423 -0.8211
12384TIP3   OH258642   1.572   4.794  14.758  0.6016 -0.0616  0.0817
12384TIP3    H158643   1.488   4.752  14.741  0.2445  1.2545 -1.7871
12384TIP3    H258644   1.565   4.829  14.846 -0.5682 -0.5161  0.1785
12385TIP3   OH258645   4.117   6.244  10.845 -0.0514 -0.2522 -0.5558
12385TIP3    H158646   4.062   6.321  10.827 -1.5279 -1.0343  0.4389
12385TIP3    H258647   4.169   6.233  10.765  0.2868  1.8171 -0.6814
12386TIP3   OH258648   3.095   4.915  14.864 -0.7086  0.2707  0.2875
12386TIP3    H158649   3.087   4.832  14.910 -0.6405 -0.5027 -1.0491
12386TIP3    H258650   3.025   4.970  14.901 -1.2621 -0.6475  0.6322
12387TIP3   OH258651   4.280   0.965   5.656  0.2135 -0.9452 -0.0453
12387TIP3    H158652   4.198   0.997   5.692 -0.2075 -0.1976 -1.5832
12387TIP3    H258653   4.278   0.991   5.564  2.5275 -0.1953  0.0347
12388TIP3   OH258654   0.726   5.868  14.633  1.2088 -0.0732  0.6326
12388TIP3    H158655   0.818   5.839  14.630  0.5664 -2.1472 -0.5774
12388TIP3    H258656   0.685   5.825  14.559 -0.2275  2.8769 -0.4389
12389TIP3   OH258657   3.270   1.689   1.300  0.0196  0.1722 -0.1026
12389TIP3    H158658   3.357   1.668   1.267  0.6531  1.1874  0.8491
12389TIP3    H258659   3.231   1.745   1.232  0.9806  1.5356  0.4174
12390TIP3   OH258660   5.229   4.400   5.635 -0.2444 -0.1327 -0.3311
12390TIP3    H158661   5.220   4.443   5.720 -1.4669 -1.3430  0.1846
12390TIP3    H258662   5.179   4.319   5.644 -0.7374 -0.0965 -2.3413
12391TIP3   OH258663   5.100   2.124   0.171  0.3308  0.6140 -0.2179
12391TIP3    H158664   5.012   2.107   0.138  0.9056 -3.0871 -0.3064
12391TIP3    H258665   5.154   2.130   0.092  0.3919  1.4437 -0.1230
12392TIP3   OH258666   1.360   3.907  16.062 -0.3237 -0.7111 -0.3541
12392TIP3    H158667   1.281   3.942  16.020  0.3315  2.0242  0.4532
12392TIP3    H258668   1.346   3.922  16.155  1.5344  0.9146 -0.2665
12393TIP3   OH258669   2.880   6.817   1.785 -0.3218  0.2834 -0.2437
12393TIP3    H158670   2.964   6.848   1.752 -0.9055  2.3466  0.0647
12393TIP3    H258671   2.902   6.747   1.846  1.1750  0.7285 -0.2363
12394TIP3   OH258672   2.527   2.638  13.993 -0.0314  0.3004 -0.4767
12394TIP3    H158673   2.536   2.716  13.937 -2.1914  0.7107 -0.3477
12394TIP3    H258674   2.593   2.651  14.062 -1.5021  3.0003  0.5944
12395TIP3   OH258675   1.918   0.645   2.026  0.1084  0.2121  0.2878
12395TIP3    H158676   2.010   0.642   2.052 -0.0202  1.4426  0.9743
12395TIP3    H258677   1.874   0.690   2.098 -0.7771  0.9525 -0.6793
12396TIP3   OH258678   4.124   4.396   0.683 -0.3495 -0.0886 -0.3406
12396TIP3    H158679   4.204   4.351   0.709  0.1899  0.6229 -0.7269
12396TIP3    H258680   4.054   4.331   0.696  0.2690 -0.6764  0.1045
12397TIP3   OH258681   3.474   1.061   0.020 -0.2553  0.0790 -0.2772
12397TIP3    H158682   3.382   1.072   0.043 -1.2205 -2.2738 -2.5763
12397TIP3    H258683   3.512   1.011   0.092 -0.9822  0.2951  0.2631
12398TIP3   OH258684   1.393   1.604  15.974  0.2949 -0.0955  0.8768
12398TIP3    H158685   1.329   1.545  15.934  1.0254 -0.2798 -0.0680
12398TIP3    H258686   1.345   1.685  15.989  0.7962  1.5098 -4.2254
12399TIP3   OH258687   0.784   4.749  16.494  0.1218 -0.3989  0.3172
12399TIP3    H158688   0.876   4.745  16.520 -0.2962  0.0969  1.9243
12399TIP3    H258689   0.780   4.824  16.435  1.1836 -1.8955 -1.8362
12400TIP3   OH258690   2.257   1.665   2.047  0.7503  1.0263 -1.1972
12400TIP3    H158691   2.281   1.748   2.007  1.9081  1.4389  0.2642
12400TIP3    H258692   2.323   1.651   2.115 -0.0892 -0.5228 -0.6510
12401TIP3   OH258693   5.614   1.992  11.340 -0.5706  0.2602 -0.0475
12401TIP3    H158694   5.660   1.966  11.260 -0.4570  1.3329 -0.3520
12401TIP3    H258695   5.543   1.929  11.349 -0.8786  0.4098 -1.2754
12402TIP3   OH258696   5.236   5.196   4.814 -0.0651 -0.7009  0.6290
12402TIP3    H158697   5.293   5.170   4.742  0.7640 -1.1517  1.4237
12402TIP3    H258698   5.269   5.147   4.890 -2.0252 -1.6450  0.9439
12403TIP3   OH258699   5.849   3.153  12.998 -0.3207 -0.8914  0.5553
12403TIP3    H158700   5.793   3.091  13.045  0.4416 -1.7723  0.3387
12403TIP3    H258701   5.907   3.188  13.064 -1.0190 -0.0783  0.7553
12404TIP3   OH258702   6.434   1.901   5.271 -0.6906  0.1932 -0.5893
12404TIP3    H158703   6.370   1.915   5.340 -2.5113 -0.8703 -1.9494
12404TIP3    H258704   6.409   1.962   5.202  0.0634  0.0742 -0.9830
12405TIP3   OH258705   4.344   6.835  12.657  0.2193 -0.6996 -0.1765
12405TIP3    H158706   4.259   6.808  12.621 -0.3747 -0.4556  1.0007
12405TIP3    H258707   4.356   6.780  12.734  1.5488 -1.3210 -0.8033
12406TIP3   OH258708   4.034   5.243  12.298 -0.1478 -0.1811  1.1182
12406TIP3    H158709   4.003   5.215  12.384 -2.6207  1.4717  0.8604
12406TIP3    H258710   3.956   5.245  12.243  1.1628  0.0181 -0.8593
12407TIP3   OH258711   3.453   6.725  13.836  0.4245 -0.0339  0.8505
12407TIP3    H158712   3.394   6.666  13.790  0.1308  1.2912 -0.5493
12407TIP3    H258713   3.413   6.736  13.922 -0.3770 -0.5792  0.5629
12408TIP3   OH258714   1.784   3.056   2.227  0.2986  0.6481  0.7935
12408TIP3    H158715   1.778   2.976   2.174 -0.1815 -0.1413  2.0143
12408TIP3    H258716   1.858   3.103   2.190  0.6811 -0.4317  0.1441
12409TIP3   OH258717   6.377   3.380  16.752  0.1019 -0.3617  0.4508
12409TIP3    H158718   6.314   3.452  16.760  2.5193  1.8485  0.9410
12409TIP3    H258719   6.459   3.417  16.786  1.7503 -2.9893 -0.4367
12410TIP3   OH258720   3.367   5.988  16.583  0.0413 -0.1276  0.0824
12410TIP3    H158721   3.399   5.912  16.535  0.7770 -0.6091  1.2914
12410TIP3    H258722   3.305   6.030  16.523 -0.4101 -1.6938 -0.6032
12411TIP3   OH258723   6.013   3.150  13.501 -0.3846 -0.1685 -0.2848
12411TIP3    H158724   5.998   3.128  13.594  1.9466  0.2604  0.2609
12411TIP3    H258725   6.028   3.244  13.501 -4.2646  0.6354 -1.7663
12412TIP3   OH258726   4.224   4.130   6.192 -0.3640  0.1430 -0.2385
12412TIP3    H158727   4.302   4.092   6.232  0.1707  1.6254  0.2194
12412TIP3    H258728   4.151   4.087   6.235  0.1786 -1.6508 -1.0383
12413TIP3   OH258729   4.659   0.135   6.332  0.0814 -0.2960 -0.1456
12413TIP3    H158730   4.627   0.053   6.369  0.4189 -1.1805 -1.7150
12413TIP3    H258731   4.732   0.160   6.388  0.3725 -1.3994 -0.0063
12414TIP3   OH258732   2.550   2.441  12.283  0.5190  0.2394 -0.6602
12414TIP3    H158733   2.600   2.486  12.351 -0.8079  1.6881 -0.6016
12414TIP3    H258734   2.617   2.404  12.225  1.6958  2.4798 -0.8261
12415TIP3   OH258735   1.284   0.604   4.754  0.5481 -0.0830  0.1181
12415TIP3    H158736   1.268   0.636   4.843  1.0314 -1.3488  0.6969
12415TIP3    H258737   1.223   0.530   4.745  0.2197  0.2871 -0.7582
12416TIP3   OH258738   5.339   3.512   2.669  0.6594  0.2022  0.1359
12416TIP3    H158739   5.330   3.430   2.717 -1.3901  0.8174  0.8952
12416TIP3    H258740   5.338   3.487   2.577 -1.4556 -0.5569  0.3145
12417TIP3   OH258741   1.452   4.394   0.945 -0.0006 -0.3598  0.4535
12417TIP3    H158742   1.537   4.423   0.980 -0.5876  0.9513  0.8840
12417TIP3    H258743   1.461   4.403   0.850  0.0459  0.6708  0.5470
12418TIP3   OH258744   2.747   1.361   4.229  0.2199 -0.0821  0.3700
12418TIP3    H158745   2.832   1.400   4.250  1.1682 -0.7613 -1.8242
12418TIP3    H258746   2.767   1.268   4.216 -1.4758 -0.8595  2.7744
12419TIP3   OH258747   3.077   0.669   0.792 -0.1416 -0.1200  0.1891
12419TIP3    H158748   3.068   0.579   0.759  0.6795  0.0584 -0.5606
12419TIP3    H258749   3.163   0.697   0.761 -0.4930  1.0163  0.2011
12420TIP3   OH258750   3.870   3.115  13.760 -0.3671 -0.1180  0.4956
12420TIP3    H158751   3.828   3.117  13.674  0.1019 -0.1637  0.2608
12420TIP3    H258752   3.913   3.199  13.768  0.9164 -0.7025  0.0020
12421TIP3   OH258753   3.131   6.785   5.052  1.0623  0.0402 -0.1002
12421TIP3    H158754   3.150   6.727   5.125  1.5043  1.0372  0.5910
12421TIP3    H258755   3.195   6.856   5.059 -0.1800  1.2339 -0.2233
12422TIP3   OH258756   2.706   3.197   2.012 -0.5002 -0.5732 -0.9749
12422TIP3    H158757   2.640   3.151   2.063  0.6937 -1.9758 -0.6536
12422TIP3    H258758   2.741   3.263   2.072  2.3103 -3.4783  0.9134
12423TIP3   OH258759   2.893   1.439  13.080  0.0488 -0.2246  0.3726
12423TIP3    H158760   2.838   1.363  13.060 -1.8533  1.1070  0.2875
12423TIP3    H258761   2.975   1.402  13.112 -0.8134 -2.3089  0.2978
12424TIP3   OH258762   3.874   2.772  13.554  0.4592  0.3221  0.1246
12424TIP3    H158763   3.939   2.835  13.584  1.9224 -1.1518  0.2032
12424TIP3    H258764   3.909   2.687  13.580 -1.0035 -0.6012 -0.7556
12425TIP3   OH258765   1.099   3.933  15.180  0.1171 -0.4290 -0.1359
12425TIP3    H158766   1.130   3.878  15.107  1.5837  1.2877 -0.8660
12425TIP3    H258767   1.151   3.904  15.255  1.1577  0.1947 -0.6031
12426TIP3   OH258768   3.122   5.519   5.269  0.7001  0.7350 -0.0841
12426TIP3    H158769   3.189   5.527   5.337  0.6927 -1.3442  0.2144
12426TIP3    H258770   3.051   5.470   5.310  1.2446 -1.7585 -1.9160
12427TIP3   OH258771   6.170   4.955   1.027  0.2923 -0.4350  0.0511
12427TIP3    H158772   6.179   5.025   0.963 -0.4898  1.6940  2.1248
12427TIP3    H258773   6.077   4.932   1.025  0.2766 -0.4033  0.3766
12428TIP3   OH258774   1.467   5.775   4.340 -0.9278 -0.0050  0.3918
12428TIP3    H158775   1.374   5.754   4.327 -0.3000 -1.7901 -1.8743
12428TIP3    H258776   1.479   5.858   4.292 -0.6859 -1.6612 -2.6962
12429TIP3   OH258777   3.230   3.113   1.621 -0.8934 -0.8167  0.3974
12429TIP3    H158778   3.198   3.160   1.698 -0.6321 -1.3024  0.8132
12429TIP3    H258779   3.325   3.126   1.623 -0.8843 -0.8424  0.1634
12430TIP3   OH258780   6.804   3.275  13.550  0.3028 -0.2567 -0.8870
12430TIP3    H158781   6.745   3.245  13.619  2.0203  1.3437  1.4454
12430TIP3    H258782   6.859   3.199  13.530 -0.8465 -1.0184 -1.2664
12431TIP3   OH258783   2.643   5.134   4.803 -0.0143 -0.0556 -0.0359
12431TIP3    H158784   2.726   5.096   4.774 -0.1532  0.5808 -1.3404
12431TIP3    H258785   2.584   5.122   4.728 -1.2308 -0.8745  1.0279
12432TIP3   OH258786   0.427   0.384   5.355 -0.1237  0.1124  0.0263
12432TIP3    H158787   0.482   0.348   5.286 -0.9884  1.2353 -1.3109
12432TIP3    H258788   0.450   0.477   5.357  1.0887 -0.1593  2.4524
12433TIP3   OH258789   0.282   3.015   0.288 -0.9541 -0.3636  0.4092
12433TIP3    H158790   0.187   3.020   0.272 -0.5619 -0.1642 -2.3946
12433TIP3    H258791   0.320   3.069   0.218  1.3453 -2.5397 -0.1308
12434TIP3   OH258792   2.792   6.269  11.723  0.0750 -0.1861 -0.7910
12434TIP3    H158793   2.854   6.333  11.688 -0.3040 -1.0718 -3.2367
12434TIP3    H258794   2.844   6.190  11.737 -0.2731 -0.5989 -1.7966
12435TIP3   OH258795   3.572   5.222   1.928 -0.5024  0.0773 -0.1659
12435TIP3    H158796   3.558   5.223   2.023 -0.1056  0.3879 -0.1069
12435TIP3    H258797   3.569   5.315   1.903 -1.1597 -0.0360 -0.5447
12436TIP3   OH258798   4.201   5.943   1.684  0.0590 -0.7243  0.1003
12436TIP3    H158799   4.119   5.931   1.732  0.2574 -1.2545  0.3141
12436TIP3    H258800   4.267   5.952   1.753 -0.3552  5.1460  0.2844
12437TIP3   OH258801   3.935   5.412   3.019  0.1077  0.0176  0.1117
12437TIP3    H158802   3.895   5.326   3.011 -0.8441  0.3848  0.7450
12437TIP3    H258803   4.029   5.395   3.021 -0.0941 -1.0571  0.9358
12438TIP3   OH258804   6.170   0.894   5.508 -0.7574  0.1103 -0.1642
12438TIP3    H158805   6.161   0.988   5.497 -0.2990  0.1057 -0.6409
12438TIP3    H258806   6.191   0.862   5.420  0.0032 -0.3229  0.1671
12439TIP3   OH258807   2.594   5.658  14.796 -0.2525 -0.0098 -0.1736
12439TIP3    H158808   2.661   5.725  14.790 -0.1816 -0.1073 -0.4811
12439TIP3    H258809   2.641   5.575  14.787 -0.5095 -0.0525 -1.2687
12440TIP3   OH258810   1.693   5.434   3.800  0.4929 -0.1379 -0.3738
12440TIP3    H158811   1.691   5.356   3.744 -0.8352 -1.3528  1.2390
12440TIP3    H258812   1.747   5.409   3.874 -0.8315  0.0394  0.6941
12441TIP3   OH258813   6.043   3.218   5.511 -0.5362  0.0679  0.1827
12441TIP3    H158814   6.138   3.202   5.504 -0.6471 -0.6983  0.2867
12441TIP3    H258815   6.020   3.182   5.597 -1.0253 -0.3388 -0.1138
12442TIP3   OH258816   5.744   1.787  11.920  0.2789  0.3197  0.1603
12442TIP3    H158817   5.795   1.746  11.990 -1.1322 -0.1098  0.9781
12442TIP3    H258818   5.747   1.881  11.939  0.9471  0.3246  0.0574
12443TIP3   OH258819   5.365   1.559   4.475 -0.3765  0.2058 -0.2140
12443TIP3    H158820   5.309   1.556   4.398 -1.3031  0.0438  0.4531
12443TIP3    H258821   5.324   1.499   4.537  0.5712  0.0404  0.2689
12444TIP3   OH258822   1.094   1.375   3.413 -0.2204  0.5483  0.2600
12444TIP3    H158823   1.026   1.394   3.349  0.7639 -0.2569 -1.0773
12444TIP3    H258824   1.069   1.290   3.450 -0.5260  0.7772  0.5803
12445TIP3   OH258825   2.068   4.587   4.703  0.0331 -0.2886 -0.3447
12445TIP3    H158826   2.137   4.567   4.766 -0.4065  1.3468  0.7200
12445TIP3    H258827   2.007   4.514   4.710 -0.5079  0.3117  1.9027
12446TIP3   OH258828   3.579   6.380  15.058  0.2879 -0.6378  0.4922
12446TIP3    H158829   3.604   6.331  15.137 -0.5677 -1.5917  0.1985
12446TIP3    H258830   3.498   6.425  15.082 -2.2293 -4.0004 -0.8777
12447TIP3   OH258831   4.611   4.089   5.169  0.3495  0.6809  0.1347
12447TIP3    H158832   4.598   4.099   5.263  1.2236 -0.8113  0.4437
12447TIP3    H258833   4.523   4.091   5.132 -0.0003  1.2833  0.9665
12448TIP3   OH258834   6.474   1.979  14.771  0.5174 -0.3009 -0.1451
12448TIP3    H158835   6.559   1.992  14.729  0.5117 -1.6701 -0.6043
12448TIP3    H258836   6.434   1.907  14.723 -0.4406 -0.4157  0.7959
12449TIP3   OH258837   0.257   4.988  11.088  0.1254 -0.2363  0.8657
12449TIP3    H158838   0.351   4.999  11.100  0.5738 -0.0802 -1.9296
12449TIP3    H258839   0.245   4.896  11.065 -0.3916 -0.2467  1.1509
12450TIP3   OH258840   6.420   6.753  13.273  0.6487 -0.0693  0.2674
12450TIP3    H158841   6.334   6.795  13.272  0.7326  0.1286 -1.3071
12450TIP3    H258842   6.478   6.817  13.232  1.5217 -0.2848  1.1365
12451TIP3   OH258843   6.551   0.451   6.669  0.5392  0.2343  0.4812
12451TIP3    H158844   6.537   0.356   6.669  0.5868  0.2257  0.7413
12451TIP3    H258845   6.465   0.489   6.652  0.7954  0.1129 -1.2515
12452TIP3   OH258846   4.644   6.516  12.694 -0.2244  0.3821  0.2189
12452TIP3    H158847   4.707   6.579  12.660  1.3264 -1.3755 -0.2914
12452TIP3    H258848   4.654   6.521  12.790 -1.3863  2.0968  0.3073
12453TIP3   OH258849   4.484   0.928  15.449 -0.2330  0.3791  0.2757
12453TIP3    H158850   4.426   1.002  15.437 -1.6114 -0.4011  1.7152
12453TIP3    H258851   4.430   0.851  15.433  0.8370 -0.3482  0.0042
12454TIP3   OH258852   5.901   5.130  14.102 -0.0498 -0.6047 -0.5090
12454TIP3    H158853   5.819   5.082  14.099 -0.5861  0.2298  0.2151
12454TIP3    H258854   5.881   5.214  14.061  1.3805 -1.6280 -3.5982
12455TIP3   OH258855   5.802   2.504   5.708  0.2085 -0.5749 -0.2356
12455TIP3    H158856   5.718   2.467   5.735  0.0214 -0.0661 -0.1049
12455TIP3    H258857   5.782   2.594   5.684  0.9563  0.0224  1.2276
12456TIP3   OH258858   6.427   5.156   4.007  0.2522  0.0743  0.3299
12456TIP3    H158859   6.356   5.102   3.974  0.6982 -0.7031  0.6144
12456TIP3    H258860   6.411   5.163   4.101 -0.5584  1.6016  0.1205
12457TIP3   OH258861   1.192   3.435   7.423 -0.2026 -0.3198 -0.3915
12457TIP3    H158862   1.179   3.373   7.351 -0.6181  0.2559 -0.8270
12457TIP3    H258863   1.286   3.451   7.425  0.0179 -1.6155  0.2882
12458TIP3   OH258864   5.547   4.580  12.019 -0.1427 -0.1802  0.0523
12458TIP3    H158865   5.620   4.518  12.010 -0.2178 -0.1590 -0.7832
12458TIP3    H258866   5.470   4.524  12.032 -0.0858 -0.2288  0.1835
12459TIP3   OH258867   2.401   1.941   6.379 -0.2149 -0.4607 -0.0659
12459TIP3    H158868   2.415   1.850   6.404  0.2087 -0.0952  1.0892
12459TIP3    H258869   2.320   1.967   6.423 -0.2606 -0.2375 -0.2753
12460TIP3   OH258870   2.809   3.814  11.820  0.3804 -0.0164  0.1856
12460TIP3    H158871   2.717   3.835  11.804  0.2200  0.8885  2.0319
12460TIP3    H258872   2.856   3.895  11.799  0.4214  0.4141  1.8352
12461TIP3   OH258873   6.456   4.466   4.320 -0.2536  0.6505 -0.1452
12461TIP3    H158874   6.499   4.537   4.272  2.3343 -0.3411  0.5415
12461TIP3    H258875   6.459   4.493   4.412 -0.0906  0.0716  0.0259
12462TIP3   OH258876   5.988   5.715  14.921  0.0989  0.3881  0.4620
12462TIP3    H158877   6.028   5.742  15.003 -0.4017  0.1468  0.7902
12462TIP3    H258878   5.902   5.757  14.920  1.4538  3.4614 -1.6670
12463TIP3   OH258879   4.242   5.788  14.856 -0.1878  0.3078  0.5985
12463TIP3    H158880   4.320   5.844  14.850  0.3850 -0.4475  0.9246
12463TIP3    H258881   4.225   5.781  14.950 -0.8224  0.6895  0.5200
12464TIP3   OH258882   0.080   1.151  16.358  0.0811  0.8932  0.3822
12464TIP3    H158883   0.140   1.222  16.333  0.8168 -0.1136 -0.8370
12464TIP3    H258884  -0.007   1.185  16.338  0.4747  1.2020 -0.8857
12465TIP3   OH258885   4.663   1.911  12.124 -0.1241 -0.3651 -0.2422
12465TIP3    H158886   4.689   1.855  12.196  1.2605 -0.7614 -1.0067
12465TIP3    H258887   4.650   1.852  12.050 -0.9951  0.0860 -0.4718
12466TIP3   OH258888   5.290   5.569   3.053 -0.2172 -0.0463 -0.1428
12466TIP3    H158889   5.382   5.591   3.043 -0.2679  0.4301  0.3822
12466TIP3    H258890   5.260   5.623   3.125 -0.8195 -0.4770 -0.0597
12467TIP3   OH258891   5.291   4.346  12.520 -0.2409 -0.5683  0.1358
12467TIP3    H158892   5.223   4.333  12.454 -0.1961 -2.0952  0.3567
12467TIP3    H258893   5.252   4.405  12.585 -0.4700  0.5364 -0.9578
12468TIP3   OH258894   2.018   6.779   6.629 -0.6499 -0.2110 -0.2125
12468TIP3    H158895   1.934   6.735   6.642 -0.7054  0.1388  0.6291
12468TIP3    H258896   2.045   6.807   6.716  0.7352 -1.0074 -0.3493
12469TIP3   OH258897   1.825   4.710  16.980  0.2437 -0.2464 -0.4553
12469TIP3    H158898   1.871   4.663  17.049  1.1424  1.5803  0.2736
12469TIP3    H258899   1.891   4.769  16.943 -0.5229 -0.3676 -2.1201
12470TIP3   OH258900   4.930   2.404  15.765  0.3246  0.1428  0.0970
12470TIP3    H158901   4.846   2.399  15.719 -0.7001  0.2668  1.8511
12470TIP3    H258902   4.955   2.312  15.780  0.7097  0.1020 -0.7654
12471TIP3   OH258903   1.573   4.953   1.735  0.0248  0.7748 -0.2232
12471TIP3    H158904   1.629   4.897   1.680 -1.8817 -1.3532 -0.1627
12471TIP3    H258905   1.533   4.892   1.797 -0.6476  2.5741  1.1888
12472TIP3   OH258906   1.631   0.491  12.533 -0.2813  0.4149  0.2739
12472TIP3    H158907   1.642   0.421  12.468 -0.2958  0.6379  0.0314
12472TIP3    H258908   1.643   0.572  12.484 -2.3560  0.6678  0.0878
12473TIP3   OH258909   5.368   4.412  15.093 -0.1522 -0.0539  0.1519
12473TIP3    H158910   5.323   4.492  15.119  0.2686  0.6070 -1.0651
12473TIP3    H258911   5.456   4.420  15.132 -0.2666 -0.1636  0.4359
12474TIP3   OH258912   2.366   0.569   0.257  0.3155 -0.0861  0.5652
12474TIP3    H158913   2.328   0.484   0.236 -0.6762 -0.0468  2.0489
12474TIP3    H258914   2.369   0.572   0.353 -0.1424  1.7468  0.5700
12475TIP3   OH258915   0.279   3.795  10.420  0.2978 -0.5963 -0.5725
12475TIP3    H158916   0.189   3.764  10.434  0.7939 -1.3540  1.1094
12475TIP3    H258917   0.270   3.890  10.411 -0.6792 -0.6722 -0.5815
12476TIP3   OH258918   6.008   4.867  13.980  0.2932  0.4294 -0.0834
12476TIP3    H158919   5.971   4.894  13.896 -0.9515  1.8252  0.8789
12476TIP3    H258920   5.973   4.928  14.043  1.5492 -0.3320  1.4289
12477TIP3   OH258921   0.377   2.595   2.923  0.1814  0.3791 -0.2453
12477TIP3    H158922   0.309   2.541   2.964 -0.2245  1.0158 -0.0548
12477TIP3    H258923   0.378   2.566   2.832  0.0546 -0.0328 -0.1185
12478TIP3   OH258924   2.374   2.715   4.817 -0.0180 -0.4778  0.5204
12478TIP3    H158925   2.372   2.622   4.841  0.3555 -1.5659 -2.9760
12478TIP3    H258926   2.323   2.719   4.736  0.8855  2.1556 -0.0125
12479TIP3   OH258927   5.512   1.039   1.322  0.0443 -0.4214  0.0108
12479TIP3    H158928   5.488   1.111   1.380  0.4472 -1.8516  2.0702
12479TIP3    H258929   5.565   0.981   1.376  0.9415 -1.5690 -1.9844
12480TIP3   OH258930   1.833   2.190  14.544 -0.5252 -0.6634 -0.3219
12480TIP3    H158931   1.888   2.262  14.576 -1.5608 -0.1326  0.3313
12480TIP3    H258932   1.862   2.176  14.454 -0.3199  0.6084 -0.4834
12481TIP3   OH258933   3.142   5.040  13.781 -1.0717  0.0844  0.5716
12481TIP3    H158934   3.058   5.076  13.810 -1.9693 -2.6648  1.6931
12481TIP3    H258935   3.163   4.972  13.845  0.5866 -1.2613 -1.2678
12482TIP3   OH258936   6.179   2.490  14.659  0.3020 -0.1237  0.2418
12482TIP3    H158937   6.166   2.509  14.752 -0.6975 -0.1530  0.1184
12482TIP3    H258938   6.250   2.425  14.658  0.3470 -0.0980  0.9748
12483TIP3   OH258939   5.459   5.276   1.821  0.4860 -0.2278 -0.3064
12483TIP3    H158940   5.391   5.216   1.849  0.4542 -0.8645 -1.6452
12483TIP3    H258941   5.413   5.358   1.803  0.2189 -0.3728 -0.2837
12484TIP3   OH258942   3.444   4.015   0.958 -0.0181 -0.3751 -0.0599
12484TIP3    H158943   3.533   3.992   0.984 -0.3251  0.1534  1.5754
12484TIP3    H258944   3.443   4.111   0.957 -0.6759 -0.3652  0.4166
12485TIP3   OH258945   2.913   4.636   6.078 -0.1725 -0.8316 -0.5099
12485TIP3    H158946   2.825   4.667   6.100 -0.2489 -1.5343  0.1801
12485TIP3    H258947   2.949   4.604   6.160  0.3526 -1.4860 -0.9859
12486TIP3   OH258948   1.745   0.283   5.665  0.4846  0.0345 -0.0307
12486TIP3    H158949   1.785   0.332   5.736  1.0894 -1.4766  0.7102
12486TIP3    H258950   1.780   0.323   5.585  0.9919  0.7693  0.5503
12487TIP3   OH258951   0.988   1.676  13.239 -0.1088 -0.1894 -0.6427
12487TIP3    H158952   1.070   1.696  13.195 -0.6282  1.2162 -1.0344
12487TIP3    H258953   1.007   1.600  13.293  0.6445 -1.8658 -3.0781
12488TIP3   OH258954   0.739   6.807   3.627  0.1724  0.5713  0.8701
12488TIP3    H158955   0.661   6.862   3.623 -0.5934 -0.5343 -0.4355
12488TIP3    H258956   0.803   6.853   3.573 -0.1703  0.6511  0.5197
12489TIP3   OH258957   0.240   5.073   3.349 -0.3144  0.5133 -0.3829
12489TIP3    H158958   0.148   5.074   3.375 -0.2718  0.9419 -0.2481
12489TIP3    H258959   0.288   5.096   3.428 -0.1077  0.5691 -0.5238
12490TIP3   OH258960   1.821   0.569  16.553 -0.0288  0.4565  0.3337
12490TIP3    H158961   1.761   0.519  16.498  1.5261  0.5286 -1.5486
12490TIP3    H258962   1.823   0.521  16.636 -0.4210 -1.2267 -0.5861
12491TIP3   OH258963   4.808   6.479  13.318  0.3904  0.4502  0.4726
12491TIP3    H158964   4.860   6.437  13.249  0.8907 -1.6730  2.0575
12491TIP3    H258965   4.718   6.455  13.297  0.4411  0.5709  0.0908
12492TIP3   OH258966   4.096   2.729  12.411  0.0085  0.2854  0.0950
12492TIP3    H158967   4.158   2.760  12.477 -0.7344  0.3871  0.7598
12492TIP3    H258968   4.110   2.788  12.336  1.0217  0.0194  0.0509
12493TIP3   OH258969   3.296   4.750   4.030  0.1795  0.4932  0.0730
12493TIP3    H158970   3.247   4.741   3.949 -0.6527  0.7937  0.5259
12493TIP3    H258971   3.377   4.794   4.005  1.0607 -1.5478 -0.9835
12494TIP3   OH258972   4.815   5.881   3.844  0.3900  0.1439  0.3400
12494TIP3    H158973   4.826   5.974   3.824 -2.7046  0.4136 -0.7289
12494TIP3    H258974   4.753   5.880   3.917 -0.0413 -1.0765 -0.0211
12495TIP3   OH258975   2.571   3.680  13.787  1.0522 -0.3723  0.4684
12495TIP3    H158976   2.615   3.639  13.862 -0.1668 -0.2276  1.2942
12495TIP3    H258977   2.478   3.666  13.803  0.6525  1.5848  0.1044
12496TIP3   OH258978   2.765   4.866   1.314 -0.4148  0.1488 -0.4644
12496TIP3    H158979   2.795   4.930   1.249 -0.3792  0.3516 -0.2519
12496TIP3    H258980   2.743   4.919   1.391 -0.6603 -0.0679 -0.3840
12497TIP3   OH258981   2.854   4.783   3.897  0.0017 -0.1489 -0.6960
12497TIP3    H158982   2.875   4.864   3.850  1.4458 -1.2447 -2.0393
12497TIP3    H258983   2.806   4.813   3.974  0.1424  1.9562 -1.3375
12498TIP3   OH258984   2.253   3.786   4.391  0.4882  0.2990 -0.1227
12498TIP3    H158985   2.327   3.785   4.451  1.7526 -0.3276 -1.6307
12498TIP3    H258986   2.275   3.854   4.327  1.8688 -2.6126 -3.0034
12499TIP3   OH258987   5.648   0.697   3.183 -0.3691  0.2882 -0.5948
12499TIP3    H158988   5.580   0.631   3.199  0.1605 -0.2613 -0.5903
12499TIP3    H258989   5.709   0.686   3.256 -1.0821  1.8627  0.3006
12500TIP3   OH258990   4.639   5.117   3.133  0.0734 -0.0693  0.2749
12500TIP3    H158991   4.671   5.040   3.088 -2.7276  0.2855 -2.6383
12500TIP3    H258992   4.670   5.191   3.081 -2.4517  0.4044 -0.6906
12501TIP3   OH258993   6.533   2.021  13.441 -0.4191 -0.3529 -0.0589
12501TIP3    H158994   6.589   2.072  13.382 -0.9322 -0.2210 -0.4390
12501TIP3    H258995   6.493   2.086  13.499 -1.8388 -0.1746 -1.1743
12502TIP3   OH258996   0.221   2.539   0.986 -0.3051 -0.0365 -0.2709
12502TIP3    H158997   0.228   2.580   1.073 -1.4684 -0.2919 -0.0524
12502TIP3    H258998   0.258   2.605   0.927  1.4494 -0.2547  0.4963
12503TIP3   OH258999   4.645   4.899   4.388  0.7226 -0.5408 -0.2630
12503TIP3    H159000   4.739   4.914   4.382  0.4327  0.8685 -3.6989
12503TIP3    H259001   4.611   4.977   4.433  1.1931 -1.4497  1.7655
12504TIP3   OH259002   4.253   6.614  12.034 -0.6245  0.4456 -0.1588
12504TIP3    H159003   4.269   6.707  12.022 -0.3468  0.6623  1.6626
12504TIP3    H259004   4.321   6.571  11.983  0.9917  1.2888  1.2150
12505TIP3   OH259005   3.780   4.318   0.981  0.3183  0.0799  0.0275
12505TIP3    H159006   3.835   4.257   0.932 -2.1779 -2.1979 -0.1295
12505TIP3    H259007   3.697   4.319   0.934  0.2166  3.7452  0.0020
12506TIP3   OH259008   4.245   1.171   0.067 -0.1691 -0.2315  0.3569
12506TIP3    H159009   4.209   1.242   0.014 -0.7746  0.8356  2.1343
12506TIP3    H259010   4.226   1.092   0.016 -2.1691  0.6054 -0.2978
12507TIP3   OH259011   4.315   1.609   5.237 -0.7779 -0.2096 -0.3500
12507TIP3    H159012   4.290   1.660   5.314  1.9264  0.0017  0.5149
12507TIP3    H259013   4.407   1.633   5.222 -0.4959 -2.1402 -2.1060
12508TIP3   OH259014   2.633   2.049   6.480 -0.1086 -0.2183 -0.5744
12508TIP3    H159015   2.696   1.981   6.455 -0.1669 -0.4454 -0.0960
12508TIP3    H259016   2.552   2.023   6.437 -0.2261 -0.6467 -0.0901
12509TIP3   OH259017   6.711   5.213   4.831  0.3882  0.4859  0.6971
12509TIP3    H159018   6.751   5.296   4.806 -0.0782  0.7080  0.6691
12509TIP3    H259019   6.771   5.175   4.895  0.9194  0.5459  0.2465
12510TIP3   OH259020   1.847   3.308   4.223 -0.2044 -0.1698  0.0988
12510TIP3    H159021   1.817   3.370   4.157  4.1655  1.9052 -0.3112
12510TIP3    H259022   1.829   3.351   4.307 -1.2514 -0.5189  0.0700
12511TIP3   OH259023   3.625   3.530  11.680 -0.3243  0.2701  0.9111
12511TIP3    H159024   3.703   3.496  11.724  0.0325 -0.4535 -0.2274
12511TIP3    H259025   3.600   3.461  11.618 -1.9276  0.4391  1.3020
12512TIP3   OH259026   3.145   6.560  14.571  0.2796  0.4874  0.4597
12512TIP3    H159027   3.136   6.654  14.555 -0.1160  0.4701  0.5761
12512TIP3    H259028   3.074   6.539  14.631 -0.1874 -0.0611 -0.2691
12513TIP3   OH259029   1.363   4.826   0.360 -0.6112  0.0159  0.3235
12513TIP3    H159030   1.416   4.844   0.283 -0.8406  1.4385  0.4659
12513TIP3    H259031   1.425   4.833   0.433 -0.2402 -2.0519  0.2469
12514TIP3   OH259032   3.457   5.422  12.991  0.0594  0.3007 -0.2410
12514TIP3    H159033   3.467   5.480  12.915  2.1347  0.2815 -0.0422
12514TIP3    H259034   3.485   5.476  13.065  3.3080 -1.2017 -0.1989
12515TIP3   OH259035   5.666   4.966   3.548 -0.0620 -0.1060 -0.0844
12515TIP3    H159036   5.758   4.986   3.567  0.4113 -0.9411 -1.3774
12515TIP3    H259037   5.661   4.965   3.452 -1.3446 -0.4292 -0.0311
12516TIP3   OH259038   1.692   3.213  13.488  0.2851 -0.2523 -0.3184
12516TIP3    H159039   1.748   3.137  13.470 -0.2131 -1.0311  1.2374
12516TIP3    H259040   1.751   3.288  13.479  0.9015 -0.8466 -1.4389
12517TIP3   OH259041   3.638   0.775  12.995 -0.0245  0.1798 -0.3947
12517TIP3    H159042   3.631   0.834  13.070  0.2260 -0.5901  0.2449
12517TIP3    H259043   3.724   0.793  12.959  0.0392  0.2294 -0.2199
12518TIP3   OH259044   3.847   3.369  16.105 -0.4709 -0.2552 -0.4797
12518TIP3    H159045   3.810   3.417  16.180 -1.3750  0.8363 -1.5887
12518TIP3    H259046   3.831   3.277  16.126 -0.3074 -0.0054  0.8748
12519TIP3   OH259047   1.200   1.303   0.522  0.1521 -0.1864  0.5852
12519TIP3    H159048   1.157   1.280   0.604 -1.5758 -1.4293 -0.5913
12519TIP3    H259049   1.222   1.219   0.481  0.3125  0.3760 -0.5455
12520TIP3   OH259050   5.346   6.569  14.130  0.4784  0.8077 -0.3164
12520TIP3    H159051   5.318   6.479  14.146  1.1503  0.5463 -0.5444
12520TIP3    H259052   5.438   6.560  14.105  1.7449  1.8068  3.2789
12521TIP3   OH259053   0.066   1.193   4.542  0.1911 -0.5410 -0.0723
12521TIP3    H159054   0.148   1.204   4.590  0.4811 -0.5478 -0.5643
12521TIP3    H259055   0.019   1.125   4.591 -0.5058  0.9914  1.5013
12522TIP3   OH259056   1.911   4.962  15.753  0.4088  0.4437 -0.7094
12522TIP3    H159057   1.890   4.980  15.845  1.9913 -3.2879  0.5632
12522TIP3    H259058   2.007   4.960  15.750  0.3972 -1.6565 -1.8391
12523TIP3   OH259059   5.981   0.139  11.708 -0.2927 -0.3469 -0.3673
12523TIP3    H159060   6.039   0.178  11.643 -1.6535  2.0605 -0.2927
12523TIP3    H259061   5.915   0.091  11.657 -2.0727  2.5277 -1.0302
12524TIP3   OH259062   6.542   5.293   2.181 -0.0058 -0.0200 -0.3059
12524TIP3    H159063   6.593   5.340   2.247  1.4346  0.5164 -1.7355
12524TIP3    H259064   6.481   5.240   2.232  0.3204  1.1617  1.4273
12525TIP3   OH259065   6.516   3.824   4.877 -0.1847 -0.1616  0.1412
12525TIP3    H159066   6.541   3.839   4.786 -0.4331  0.8832  0.2297
12525TIP3    H259067   6.599   3.827   4.925 -0.1462  0.2468  0.0582
12526TIP3   OH259068   6.790   5.568   2.274 -0.3864  0.2329 -0.6575
12526TIP3    H159069   6.863   5.628   2.260  1.1934 -1.7596 -1.2442
12526TIP3    H259070   6.804   5.533   2.362  0.4133 -1.4666 -1.4220
12527TIP3   OH259071   1.664   4.402   2.386  0.1174 -0.3061  0.4750
12527TIP3    H159072   1.673   4.316   2.427  1.3087 -1.5165 -2.1133
12527TIP3    H259073   1.680   4.386   2.293 -0.7578  2.5507 -0.2648
12528TIP3   OH259074   4.268   6.031   3.306 -0.1634 -0.6217  0.5508
12528TIP3    H159075   4.193   6.087   3.325 -0.8393 -0.0639 -3.0646
12528TIP3    H259076   4.230   5.949   3.275  0.7406 -0.8507  0.0191
12529TIP3   OH259077   1.798   3.895   4.848 -0.7337  0.0325  0.0476
12529TIP3    H159078   1.821   3.817   4.899 -0.4714 -2.1011 -3.0814
12529TIP3    H259079   1.878   3.918   4.801 -1.0844  1.6365  0.1592
12530TIP3   OH259080   4.803   0.608  15.707 -0.2338  0.0035  0.1910
12530TIP3    H159081   4.779   0.583  15.618  0.4187  1.2570 -0.3669
12530TIP3    H259082   4.730   0.577  15.761 -1.2223  0.2812 -0.9321
12531TIP3   OH259083   4.886   5.031   0.509  0.1192 -0.2674 -0.0636
12531TIP3    H159084   4.897   4.938   0.532  1.5179 -0.5972 -1.8268
12531TIP3    H259085   4.966   5.073   0.542  0.1640  0.0273 -0.5411
12532TIP3   OH259086   1.760   0.646   4.325 -0.5490  0.3040 -0.0690
12532TIP3    H159087   1.848   0.613   4.340 -0.9075 -0.4923  0.3467
12532TIP3    H259088   1.739   0.620   4.236 -1.2310 -1.5937  0.5966
12533TIP3   OH259089   4.189   5.178   3.767  0.0103 -0.3241 -0.3058
12533TIP3    H159090   4.152   5.095   3.736 -2.0754  0.2506  0.4540
12533TIP3    H259091   4.152   5.244   3.709  1.3822  0.1197 -0.6918
12534TIP3   OH259092   5.984   0.756  13.142  0.8840 -0.1926 -0.4523
12534TIP3    H159093   6.031   0.796  13.069  3.0040  2.0646  1.8933
12534TIP3    H259094   6.047   0.695  13.181  0.5078  0.0034  0.5112
12535TIP3   OH259095   3.416   5.179  14.269  0.3563 -0.1781 -0.6254
12535TIP3    H159096   3.503   5.164  14.304  0.5030 -0.3287 -1.0453
12535TIP3    H259097   3.370   5.229  14.337  0.5526 -0.6810 -0.1134
12536TIP3   OH259098   6.374   1.357   6.659 -0.0093  0.2845 -0.1346
12536TIP3    H159099   6.376   1.430   6.597 -0.3448  0.3971 -0.0140
12536TIP3    H259100   6.398   1.397   6.743  1.3794 -0.0360 -0.3451
12537TIP3   OH259101   6.157   1.236   3.303 -0.1465 -0.1314 -0.3710
12537TIP3    H159102   6.234   1.289   3.283  0.5450 -0.6450  0.8091
12537TIP3    H259103   6.093   1.298   3.339  0.3517  0.0434  0.2315
12538TIP3   OH259104   1.195   2.698   1.239 -0.0648 -0.0463  0.2191
12538TIP3    H159105   1.154   2.761   1.179  1.7180  0.1311 -0.8814
12538TIP3    H259106   1.122   2.649   1.276 -1.3122  0.8617 -0.9510
12539TIP3   OH259107   2.933   1.135  16.005  0.6077  0.0442  0.0669
12539TIP3    H159108   2.875   1.207  16.028  1.7644  1.0688 -0.1195
12539TIP3    H259109   2.990   1.170  15.937  0.0556 -1.6003 -1.3181
12540TIP3   OH259110   2.158   3.265   2.879  0.4860  0.2465 -0.0649
12540TIP3    H159111   2.233   3.239   2.932  1.3564  0.3770 -1.2025
12540TIP3    H259112   2.084   3.218   2.918  1.4312 -1.1653  0.0896
12541TIP3   OH259113   6.450   6.662  12.598  0.0956 -0.2126 -0.3571
12541TIP3    H159114   6.512   6.705  12.656 -1.7718 -0.6117  2.1306
12541TIP3    H259115   6.397   6.733  12.561 -0.9718 -0.0982  1.2916
12542TIP3   OH259116   4.702   4.871  16.688 -0.4389 -0.2615 -0.2583
12542TIP3    H159117   4.788   4.912  16.702  0.8456 -2.4672 -1.1599
12542TIP3    H259118   4.661   4.870  16.775  0.3116  1.0501  0.1434
12543TIP3   OH259119   0.836   6.195  13.891 -0.0337  0.2912 -0.4322
12543TIP3    H159120   0.901   6.264  13.884  1.0705 -0.7875 -1.2970
12543TIP3    H259121   0.795   6.208  13.977 -0.0379  2.1322 -0.6778
12544TIP3   OH259122   1.421   5.146  11.113 -0.1126 -0.4634 -0.1027
12544TIP3    H159123   1.507   5.107  11.124  2.0012  2.9634 -2.5416
12544TIP3    H259124   1.411   5.205  11.187  0.1607 -0.0511 -0.3907
12545TIP3   OH259125   1.479   0.226   0.226 -0.8451 -1.2413  0.1445
12545TIP3    H159126   1.392   0.190   0.213 -0.9306 -0.8955 -0.2460
12545TIP3    H259127   1.536   0.149   0.231 -1.1514 -1.4638  0.2633
12546TIP3   OH259128   6.007   2.440  12.753 -0.3784 -0.3922 -0.4542
12546TIP3    H159129   6.071   2.489  12.803  0.3922 -2.2239  0.4595
12546TIP3    H259130   6.051   2.357  12.731 -2.6793 -2.1739  1.0999
12547TIP3   OH259131   4.750   4.380   4.804  0.4037 -0.3174 -0.2249
12547TIP3    H159132   4.800   4.377   4.886 -0.5348  3.1638  0.6542
12547TIP3    H259133   4.686   4.309   4.812 -0.1732  0.4039  2.4847
12548TIP3   OH259134   1.515   3.528  12.583  0.1123 -0.4284  0.3004
12548TIP3    H159135   1.426   3.534  12.550  1.0997  0.1570 -2.5533
12548TIP3    H259136   1.506   3.503  12.675 -3.0334  1.5100  0.6505
12549TIP3   OH259137   6.768   1.491   3.416 -0.5421 -0.2198 -0.5062
12549TIP3    H159138   6.845   1.548   3.420 -0.2093 -0.7185  1.4801
12549TIP3    H259139   6.803   1.405   3.396 -0.5748 -0.4069  0.1933
12550TIP3   OH259140   2.820   4.763  13.611 -0.2266 -0.1789 -0.2327
12550TIP3    H159141   2.733   4.728  13.629 -0.8843  1.2119 -0.6254
12550TIP3    H259142   2.879   4.705  13.659 -1.2430 -1.8890 -0.9418
12551TIP3   OH259143   4.094   3.936  11.869  0.0002 -0.6360 -0.0174
12551TIP3    H159144   4.012   3.938  11.919 -0.2691  1.4070 -0.4527
12551TIP3    H259145   4.157   3.893  11.928 -0.8934 -0.4437  1.1166
12552TIP3   OH259146   5.632   6.451   0.923  0.2413 -0.3668 -0.3853
12552TIP3    H159147   5.663   6.386   0.987 -0.2399 -1.0541 -0.8364
12552TIP3    H259148   5.621   6.401   0.842 -0.0537  0.3041 -0.7658
12553TIP3   OH259149   4.695   1.806  16.979  0.0346 -0.3701 -0.2849
12553TIP3    H159150   4.742   1.739  16.930  1.1259 -0.7771  1.2290
12553TIP3    H259151   4.654   1.758  17.051  0.4409  0.5088  0.5572
12554TIP3   OH259152   2.449   0.982   0.963 -0.1939  0.3707 -0.4398
12554TIP3    H159153   2.502   1.062   0.958  0.2177  0.0696 -0.9696
12554TIP3    H259154   2.494   0.929   1.029 -0.1830  0.3665 -0.4505
12555TIP3   OH259155   4.197   3.719  17.117  0.5879  0.0883 -0.2784
12555TIP3    H159156   4.128   3.779  17.143  0.9165 -0.4984  2.2368
12555TIP3    H259157   4.151   3.644  17.079 -0.0397  0.4289 -0.1988
12556TIP3   OH259158   2.171   1.834   5.068  0.1700 -0.0515 -0.2072
12556TIP3    H159159   2.224   1.866   5.141 -0.8348 -0.1958  0.6001
12556TIP3    H259160   2.110   1.906   5.049 -0.8212 -0.7309  0.3442
12557TIP3   OH259161   0.234   5.787  17.074  0.1513 -0.0228  0.4064
12557TIP3    H159162   0.168   5.719  17.068  0.8021 -0.6137 -0.2435
12557TIP3    H259163   0.304   5.748  17.126  1.0447 -0.3048 -0.9559
12558TIP3   OH259164   5.511   4.037   6.077 -0.1603  0.2012 -0.5858
12558TIP3    H159165   5.436   4.091   6.101 -1.5406 -0.9159 -2.1448
12558TIP3    H259166   5.509   4.035   5.981  1.1954 -0.7871 -0.6231
12559TIP3   OH259167   0.070   1.372   4.901  0.4876  0.0237 -0.5599
12559TIP3    H159168   0.011   1.414   4.838 -0.6963 -0.6635  0.0419
12559TIP3    H259169   0.087   1.285   4.863  0.3397 -0.1299 -0.2777
12560TIP3   OH259170   0.379   6.833   2.523  0.3552 -0.2976 -0.0569
12560TIP3    H159171   0.417   6.781   2.593  0.0342 -0.7348 -0.2061
12560TIP3    H259172   0.397   6.782   2.443  0.6498  0.1551 -0.2879
12561TIP3   OH259173   0.927   4.341   3.713  0.2663  0.1038  0.4895
12561TIP3    H159174   0.901   4.290   3.790  0.8251 -1.6411 -0.4237
12561TIP3    H259175   0.854   4.330   3.652  0.4861  0.2292  0.2023
12562TIP3   OH259176   1.689   1.234   1.043  0.0427 -0.0796  0.1637
12562TIP3    H159177   1.777   1.261   1.069 -0.2356  0.3191  0.7116
12562TIP3    H259178   1.691   1.139   1.048  0.6046 -0.0994 -0.3598
12563TIP3   OH259179   6.167   0.455  15.308 -0.0545  0.3674  0.3360
12563TIP3    H159180   6.248   0.411  15.281  0.9286  1.0742  1.9825
12563TIP3    H259181   6.169   0.540  15.263  0.4174  0.6216  0.8371
12564TIP3   OH259182   6.430   1.387  13.644  0.0400  0.0861 -1.0265
12564TIP3    H159183   6.416   1.304  13.600  1.7214 -0.5701 -0.4254
12564TIP3    H259184   6.343   1.415  13.672 -0.5901 -1.3301 -1.4744
12565TIP3   OH259185   4.896   2.087  15.444  0.2473 -0.5204 -0.1879
12565TIP3    H159186   4.934   2.156  15.389 -1.0892 -0.4748 -1.0818
12565TIP3    H259187   4.918   2.113  15.533 -1.4018  1.8400 -0.3889
12566TIP3   OH259188   0.372   1.039  13.161  0.0456 -0.6274  0.0285
12566TIP3    H159189   0.448   1.064  13.109 -0.7516 -0.6774 -1.2109
12566TIP3    H259190   0.405   1.033  13.251  0.7464  2.9951  0.1781
12567TIP3   OH259191   5.520   2.651  11.892 -0.2276  0.7246 -0.2554
12567TIP3    H159192   5.484   2.739  11.879 -1.6118  0.2372  0.0456
12567TIP3    H259193   5.589   2.643  11.827 -0.4406  1.8461 -0.6439
12568TIP3   OH259194   4.781   6.049   4.383  0.2390 -0.2865 -0.2577
12568TIP3    H159195   4.839   6.028   4.310  1.3329 -1.5885  0.9011
12568TIP3    H259196   4.721   5.974   4.388 -0.0876 -0.0138 -0.0796
12569TIP3   OH259197   4.694   1.043  13.293  0.1371 -0.1520 -0.0081
12569TIP3    H159198   4.747   1.113  13.255 -0.1717 -0.0862 -0.3267
12569TIP3    H259199   4.604   1.071  13.278 -0.0225  0.5748  2.0631
12570TIP3   OH259200   4.144   0.915   0.344 -0.4169 -0.0748  0.0637
12570TIP3    H159201   4.069   0.877   0.389 -0.0813  0.2553  0.9117
12570TIP3    H259202   4.112   0.932   0.255 -1.5507  0.6830  0.5970
12571TIP3   OH259203   3.060   2.985   0.930 -0.5223  0.3340  0.0832
12571TIP3    H159204   3.140   3.025   0.964  1.9820 -1.5429 -2.9849
12571TIP3    H259205   3.054   2.901   0.975  0.6319 -0.4852 -1.1737
12572TIP3   OH259206   5.248   5.400  15.145 -0.0074  0.1946  0.1476
12572TIP3    H159207   5.279   5.395  15.054 -0.3317  1.4290 -0.0496
12572TIP3    H259208   5.157   5.430  15.137 -1.0863 -2.5685  0.7487
12573TIP3   OH259209   2.731   0.011   0.067  0.1573  0.0215 -0.6219
12573TIP3    H159210   2.765  -0.077   0.056  1.4274  0.0262  2.2713
12573TIP3    H259211   2.804   0.061   0.104 -0.7298  2.1279 -1.5165
12574TIP3   OH259212   3.861   6.013   0.518  0.1345 -0.1320 -0.3727
12574TIP3    H159213   3.921   6.055   0.580  0.0698  0.6905 -0.8536
12574TIP3    H259214   3.892   6.040   0.432  1.4260 -2.8535 -0.8613
12575TIP3   OH259215   0.053   1.837  13.681  0.4319  0.4610 -0.0806
12575TIP3    H159216   0.004   1.918  13.672  0.4398  0.7733  2.0369
12575TIP3    H259217   0.121   1.858  13.745  1.2554 -0.8708 -0.4879
12576TIP3   OH259218   0.547   6.330   2.200 -0.7850 -0.0308 -0.7730
12576TIP3    H159219   0.641   6.344   2.193 -0.7807 -0.1092 -0.8953
12576TIP3    H259220   0.537   6.268   2.272 -0.6893 -0.5187 -1.1673
12577TIP3   OH259221   5.030   2.961   1.176  0.3390 -0.5060 -0.0908
12577TIP3    H159222   5.120   2.991   1.176  0.2644 -0.2340 -1.4773
12577TIP3    H259223   5.031   2.881   1.123 -0.2262 -0.5080 -0.1085
12578TIP3   OH259224   6.235   3.227  12.041  0.1370  0.6412 -0.6828
12578TIP3    H159225   6.257   3.136  12.060 -2.2377  0.1891  0.1524
12578TIP3    H259226   6.244   3.272  12.125 -0.2859  0.8291 -0.7374
12579TIP3   OH259227   2.531   1.460   0.052 -0.6984 -0.3331 -0.2848
12579TIP3    H159228   2.451   1.461   0.104  0.7038  0.3776  2.0276
12579TIP3    H259229   2.531   1.375   0.009 -2.4937 -0.4926 -0.0376
12580TIP3   OH259230   4.686   6.147  12.352 -0.2029 -0.1335 -0.2244
12580TIP3    H159231   4.663   6.070  12.403  1.2017 -0.0376  0.6140
12580TIP3    H259232   4.675   6.120  12.261 -2.4166 -0.4158  0.0795
12581TIP3   OH259233   5.700   4.243  16.276  0.6413  0.8172  0.3475
12581TIP3    H159234   5.629   4.182  16.260  0.7949  1.1087 -1.7365
12581TIP3    H259235   5.660   4.330  16.264  1.4258  0.9752 -1.6353
12582TIP3   OH259236   6.359   2.713   4.568 -0.2490 -0.6108  0.2532
12582TIP3    H159237   6.329   2.729   4.658 -0.4855 -0.9777  0.2377
12582TIP3    H259238   6.392   2.623   4.569  1.9766  0.1379  0.5789
12583TIP3   OH259239   5.653   2.879  12.861 -0.4973  0.5539  0.0819
12583TIP3    H159240   5.596   2.806  12.837 -1.4397  1.8506 -1.8730
12583TIP3    H259241   5.616   2.913  12.942 -0.9297 -0.2226  0.2178
12584TIP3   OH259242   1.753   5.792  15.567  0.1584 -0.3569  0.0467
12584TIP3    H159243   1.799   5.709  15.573 -1.6931 -1.3027  2.4195
12584TIP3    H259244   1.695   5.782  15.490  2.2310  0.0665 -1.6628
12585TIP3   OH259245   5.808   1.476  15.571  0.3276 -0.6216  0.1581
12585TIP3    H159246   5.877   1.410  15.581  1.1271  0.0308 -0.8252
12585TIP3    H259247   5.728   1.432  15.597  1.0904 -1.4758  1.0927
12586TIP3   OH259248   5.440   0.086   2.890  0.6912 -0.2214 -0.1279
12586TIP3    H159249   5.477   0.017   2.834  1.1433  0.8597 -1.2018
12586TIP3    H259250   5.499   0.161   2.878  1.0478 -0.0632  2.1432
12587TIP3   OH259251   3.927   4.406   1.616 -0.0895 -0.1982 -0.1478
12587TIP3    H159252   3.946   4.425   1.708  2.1477  0.2820 -0.6419
12587TIP3    H259253   3.960   4.317   1.603 -0.3180 -0.2312 -0.5093
12588TIP3   OH259254   2.551   2.608   5.101  0.3218 -0.3352 -0.0834
12588TIP3    H159255   2.546   2.561   5.184 -1.7110 -0.3061 -0.1376
12588TIP3    H259256   2.553   2.539   5.034 -1.0346 -0.3824 -0.0990
12589TIP3   OH259257   2.358   6.396   2.531  0.2509 -0.1723  0.0070
12589TIP3    H159258   2.384   6.367   2.618  0.9210  2.5794  0.8389
12589TIP3    H259259   2.419   6.350   2.472  0.5013 -1.2528  1.0614
12590TIP3   OH259260   5.812   3.551  16.601 -0.2329 -0.0373 -0.0268
12590TIP3    H159261   5.729   3.551  16.555 -0.5663 -0.1794  0.5647
12590TIP3    H259262   5.863   3.482  16.559  0.0195  0.7963 -1.1372
12591TIP3   OH259263   0.864   2.027   2.981  0.0762 -0.2746  0.2483
12591TIP3    H159264   0.790   2.022   2.920  0.0110  3.2902 -0.1771
12591TIP3    H259265   0.826   2.060   3.063  1.0895  1.7545 -0.0185
12592TIP3   OH259266   2.225   5.018  13.969 -0.2030  0.6155  0.3479
12592TIP3    H159267   2.301   4.960  13.975 -1.0827 -0.4722  1.8915
12592TIP3    H259268   2.184   4.995  13.886  0.6401  0.5668 -0.0687
12593TIP3   OH259269   3.296   4.873   5.343 -0.4243  0.3782 -0.4418
12593TIP3    H159270   3.369   4.931   5.364 -1.5626  1.4741  0.6718
12593TIP3    H259271   3.220   4.917   5.380 -1.5492 -1.1042 -0.9262
12594TIP3   OH259272   3.408   2.729   1.330 -0.6221 -0.0090  0.2883
12594TIP3    H159273   3.329   2.768   1.367 -0.5925 -0.7717  1.1848
12594TIP3    H259274   3.402   2.636   1.353  1.1688  0.1447  1.5486
12595TIP3   OH259275   4.477   4.606   0.305  0.4650  0.4493 -0.0479
12595TIP3    H159276   4.384   4.620   0.285  0.8043  1.1381 -1.1945
12595TIP3    H259277   4.482   4.616   0.400 -0.8564 -0.9662  0.2227
12596TIP3   OH259278   6.297   5.223  10.395  0.2121 -0.3096  0.6494
12596TIP3    H159279   6.374   5.257  10.350 -1.2759  0.3314 -1.5754
12596TIP3    H259280   6.307   5.253  10.485  0.7364  3.1281 -0.4059
12597TIP3   OH259281   5.262   1.317   0.490 -0.6722  0.0658  0.3566
12597TIP3    H159282   5.229   1.381   0.553  1.9354  0.4936  1.4071
12597TIP3    H259283   5.265   1.235   0.538  0.2652  0.1595  0.4838
12598TIP3   OH259284   3.623   4.395  16.520 -0.8460  0.2557  0.0740
12598TIP3    H159285   3.532   4.372  16.501 -0.0814 -1.7218 -1.4752
12598TIP3    H259286   3.632   4.484  16.486 -1.9751  0.1473 -0.5606
12599TIP3   OH259287   6.356   5.017   3.620 -0.5385 -0.2111 -0.4815
12599TIP3    H159288   6.409   5.088   3.657 -2.6458  0.5842  1.1945
12599TIP3    H259289   6.349   5.039   3.527 -0.7079  1.5406 -0.0933
12600TIP3   OH259290   1.497   4.164   2.612  0.3397 -0.4316  0.1100
12600TIP3    H159291   1.498   4.069   2.623 -0.3334 -0.3179  1.2516
12600TIP3    H259292   1.469   4.177   2.521 -1.5351 -1.2985  0.5179
12601TIP3   OH259293   1.475   0.280   3.897  0.3242 -0.1332  0.0075
12601TIP3    H159294   1.451   0.237   3.979 -0.1669 -0.8346 -0.4918
12601TIP3    H259295   1.422   0.360   3.895 -0.3381 -0.5652 -0.0421
12602TIP3   OH259296   1.157   2.721  15.950 -0.0498 -0.8328 -0.0540
12602TIP3    H159297   1.071   2.732  15.991 -0.6021 -1.7083 -0.9137
12602TIP3    H259298   1.220   2.730  16.021 -0.6547  2.3462  0.2347
12603TIP3   OH259299   3.988   2.418   2.236  0.6401  0.1849  0.0085
12603TIP3    H159300   3.975   2.513   2.240 -0.7974  0.1953 -2.5107
12603TIP3    H259301   4.021   2.395   2.322  1.8855  3.0788  0.4412
12604TIP3   OH259302   1.973   5.904   5.316 -0.3680 -0.0869  0.0004
12604TIP3    H159303   1.926   5.843   5.259 -0.1776 -0.4224  0.1989
12604TIP3    H259304   1.928   5.987   5.305 -2.0306 -0.7512  1.3878
12605TIP3   OH259305   0.310   4.048  14.463 -0.2376  0.0476 -0.2633
12605TIP3    H159306   0.336   4.036  14.371 -1.5687  2.4870 -1.0347
12605TIP3    H259307   0.231   3.995  14.473  0.7498 -1.4481 -0.0296
12606TIP3   OH259308   3.416   0.507  12.214  0.1835  0.0671 -0.3999
12606TIP3    H159309   3.393   0.506  12.307  0.3662  0.3208 -0.3508
12606TIP3    H259310   3.379   0.426  12.179 -1.6319  0.9021 -0.5397
12607TIP3   OH259311   4.207   3.622  12.057 -0.1474 -0.0106  0.3029
12607TIP3    H159312   4.234   3.702  12.101  0.8702 -1.5277  2.6776
12607TIP3    H259313   4.285   3.566  12.060 -1.3889 -1.8177  0.5920
12608TIP3   OH259314   2.575   3.011  15.488 -0.0345 -0.6397 -0.1203
12608TIP3    H159315   2.545   3.069  15.558  0.9559 -1.5109  1.0679
12608TIP3    H259316   2.499   2.957  15.467 -0.9663  1.0190 -1.2210
12609TIP3   OH259317   0.482   3.719   4.657  0.4961  0.2791 -0.1696
12609TIP3    H159318   0.457   3.674   4.576 -1.1825  1.8818 -0.6046
12609TIP3    H259319   0.485   3.812   4.632  1.1171  0.6830  1.3379
12610TIP3   OH259320   6.799   5.596   5.073 -0.3337  0.0596  0.6409
12610TIP3    H159321   6.791   5.689   5.092  1.0814  0.6166 -1.1677
12610TIP3    H259322   6.856   5.562   5.142 -0.5960  0.5775  1.1231
12611TIP3   OH259323   0.136   4.190   4.152  0.1167 -0.4178  0.0066
12611TIP3    H159324   0.115   4.097   4.159 -1.1967 -0.5237 -3.6386
12611TIP3    H259325   0.056   4.235   4.176 -0.0474 -0.3397 -0.6682
12612TIP3   OH259326   1.246   4.976   4.413 -0.1166 -0.0274 -0.0927
12612TIP3    H159327   1.196   4.938   4.486 -0.8919 -0.1811 -0.6877
12612TIP3    H259328   1.260   4.904   4.353  2.2182 -0.3578  0.7596
12613TIP3   OH259329   6.459   4.818   4.254 -0.3148 -0.4803 -0.3961
12613TIP3    H159330   6.410   4.878   4.197  0.1863  0.5666  0.2397
12613TIP3    H259331   6.506   4.876   4.313  1.8655 -1.4296 -1.1096
12614TIP3   OH259332   2.125   2.441   6.255 -0.4191  0.2965 -0.0247
12614TIP3    H159333   2.126   2.533   6.228 -0.0335  0.3255  0.0800
12614TIP3    H259334   2.188   2.437   6.328 -0.6300  0.0029  0.1440
12615TIP3   OH259335   0.589   5.730  14.377  0.3394  0.0276 -0.0192
12615TIP3    H159336   0.519   5.709  14.438  1.0270  0.8060  1.0614
12615TIP3    H259337   0.617   5.645  14.343 -0.1614 -0.4002  0.6132
12616TIP3   OH259338   5.042   2.484   1.918  0.3723  0.0909  0.7837
12616TIP3    H159339   5.016   2.522   1.834 -0.5596  0.9643  1.4499
12616TIP3    H259340   5.015   2.392   1.912 -0.4641  0.3524  0.4517
12617TIP3   OH259341   1.168   0.820   3.657  0.2469  0.0165  0.6438
12617TIP3    H159342   1.222   0.808   3.579 -0.9698 -0.6201 -0.1292
12617TIP3    H259343   1.167   0.735   3.700 -1.3627 -0.4354 -0.1919
12618TIP3   OH259344   2.047   6.337  14.345  0.0563 -0.7566  0.0006
12618TIP3    H159345   2.082   6.426  14.346  1.1076 -1.1040  2.9773
12618TIP3    H259346   2.102   6.290  14.282 -0.3393  0.5847 -1.4013
12619TIP3   OH259347   5.305   1.751   2.394  0.0677 -0.2822 -0.5253
12619TIP3    H159348   5.257   1.672   2.419  0.5962 -0.8584 -1.3070
12619TIP3    H259349   5.361   1.724   2.322 -0.8066  1.1502 -1.7946
12620TIP3   OH259350   2.960   4.081  13.117  0.1399 -0.1320 -0.6522
12620TIP3    H159351   3.005   4.050  13.196  0.4745 -0.6487 -1.0497
12620TIP3    H259352   2.993   4.170  13.105 -0.0116  0.0017 -0.1346
12621TIP3   OH259353   4.940   0.387   3.864  0.0437  0.3463  0.4303
12621TIP3    H159354   4.893   0.368   3.945  2.2491 -1.9837  1.2641
12621TIP3    H259355   4.998   0.460   3.886 -0.0723  0.3752  0.6397
12622TIP3   OH259356   5.463   2.972  16.226  0.1886 -0.4458  0.0161
12622TIP3    H159357   5.471   2.915  16.149  1.1726 -0.6520  0.2525
12622TIP3    H259358   5.384   2.942  16.270 -2.1059  1.5367 -2.3962
12623TIP3   OH259359   4.971   3.979  10.880  0.5275 -0.1726  0.0827
12623TIP3    H159360   5.029   4.055  10.886 -0.0296  0.1267  2.1601
12623TIP3    H259361   5.006   3.917  10.944  0.0714 -1.0839 -0.5182
12624TIP3   OH259362   2.913   6.033  11.690  0.0588 -0.5402  0.2790
12624TIP3    H159363   2.989   5.978  11.708  0.1768 -0.9612 -1.3425
12624TIP3    H259364   2.838   5.979  11.716  0.2898 -0.2096  1.6718
12625TIP3   OH259365   3.559   0.717   1.338  0.1387 -0.1375 -0.1583
12625TIP3    H159366   3.611   0.719   1.258  0.2123 -0.3132 -0.1141
12625TIP3    H259367   3.624   0.711   1.408  0.0625 -0.2464 -0.0982
12626TIP3   OH259368   2.433   3.588  10.981 -0.6896  0.5417 -0.9564
12626TIP3    H159369   2.340   3.592  10.956 -1.5311 -2.5496  1.0847
12626TIP3    H259370   2.464   3.506  10.944 -0.1489 -0.7775  2.0940
12627TIP3   OH259371   3.407   0.245   2.571 -0.1904  0.2769  0.3508
12627TIP3    H159372   3.356   0.170   2.601  1.2515 -1.4382 -1.2377
12627TIP3    H259373   3.456   0.274   2.648  0.0991 -1.1720  0.7445
12628TIP3   OH259374   4.503   4.104  11.983  0.8864  0.0522 -0.0654
12628TIP3    H159375   4.506   4.028  11.924  2.4927 -0.9114  1.1671
12628TIP3    H259376   4.414   4.138  11.973  0.4057 -1.4389 -1.3355
12629TIP3   OH259377   2.782   2.390   1.813 -0.3196 -0.2272  0.0130
12629TIP3    H159378   2.853   2.453   1.817  0.0758 -0.6165 -0.6298
12629TIP3    H259379   2.820   2.309   1.846 -0.0933 -0.7465 -1.4468
12630TIP3   OH259380   2.405   1.023  15.458  0.7263 -0.0147 -0.1057
12630TIP3    H159381   2.397   1.076  15.538 -1.3340 -0.7404  0.2467
12630TIP3    H259382   2.492   0.983  15.465  0.6626  0.0471  1.7280
12631TIP3   OH259383   2.699   1.019  13.395 -0.3101 -0.3486 -0.5822
12631TIP3    H159384   2.764   1.089  13.391  1.7677 -2.0324  1.2149
12631TIP3    H259385   2.618   1.064  13.417  0.8452  1.5646  0.0659
12632TIP3   OH259386   1.101   5.696   3.093 -0.1530  0.3557  0.2780
12632TIP3    H159387   1.189   5.733   3.103  0.0113  0.6393 -1.7968
12632TIP3    H259388   1.093   5.679   2.999 -1.6241 -1.4434  0.6845
12633TIP3   OH259389   0.671   5.146  10.380  0.2380  0.0661  0.0319
12633TIP3    H159390   0.666   5.238  10.353  1.2241  0.0135 -0.3963
12633TIP3    H259391   0.724   5.147  10.459  2.0604 -0.3043 -1.1182
12634TIP3   OH259392   5.003   1.464  10.359 -0.0159  0.7769  0.1500
12634TIP3    H159393   4.995   1.369  10.369 -0.1072  0.7106 -0.5162
12634TIP3    H259394   4.916   1.492  10.331  0.2818  0.9266 -0.6336
12635TIP3   OH259395   4.039   2.178  11.521 -0.2828  0.0328 -0.7204
12635TIP3    H159396   4.090   2.120  11.578 -1.3127  0.7873  1.0617
12635TIP3    H259397   3.997   2.118  11.459  0.7623 -0.8442 -0.6160
12636TIP3   OH259398   3.520   4.592  11.271  0.1391  0.3748 -0.3691
12636TIP3    H159399   3.569   4.575  11.190 -1.2703 -1.6404 -0.8509
12636TIP3    H259400   3.428   4.592  11.244 -0.4718 -2.0293  1.4438
12637TIP3   OH259401   0.343   0.713  12.657  0.3298  0.1931  0.0044
12637TIP3    H159402   0.251   0.727  12.633  0.6570  3.8356  0.3290
12637TIP3    H259403   0.382   0.672  12.580 -1.4033 -0.7764 -0.4034
12638TIP3   OH259404   5.893   6.026  13.223  0.6837 -0.5391  0.3754
12638TIP3    H159405   5.988   6.031  13.229  0.6875  1.3358 -0.4676
12638TIP3    H259406   5.862   6.035  13.313  1.2785  0.3504  0.5026
12639TIP3   OH259407   1.935   1.341   5.761  0.1724  0.0288 -0.4646
12639TIP3    H159408   1.857   1.287   5.747  0.1619  0.0874 -0.6283
12639TIP3    H259409   2.008   1.279   5.761  0.4438  0.2461 -3.0962
12640TIP3   OH259410   6.196   3.621  15.154  0.0065  0.2865  0.0581
12640TIP3    H159411   6.125   3.575  15.111 -1.0604  1.5173  0.4457
12640TIP3    H259412   6.191   3.592  15.245  2.4687 -2.5751 -0.5578
12641TIP3   OH259413   4.283   1.762   5.752  0.3237  0.2170  0.2931
12641TIP3    H159414   4.277   1.854   5.778  2.8463  0.7227 -0.6292
12641TIP3    H259415   4.200   1.723   5.780 -0.6888  2.6972  0.9557
12642TIP3   OH259416   2.293   4.773  13.225 -0.4286 -0.1781 -0.1637
12642TIP3    H159417   2.258   4.695  13.181 -0.6610 -1.7651  2.5719
12642TIP3    H259418   2.387   4.756  13.233 -0.5604 -0.4762  0.9164
12643TIP3   OH259419   2.846   6.589  14.994  0.0024  0.3001 -0.4950
12643TIP3    H159420   2.843   6.506  15.041 -0.8247 -0.5010 -1.8972
12643TIP3    H259421   2.892   6.569  14.913 -0.6111  1.1018 -1.0552
12644TIP3   OH259422   4.544   1.705   5.775 -0.1793  0.0407  0.2977
12644TIP3    H159423   4.566   1.618   5.741  2.5669  1.7314 -2.8519
12644TIP3    H259424   4.452   1.718   5.750 -0.6431 -1.9205  0.8705
12645TIP3   OH259425   2.520   6.550  16.567  0.3291  0.2178  0.5072
12645TIP3    H159426   2.472   6.612  16.621 -1.3768 -0.6826  0.0868
12645TIP3    H259427   2.482   6.559  16.480  0.8521 -0.5888  0.1813
12646TIP3   OH259428   0.461   1.145   0.558 -0.0591 -0.2611 -0.4560
12646TIP3    H159429   0.432   1.144   0.649 -1.3152 -0.1079 -0.8428
12646TIP3    H259430   0.531   1.079   0.554  0.0102 -0.2626  0.6063
12647TIP3   OH259431   0.193   0.313  13.076 -0.0381  0.3005  0.1864
12647TIP3    H159432   0.180   0.405  13.099  0.0792  0.1748  0.7658
12647TIP3    H259433   0.264   0.313  13.012  0.0780  0.5931  0.3184
12648TIP3   OH259434   4.032   6.102   2.195  0.1618  0.2165 -0.4009
12648TIP3    H159435   3.937   6.106   2.211 -0.0131 -0.1493 -1.2565
12648TIP3    H259436   4.071   6.145   2.271 -0.7475  1.4603 -0.5979
12649TIP3   OH259437   2.250   3.077  12.820 -0.3448  0.5992 -0.1559
12649TIP3    H159438   2.214   2.995  12.854  0.8972 -0.5928 -1.5832
12649TIP3    H259439   2.342   3.075  12.845  0.0145  0.8736 -1.3881
12650TIP3   OH259440   2.659   4.116  13.664 -0.6369  0.2670 -0.2788
12650TIP3    H159441   2.581   4.095  13.716 -0.6685  0.6845 -0.1564
12650TIP3    H259442   2.705   4.182  13.715 -0.6142  0.6055 -0.7347
12651TIP3   OH259443   3.222   4.508  16.925 -0.9067  0.2173  0.5398
12651TIP3    H159444   3.296   4.449  16.942  0.1000  0.7025 -1.8227
12651TIP3    H259445   3.176   4.514  17.009  0.3712 -1.9649  1.4659
12652TIP3   OH259446   4.209   4.167  12.811  0.0432 -0.1722  0.2353
12652TIP3    H159447   4.182   4.191  12.722 -0.0639  0.9121  0.5518
12652TIP3    H259448   4.301   4.195  12.816  1.5096 -4.0709 -0.9252
12653TIP3   OH259449   1.441   2.512  15.441 -0.2169 -0.7324  0.0217
12653TIP3    H159450   1.493   2.536  15.364 -0.9315  1.1077  0.0662
12653TIP3    H259451   1.374   2.580  15.447 -2.3232 -2.7083  0.2830
12654TIP3   OH259452   1.373   3.273  14.317 -0.2089 -0.0465  0.1511
12654TIP3    H159453   1.421   3.191  14.326  1.1844  0.6922 -0.2867
12654TIP3    H259454   1.310   3.256  14.247  1.7689 -0.0237 -1.7353
12655TIP3   OH259455   6.365   3.008  14.838 -0.1410  0.8998  0.5772
12655TIP3    H159456   6.396   3.079  14.781 -0.0300  0.3870 -0.0211
12655TIP3    H259457   6.430   2.938  14.826 -1.3091 -0.0666 -0.4372
12656TIP3   OH259458   3.422   1.109   4.783 -0.3160 -0.0269 -0.8213
12656TIP3    H159459   3.350   1.050   4.804 -1.1327  0.7506 -1.3820
12656TIP3    H259460   3.381   1.193   4.767  0.8629  0.7903  0.2591
12657TIP3   OH259461   5.071   1.418  10.961 -0.3518 -0.4779  0.4915
12657TIP3    H159462   5.024   1.338  10.983  0.6166 -1.4640 -0.8084
12657TIP3    H259463   5.006   1.488  10.971 -1.6708 -1.6081  0.1486
12658TIP3   OH259464   6.025   5.172   4.158  0.3010  0.7264 -0.2324
12658TIP3    H159465   5.947   5.209   4.200  0.6324  1.8200 -0.5416
12658TIP3    H259466   6.098   5.213   4.204  0.6845  0.5536 -0.6828
12659TIP3   OH259467   5.274   4.654   5.100 -0.2594 -0.1280  0.1573
12659TIP3    H159468   5.274   4.588   5.031 -0.6582 -0.7175  0.7104
12659TIP3    H259469   5.360   4.645   5.142  0.7022  1.4176 -1.3462
12660TIP3   OH259470   2.312   6.419  14.019  0.0864  0.2148 -0.5408
12660TIP3    H159471   2.254   6.483  14.060  0.3597  0.8857 -1.1674
12660TIP3    H259472   2.317   6.346  14.081  0.2316  1.0555  0.4580
12661TIP3   OH259473   4.222   1.744  14.230 -0.2525  0.4454  0.1066
12661TIP3    H159474   4.268   1.806  14.175 -0.5757  1.9037  1.4193
12661TIP3    H259475   4.291   1.691  14.271  0.0204 -0.0559 -0.9727
12662TIP3   OH259476   0.383   1.153   4.129  0.6288 -0.0043 -0.0830
12662TIP3    H159477   0.335   1.171   4.048 -0.5790  0.1311  0.6428
12662TIP3    H259478   0.315   1.140   4.195  1.5845 -0.9322  0.7460
12663TIP3   OH259479   2.548   2.865  15.921 -0.8282  0.0921 -0.1192
12663TIP3    H159480   2.474   2.866  15.861 -0.1669 -2.1309 -1.0524
12663TIP3    H259481   2.564   2.958  15.941 -3.3297  0.6696 -0.4943
12664TIP3   OH259482   3.719   4.629  13.889 -0.4046  0.2746  0.4717
12664TIP3    H159483   3.697   4.664  13.803 -0.1862  0.3662  0.4517
12664TIP3    H259484   3.649   4.660  13.946  0.1968  1.4268  0.6197
12665TIP3   OH259485   2.295   2.792   4.581  0.4112 -0.1737  0.0591
12665TIP3    H159486   2.266   2.716   4.530  0.6841 -0.5715  0.4847
12665TIP3    H259487   2.357   2.837   4.524 -0.0869 -0.0210 -0.3682
12666TIP3   OH259488   5.216   2.188   2.272 -0.1121  0.4288 -0.4351
12666TIP3    H159489   5.219   2.133   2.193 -2.9448  0.5024 -0.6855
12666TIP3    H259490   5.184   2.129   2.340 -1.2359  1.2412 -0.2382
12667TIP3   OH259491   2.069   4.992   6.219  0.4302  0.0767 -0.0503
12667TIP3    H159492   2.030   5.069   6.261 -1.3876 -0.3009 -0.9095
12667TIP3    H259493   2.125   4.954   6.286 -1.6878 -0.0316  1.7943
12668TIP3   OH259494   4.141   5.600   0.962  0.0159  0.2092  0.1066
12668TIP3    H159495   4.170   5.575   1.050 -1.3639  2.2036  1.2256
12668TIP3    H259496   4.046   5.606   0.969 -0.1195  0.3559 -1.5513
12669TIP3   OH259497   0.592   5.108  12.678 -0.1934 -0.5933 -0.3704
12669TIP3    H159498   0.675   5.129  12.722  0.4583  0.0824 -1.8648
12669TIP3    H259499   0.525   5.133  12.741  0.7247 -1.1438  0.8707
12670TIP3   OH259500   3.709   4.211  11.150  0.1984 -0.0108 -0.5544
12670TIP3    H159501   3.718   4.286  11.091 -0.3955  1.0057  0.6039
12670TIP3    H259502   3.640   4.158  11.111  0.2277  0.3350 -1.0880
12671TIP3   OH259503   4.275   6.369  11.378 -0.6665 -0.2928  0.1873
12671TIP3    H159504   4.247   6.345  11.467 -0.6789 -0.0295  0.2554
12671TIP3    H259505   4.368   6.344  11.375 -0.4824  0.3342  0.5095
12672TIP3   OH259506   1.653   3.172   2.552 -0.2089 -0.3681  0.0430
12672TIP3    H159507   1.747   3.174   2.537 -0.1355 -0.4779  0.4948
12672TIP3    H259508   1.639   3.098   2.611 -0.4558  0.3219  0.8611
12673TIP3   OH259509   5.290   4.462  12.042  0.1000 -0.1746  0.0900
12673TIP3    H159510   5.194   4.464  12.037  0.0980  1.2081  0.1151
12673TIP3    H259511   5.318   4.441  11.953 -0.2241 -0.5898  0.0821
12674TIP3   OH259512   1.674   3.308  11.593  0.1352  0.0299 -0.5418
12674TIP3    H159513   1.682   3.243  11.663 -0.3115 -0.0294 -0.5429
12674TIP3    H259514   1.581   3.307  11.569  0.2746  0.0754 -1.1095
12675TIP3   OH259515   1.120   5.234   5.193 -0.0509 -0.3091 -0.2115
12675TIP3    H159516   1.037   5.188   5.191 -0.1949 -0.0675  0.1441
12675TIP3    H259517   1.109   5.302   5.259  1.5976 -2.4363  2.4496
12676TIP3   OH259518   4.179   3.130   0.351  0.3865 -0.2221 -0.1483
12676TIP3    H159519   4.235   3.111   0.426  0.9486  3.8632  0.6886
12676TIP3    H259520   4.235   3.182   0.292 -1.0087 -0.5308 -1.8324
12677TIP3   OH259521   5.461   6.676   0.171 -0.2097 -0.1988 -0.2257
12677TIP3    H159522   5.553   6.696   0.184 -0.4411  0.8798 -0.1857
12677TIP3    H259523   5.450   6.588   0.208  0.5630  0.1084  0.7455
12678TIP3   OH259524   0.771   3.772  17.186 -0.2887 -0.3209  0.1661
12678TIP3    H159525   0.786   3.860  17.221 -0.6261 -0.8060  1.6218
12678TIP3    H259526   0.684   3.776  17.147 -1.2650 -0.5289  2.1866
12679TIP3   OH259527   4.538   2.481  13.144  0.3644 -0.3981  0.0930
12679TIP3    H159528   4.568   2.553  13.199  0.3733 -0.4843  0.2014
12679TIP3    H259529   4.501   2.524  13.067 -0.0145 -0.2623  0.3454
12680TIP3   OH259530   6.776   6.275   1.053 -0.2462  0.0147  0.1646
12680TIP3    H159531   6.719   6.227   1.113  0.6613 -1.8940 -0.4258
12680TIP3    H259532   6.816   6.208   0.998  1.4253  1.4197 -0.4459
12681TIP3   OH259533   1.056   2.362   4.829 -0.1818 -0.3032  0.1309
12681TIP3    H159534   1.099   2.293   4.879 -0.6850 -0.0529  0.9313
12681TIP3    H259535   0.972   2.374   4.873 -0.8686 -0.4491 -1.1096
12682TIP3   OH259536   6.062   3.375   4.345 -0.2368  0.3243 -0.1505
12682TIP3    H159537   6.052   3.434   4.419  0.9330  0.3436  0.0200
12682TIP3    H259538   6.156   3.353   4.344 -0.5379 -1.0731 -0.5590
12683TIP3   OH259539   4.004   0.535  15.624 -0.2972 -0.0844 -0.1100
12683TIP3    H159540   3.962   0.608  15.669  0.1532  0.6045 -0.7847
12683TIP3    H259541   3.957   0.528  15.541  1.3449  1.1852 -1.2108
12684TIP3   OH259542   5.494   5.029   2.775  0.4160  0.4923 -0.4096
12684TIP3    H159543   5.525   4.961   2.835  0.8980  0.0767 -1.1115
12684TIP3    H259544   5.502   5.110   2.824 -0.2539  0.0371  0.4735
12685TIP3   OH259545   2.319   6.610  12.673 -0.5067  0.1438 -0.3955
12685TIP3    H159546   2.413   6.593  12.674 -0.5060  0.0820 -1.0005
12685TIP3    H259547   2.291   6.584  12.585 -1.2065 -0.4871 -0.0025
12686TIP3   OH259548   4.480   1.546  16.051  0.0172  0.1067 -0.4893
12686TIP3    H159549   4.535   1.623  16.036 -0.1427  0.8045  2.0508
12686TIP3    H259550   4.533   1.488  16.105 -0.0551 -1.3894 -1.9601
12687TIP3   OH259551   4.920   2.570   0.458  0.1496  0.0788  0.4324
12687TIP3    H159552   4.938   2.494   0.403  0.6712  0.1750  0.4565
12687TIP3    H259553   4.830   2.559   0.487 -0.6057  0.7061 -1.5297
12688TIP3   OH259554   2.743   2.347   5.059  0.1045 -0.3422 -0.2046
12688TIP3    H159555   2.733   2.397   5.139 -1.9449 -1.7306  0.4863
12688TIP3    H259556   2.837   2.328   5.055  0.9215  3.0685 -0.3190
12689TIP3   OH259557   3.096   1.950   0.533  0.1344  0.0181  1.0215
12689TIP3    H159558   3.028   1.994   0.481 -0.5426  0.0831  1.9501
12689TIP3    H259559   3.178   1.980   0.494 -0.3508 -0.0529 -0.1153
12690TIP3   OH259560   5.224   4.387   0.661 -0.1248  0.6069  0.1188
12690TIP3    H159561   5.155   4.350   0.717 -0.4194  1.4541  0.3316
12690TIP3    H259562   5.306   4.360   0.703 -0.3303  0.1574  0.2395
12691TIP3   OH259563   3.561   5.352   6.504  0.1662 -0.3378  0.1494
12691TIP3    H159564   3.578   5.433   6.551  0.4971 -1.3237  1.8126
12691TIP3    H259565   3.646   5.329   6.465  0.4410 -0.6147  0.8940
12692TIP3   OH259566   4.369   6.703  12.940 -0.1332  0.2269  0.0580
12692TIP3    H159567   4.347   6.639  13.008  3.9095 -1.0083  0.4748
12692TIP3    H259568   4.328   6.784  12.970 -2.0292 -1.2103  1.6726
12693TIP3   OH259569   5.295   4.063  12.205  0.4484 -0.3945  0.0446
12693TIP3    H159570   5.232   4.022  12.146 -0.8344  0.4182  0.7972
12693TIP3    H259571   5.370   4.004  12.204  0.1191 -0.8676 -1.6845
12694TIP3   OH259572   4.068   0.538  17.119  0.3351  0.0776 -0.0862
12694TIP3    H159573   4.018   0.535  17.201 -1.1604 -0.9674 -0.9898
12694TIP3    H259574   4.025   0.475  17.062  1.6665  0.3972 -1.5207
12695TIP3   OH259575   6.527   1.206   3.912  0.2885 -0.2797 -0.3387
12695TIP3    H159576   6.517   1.170   4.000  2.5425 -0.5175 -0.1140
12695TIP3    H259577   6.594   1.274   3.920  0.9368 -0.6607 -1.9220
12696TIP3   OH259578   0.940   2.954   1.578 -0.0164  0.2816  0.5740
12696TIP3    H159579   0.922   2.954   1.672 -3.0132 -3.6067  0.2705
12696TIP3    H259580   0.914   3.042   1.549  1.6657  1.8505  3.3373
12697TIP3   OH259581   0.011   5.977  14.445 -0.5852  0.2393  0.5378
12697TIP3    H159582  -0.002   5.967  14.351 -1.7888 -0.8056  0.7912
12697TIP3    H259583   0.106   5.974  14.457 -0.3820 -4.7021 -0.2015
12698TIP3   OH259584   2.178   6.230   0.967 -0.6658  0.2775 -0.1546
12698TIP3    H159585   2.156   6.270   1.051 -2.1669 -0.7904 -0.0126
12698TIP3    H259586   2.095   6.198   0.933  0.0525 -0.0852 -1.6576
12699TIP3   OH259587   2.595   0.708  17.016 -0.0443 -0.1997  0.3768
12699TIP3    H159588   2.618   0.631  17.068  0.9565 -0.5838 -0.5916
12699TIP3    H259589   2.671   0.723  16.960 -1.6570 -0.7942 -2.1161
12700TIP3   OH259590   3.372   1.805   5.156 -0.0639 -0.1031  0.1525
12700TIP3    H159591   3.380   1.740   5.086  0.9289  0.4055 -0.2264
12700TIP3    H259592   3.333   1.757   5.229  0.0881 -0.9712 -0.3263
12701TIP3   OH259593   2.744   2.732   3.960  0.0684 -0.1390  0.5673
12701TIP3    H159594   2.701   2.808   3.998 -0.3747  1.3951 -2.6310
12701TIP3    H259595   2.676   2.664   3.958 -1.1965  1.0853 -1.0696
12702TIP3   OH259596   6.508   6.061  12.485 -0.2856  0.1681  0.0064
12702TIP3    H159597   6.490   6.121  12.557  1.1357 -0.6519  1.0896
12702TIP3    H259598   6.602   6.069  12.468  0.2514 -2.6181  1.0762
12703TIP3   OH259599   5.048   0.271   2.255 -0.4839  1.2329 -0.7321
12703TIP3    H159600   5.128   0.252   2.304 -0.7587 -2.5172 -1.3937
12703TIP3    H259601   5.077   0.319   2.178  1.5835 -1.6258 -1.9303
12704TIP3   OH259602   1.982   1.072  15.485 -0.3631 -0.8652 -0.0610
12704TIP3    H159603   2.065   1.025  15.474  1.8411  2.1087  2.1240
12704TIP3    H259604   1.948   1.041  15.569 -0.4947 -0.7798 -0.0835
12705TIP3   OH259605   4.433   0.719   3.535  0.0483  0.1591 -0.1204
12705TIP3    H159606   4.382   0.724   3.616  0.2235  0.3418 -0.0220
12705TIP3    H259607   4.495   0.647   3.550 -1.1166 -1.0332 -0.7728
12706TIP3   OH259608   2.026   2.129  17.067  0.2026 -0.2015 -0.1645
12706TIP3    H159609   1.964   2.195  17.098 -0.5922 -1.2413  0.5320
12706TIP3    H259610   1.992   2.102  16.981  0.7600  0.5714 -0.6398
12707TIP3   OH259611   3.036   5.181  11.851 -0.8510 -0.4288  0.4855
12707TIP3    H159612   3.116   5.149  11.808 -0.3088  1.3927  0.0247
12707TIP3    H259613   2.965   5.143  11.800 -0.2194  1.3641 -1.9479
12708TIP3   OH259614   1.628   0.788   2.940  0.1614  0.4566  0.3710
12708TIP3    H159615   1.722   0.803   2.929 -0.2278  2.2903 -0.9417
12708TIP3    H259616   1.590   0.816   2.857 -1.3942 -2.2236  0.0628
12709TIP3   OH259617   2.572   1.619  16.131 -0.2836  0.0596  0.5563
12709TIP3    H159618   2.661   1.644  16.107 -0.7390 -0.7234 -2.3375
12709TIP3    H259619   2.519   1.696  16.111 -0.5782 -0.3570 -0.3230
12710TIP3   OH259620   4.871   4.859   5.811  0.2006 -0.1390 -0.6535
12710TIP3    H159621   4.819   4.839   5.888  1.0728  0.1821  0.0401
12710TIP3    H259622   4.960   4.870   5.844  0.8769 -1.4349 -1.9100
12711TIP3   OH259623   5.648   0.099  15.519 -0.6239  0.4367  0.5457
12711TIP3    H159624   5.594   0.045  15.461 -1.1704 -1.1959  2.4839
12711TIP3    H259625   5.671   0.042  15.592  0.4396  2.2637  1.7334
12712TIP3   OH259626   2.212   5.078   3.284  0.6985  0.5725  0.2816
12712TIP3    H159627   2.117   5.087   3.292  0.5675  1.0279 -1.4321
12712TIP3    H259628   2.230   4.989   3.316 -0.5193 -0.1058 -0.8242
12713TIP3   OH259629   5.113   1.343   5.719 -1.0650 -0.3027 -0.5423
12713TIP3    H159630   5.206   1.364   5.723 -1.2119  0.3865 -0.5437
12713TIP3    H259631   5.086   1.340   5.811 -0.8111 -1.6363 -0.4922
12714TIP3   OH259632   4.255   4.705   2.277 -0.1136 -0.2093  0.4538
12714TIP3    H159633   4.236   4.615   2.302  0.8999  0.1296  2.6500
12714TIP3    H259634   4.275   4.749   2.359 -1.6427  2.3212 -0.4371
12715TIP3   OH259635   1.929   1.332  16.663  0.0925 -0.4147 -0.0175
12715TIP3    H159636   1.990   1.333  16.589 -0.3380 -0.8274 -0.3964
12715TIP3    H259637   1.843   1.317  16.622 -0.5282  1.8841  0.3394
12716TIP3   OH259638   6.094   3.960   0.355 -0.1870  0.3411 -0.0896
12716TIP3    H159639   6.177   3.917   0.373 -0.0870  0.5350 -0.0809
12716TIP3    H259640   6.117   4.052   0.339 -0.0712 -0.0518 -2.6316
12717TIP3   OH259641   1.998   6.674  14.428  0.1323  0.2322 -0.4270
12717TIP3    H159642   1.912   6.665  14.471 -0.6256  0.6443 -1.7994
12717TIP3    H259643   1.993   6.758  14.383  0.5968 -0.5436 -1.9759
12718TIP3   OH259644   5.994   4.084  12.584  0.2012  0.2799 -0.7577
12718TIP3    H159645   6.064   4.020  12.568  0.9638  0.7698  0.4963
12718TIP3    H259646   6.038   4.159  12.624 -1.2967 -0.2103  2.0625
12719TIP3   OH259647   6.662   5.607  14.275 -0.0895  0.3499 -0.0325
12719TIP3    H159648   6.724   5.549  14.318 -0.3797  0.9668  1.2413
12719TIP3    H259649   6.702   5.694  14.278 -0.8468  0.6937  0.4889
12720TIP3   OH259650   4.375   1.498   4.712 -0.0202 -0.2063 -0.0013
12720TIP3    H159651   4.348   1.468   4.799 -0.9722  1.4969  0.3300
12720TIP3    H259652   4.296   1.493   4.659 -0.3395  1.9520  0.1714
12721TIP3   OH259653   5.456   6.600  12.733  0.4010 -0.1021 -0.1072
12721TIP3    H159654   5.366   6.589  12.702  0.8817 -1.2733 -1.1822
12721TIP3    H259655   5.495   6.663  12.673  0.6131 -0.4486 -0.3364
12722TIP3   OH259656   3.863   4.715  13.247  0.0253  0.0756  0.3841
12722TIP3    H159657   3.862   4.809  13.263  0.4762  0.0813  0.3911
12722TIP3    H259658   3.857   4.706  13.152 -0.2539  0.1035  0.3989
12723TIP3   OH259659   0.543   6.159   0.653 -0.1974  0.0681 -0.2385
12723TIP3    H159660   0.595   6.082   0.675  1.0863  0.8057 -0.6296
12723TIP3    H259661   0.535   6.157   0.558 -2.3382 -0.9295 -0.1004
12724TIP3   OH259662   0.758   2.526   2.224 -0.2106  0.5726 -0.8178
12724TIP3    H159663   0.763   2.440   2.267  1.2255 -0.1019 -2.1957
12724TIP3    H259664   0.731   2.586   2.293  2.1861 -0.3980  1.1200
12725TIP3   OH259665   4.147   3.521  11.199 -0.2514 -0.6421  0.6474
12725TIP3    H159666   4.183   3.605  11.227 -2.7001  0.7573 -0.1193
12725TIP3    H259667   4.173   3.513  11.107 -1.6699  0.2707  0.1505
12726TIP3   OH259668   3.856   5.063   2.438  0.0417  0.5929 -0.4457
12726TIP3    H159669   3.867   4.967   2.436  0.4794  0.5666  1.6050
12726TIP3    H259670   3.921   5.095   2.375 -1.3797 -0.4945 -2.5967
12727TIP3   OH259671   5.485   2.991   2.881  0.5324  0.0566  0.0797
12727TIP3    H159672   5.515   2.916   2.932  2.1030  1.2765  1.0535
12727TIP3    H259673   5.561   3.015   2.827 -0.0010  0.8315 -0.3473
12728TIP3   OH259674   1.001   2.854   2.795 -0.6731  0.2429  1.1137
12728TIP3    H159675   1.095   2.859   2.775 -0.7651 -0.9621  0.2631
12728TIP3    H259676   0.971   2.777   2.748 -1.7529 -0.3817  2.7351
12729TIP3   OH259677   4.021   6.036   0.992 -0.4826 -0.2033 -0.1522
12729TIP3    H159678   4.104   5.999   1.020 -0.4756 -0.4590 -0.5034
12729TIP3    H259679   4.036   6.130   0.987  0.5158 -0.4353 -2.6040
12730TIP3   OH259680   1.637   1.973  16.735 -0.1977  0.7469 -0.3306
12730TIP3    H159681   1.555   2.012  16.704  0.1200  0.9556 -0.9060
12730TIP3    H259682   1.653   1.900  16.674  0.2531  0.9511 -0.4542
12731TIP3   OH259683   2.830   1.136  11.069  0.0012 -0.1334 -0.5117
12731TIP3    H159684   2.801   1.225  11.086 -1.1544 -1.0412  3.1178
12731TIP3    H259685   2.911   1.146  11.017 -1.0376  2.8542 -1.7400
12732TIP3   OH259686   2.555   2.795  13.150 -0.2080 -0.3137  0.8974
12732TIP3    H159687   2.519   2.714  13.187 -0.5951 -0.9799 -0.8181
12732TIP3    H259688   2.494   2.817  13.079  2.1430 -0.9071 -1.4467
12733TIP3   OH259689   1.106   2.573   3.486  0.0563  0.2395  0.3503
12733TIP3    H159690   1.084   2.565   3.579  0.7417  1.0156  0.5926
12733TIP3    H259691   1.201   2.570   3.483  0.0289 -1.9862 -0.5778
12734TIP3   OH259692   3.258   1.591   4.269  0.1409  0.2918 -0.6061
12734TIP3    H159693   3.334   1.533   4.274  0.9485  1.2135 -1.6225
12734TIP3    H259694   3.284   1.658   4.206 -0.6809  1.8634  0.6663
12735TIP3   OH259695   5.062   4.738   2.018  0.0318 -0.2634  0.6243
12735TIP3    H159696   5.042   4.718   1.927 -1.7076  0.4269  0.8137
12735TIP3    H259697   5.148   4.779   2.016 -1.0441  2.1664 -1.0821
12736TIP3   OH259698   4.156   1.080   3.889  0.0510  0.0645  0.1766
12736TIP3    H159699   4.240   1.120   3.866  0.3861 -0.8603 -0.2605
12736TIP3    H259700   4.157   0.995   3.845 -1.2993  0.2105 -0.1967
12737TIP3   OH259701   0.791   5.349  16.888 -0.4446 -0.2153 -0.0329
12737TIP3    H159702   0.707   5.385  16.861 -0.0790 -1.1037 -2.5477
12737TIP3    H259703   0.852   5.376  16.820  0.8351 -1.5710  0.5221
12738TIP3   OH259704   6.341   1.931  12.239  0.3014  0.0446  0.5762
12738TIP3    H159705   6.284   1.971  12.173  1.5227  0.2492 -0.3963
12738TIP3    H259706   6.371   1.850  12.198  1.8373  0.6445  0.4509
12739TIP3   OH259707   1.343   3.922  14.683  0.1308 -0.2419  0.1513
12739TIP3    H159708   1.333   4.015  14.703 -1.6755 -0.1648 -0.8398
12739TIP3    H259709   1.433   3.912  14.653 -0.4794  1.8251 -2.7213
12740TIP3   OH259710   0.993   5.007  14.827  0.3228 -0.2663 -0.9685
12740TIP3    H159711   0.998   5.073  14.896  0.1185 -2.9428  1.8143
12740TIP3    H259712   0.900   4.989  14.817  0.3846 -0.2597 -1.5821
12741TIP3   OH259713   0.677   1.103   1.374  0.6677  0.1097  0.4538
12741TIP3    H159714   0.632   1.037   1.426  0.2106 -0.6711 -0.8702
12741TIP3    H259715   0.770   1.084   1.388  0.5484 -0.2897  0.7371
12742TIP3   OH259716   0.865   5.894  12.403  0.3943 -0.1247 -0.1233
12742TIP3    H159717   0.876   5.811  12.356  0.1223  0.3495 -1.0417
12742TIP3    H259718   0.883   5.961  12.338 -2.7239  0.6086 -0.3842
12743TIP3   OH259719   2.912   6.410   3.689  0.4015 -0.0081  0.0246
12743TIP3    H159720   2.903   6.422   3.783 -0.1532 -0.6333  0.0556
12743TIP3    H259721   2.990   6.356   3.679  0.9579  0.7690  0.0687
12744TIP3   OH259722   4.688   4.520   1.747 -0.0477  0.5143 -0.0690
12744TIP3    H159723   4.615   4.557   1.797 -0.3546 -1.8234  1.3623
12744TIP3    H259724   4.713   4.589   1.686 -1.2513  2.6207  1.6887
12745TIP3   OH259725   2.926   4.437  15.122  0.4554 -0.4131  0.4159
12745TIP3    H159726   2.875   4.370  15.077  1.4325 -0.8672 -0.0524
12745TIP3    H259727   2.901   4.519  15.081 -1.9075 -0.2534  2.0294
12746TIP3   OH259728   3.573   5.491  13.957 -0.2977 -0.4669  0.6158
12746TIP3    H159729   3.632   5.510  14.030  0.0407 -0.5231  0.3599
12746TIP3    H259730   3.568   5.395  13.955 -2.0468 -0.4459  1.9395
12747TIP3   OH259731   4.778   5.091  14.208 -0.0157 -0.0036 -0.0028
12747TIP3    H159732   4.739   5.004  14.205  0.2750 -0.1261 -0.2669
12747TIP3    H259733   4.872   5.076  14.205  0.1246  0.2354  1.8064
12748TIP3   OH259734   0.196   4.327   0.732 -0.4988  0.3911 -0.5127
12748TIP3    H159735   0.127   4.381   0.693  0.8100  2.1109 -0.5771
12748TIP3    H259736   0.269   4.335   0.671  0.4619  0.3442  0.6030
12749TIP3   OH259737   1.555   2.280   6.184  0.3048 -0.2438  0.1201
12749TIP3    H159738   1.625   2.234   6.231  0.8135  0.0851 -0.3047
12749TIP3    H259739   1.598   2.358   6.148 -0.5583  0.6128  0.8874
12750TIP3   OH259740   1.661   4.735  16.135 -0.2299 -0.4024 -0.1106
12750TIP3    H159741   1.633   4.809  16.188 -0.8654 -1.1843  0.6838
12750TIP3    H259742   1.754   4.726  16.154  0.4255  1.5970 -1.9967
12751TIP3   OH259743   5.509   3.218  15.563  0.0015 -0.6133 -0.0152
12751TIP3    H159744   5.550   3.188  15.482  1.2109  2.6403 -0.7688
12751TIP3    H259745   5.417   3.194  15.554  0.5806 -2.6579 -1.0978
12752TIP3   OH259746   1.042   2.432   1.680  0.5116 -0.3455 -0.5739
12752TIP3    H159747   0.952   2.465   1.680  0.2483 -0.9311  1.1579
12752TIP3    H259748   1.033   2.338   1.695  1.3975 -0.0677  2.5462
12753TIP3   OH259749   4.735   0.586  16.415 -0.0581 -0.0380  0.8312
12753TIP3    H159750   4.734   0.572  16.510 -0.4653 -1.2857  0.6627
12753TIP3    H259751   4.705   0.503  16.378  0.3648  0.3337 -0.4071
12754TIP3   OH259752   6.076   1.363  12.021 -0.1269 -0.3396 -0.2432
12754TIP3    H159753   6.084   1.273  11.991  1.4044 -1.0375  2.0444
12754TIP3    H259754   5.982   1.377  12.032 -0.3684 -1.7333 -0.3930
12755TIP3   OH259755   5.642   6.649  14.779 -0.3097  0.5034  0.1627
12755TIP3    H159756   5.694   6.650  14.699  1.5291  1.1661  1.2980
12755TIP3    H259757   5.642   6.740  14.810 -0.1207  0.0923  1.4332
12756TIP3   OH259758   4.520   6.385   5.202  0.5089  0.1231  0.4276
12756TIP3    H159759   4.532   6.313   5.139 -1.6148 -0.7869  0.9689
12756TIP3    H259760   4.454   6.441   5.161  0.1467  0.2823  1.2131
12757TIP3   OH259761   1.385   1.103  14.728  0.4858 -0.0644 -0.0312
12757TIP3    H159762   1.414   1.052  14.653  0.5687  0.7245 -0.5444
12757TIP3    H259763   1.413   1.052  14.804  2.8291  0.4122 -0.4936
12758TIP3   OH259764   4.108   4.374  14.817 -0.2523  0.1028 -0.2254
12758TIP3    H159765   4.149   4.457  14.845 -0.7168 -0.1106  1.1584
12758TIP3    H259766   4.162   4.306  14.858 -0.5551 -0.2485 -0.4053
12759TIP3   OH259767   1.324   3.346  12.783 -0.7855  0.5209  0.4691
12759TIP3    H159768   1.342   3.322  12.874 -0.8124  0.4908  0.4668
12759TIP3    H259769   1.300   3.264  12.741  0.7555  0.2528  0.0513
12760TIP3   OH259770   6.724   4.788  14.108 -0.0931  0.2917  0.0679
12760TIP3    H159771   6.662   4.791  14.035  0.3279  0.3412 -0.2941
12760TIP3    H259772   6.671   4.807  14.186 -0.4894  0.5730 -0.2659
12761TIP3   OH259773   4.060   5.522  12.415 -0.6495  0.2254 -0.0392
12761TIP3    H159774   4.035   5.477  12.334  0.4958  0.3341 -0.4686
12761TIP3    H259775   3.988   5.583  12.431 -1.5055 -0.7018 -0.2573
12762TIP3   OH259776   4.439   4.564   4.993  0.1935  0.2626  0.4480
12762TIP3    H159777   4.508   4.598   4.935 -0.2534 -0.4735 -0.5488
12762TIP3    H259778   4.366   4.545   4.934 -1.3672  2.2169  1.6444
12763TIP3   OH259779   3.803   2.577   3.211 -0.2045 -0.0771 -0.1937
12763TIP3    H159780   3.748   2.606   3.283 -1.1273 -1.0343 -0.4937
12763TIP3    H259781   3.892   2.596   3.240 -0.5956  0.0802  0.9477
12764TIP3   OH259782   2.976   4.866  13.412 -0.6267 -0.0665  0.5089
12764TIP3    H159783   2.927   4.837  13.489 -1.7186  1.7223  0.5202
12764TIP3    H259784   3.068   4.861  13.439 -0.6974 -3.1690  0.5845
12765TIP3   OH259785   6.283   5.117  10.764  0.0868 -0.0456  0.1116
12765TIP3    H159786   6.365   5.074  10.740 -0.7941 -1.6004 -0.2318
12765TIP3    H259787   6.288   5.203  10.721  1.2125 -0.3919 -0.4977
12766TIP3   OH259788   0.075   5.573  17.024  0.0260 -0.6432  0.5510
12766TIP3    H159789  -0.013   5.588  17.057 -0.0087 -1.7725  1.0150
12766TIP3    H259790   0.103   5.492  17.066  1.6396  0.1627  1.1505
12767TIP3   OH259791   5.497   3.596  12.547  0.3443 -0.5832 -0.3920
12767TIP3    H159792   5.531   3.533  12.611 -1.8570  1.9819  3.7269
12767TIP3    H259793   5.425   3.549  12.504  0.3473 -1.6726  0.7385
12768TIP3   OH259794   1.029   3.578  11.380 -0.0294 -0.2378  0.2620
12768TIP3    H159795   1.023   3.590  11.474  0.6112 -1.1539  0.4386
12768TIP3    H259796   1.001   3.487  11.366  0.3829 -0.2771 -0.3594
12769TIP3   OH259797   6.122   3.924   3.544  0.6964  0.3991 -0.0319
12769TIP3    H159798   6.044   3.869   3.549  0.1441  1.2357  2.3844
12769TIP3    H259799   6.148   3.922   3.452 -3.1665  1.3961 -1.3482
12770TIP3   OH259800   6.686   4.075   0.272  0.3322  0.0690  0.4073
12770TIP3    H159801   6.668   4.135   0.344  0.1894  1.4466 -0.7283
12770TIP3    H259802   6.780   4.084   0.255 -0.0307  1.5478 -1.0645
12771TIP3   OH259803   0.929   1.530   2.360 -0.4917  0.1236 -0.6048
12771TIP3    H159804   1.006   1.473   2.367 -1.7509 -1.6901 -0.7854
12771TIP3    H259805   0.915   1.539   2.265  0.2011  1.5076 -0.6019
12772TIP3   OH259806   2.587   2.602  12.696 -0.3274  0.5420 -0.9204
12772TIP3    H159807   2.534   2.535  12.741  1.1477 -1.7726 -2.4069
12772TIP3    H259808   2.652   2.628  12.761 -1.1862  0.9208 -0.1797
12773TIP3   OH259809   0.616   6.256  15.681 -0.6513  0.0960 -0.1142
12773TIP3    H159810   0.585   6.188  15.622  1.1442  0.0586 -1.0885
12773TIP3    H259811   0.639   6.329  15.624  0.6561  0.2418  0.5641
12774TIP3   OH259812   1.136   3.607   2.920  0.5554  0.2443  0.0842
12774TIP3    H159813   1.061   3.576   2.969 -0.0675 -0.0222 -1.0036
12774TIP3    H259814   1.194   3.531   2.915  0.9254  0.4602  0.9531
12775TIP3   OH259815   1.132   3.816   3.612 -0.2815 -0.6058 -0.5005
12775TIP3    H159816   1.183   3.817   3.531  1.3871  0.2134  0.5169
12775TIP3    H259817   1.087   3.901   3.612  2.1802  0.8166  0.8512
12776TIP3   OH259818   0.899   0.312  14.127  0.0944 -0.1463  0.0216
12776TIP3    H159819   0.831   0.248  14.104  0.4217 -0.7132  0.5904
12776TIP3    H259820   0.921   0.354  14.044 -1.9478  1.0723  0.0133
12777TIP3   OH259821   6.457   2.574  16.192  0.4650 -0.4463 -0.5726
12777TIP3    H159822   6.544   2.612  16.202  0.4335 -0.8098  1.4064
12777TIP3    H259823   6.453   2.505  16.258 -0.1695 -2.6860 -2.7726
12778TIP3   OH259824   1.391   3.696   0.822 -0.3585 -0.3607  0.6468
12778TIP3    H159825   1.452   3.741   0.764 -1.5158  2.3370  1.3719
12778TIP3    H259826   1.387   3.606   0.787  3.5728 -0.5875  0.3170
12779TIP3   OH259827   3.909   2.865   1.128 -0.3406 -0.6360 -0.3329
12779TIP3    H159828   3.833   2.919   1.106 -0.4250 -1.0288 -1.0566
12779TIP3    H259829   3.953   2.913   1.198 -1.1095 -0.2723 -0.0842
12780TIP3   OH259830   4.281   5.008   4.339  0.4784 -0.1387 -0.2197
12780TIP3    H159831   4.318   5.073   4.280 -2.3307  2.8581  1.0640
12780TIP3    H259832   4.202   4.977   4.294 -0.4020  0.4086  0.9222
12781TIP3   OH259833   3.994   2.395   4.943 -0.1161 -0.3228  0.5788
12781TIP3    H159834   3.978   2.321   5.001 -1.9678 -0.5009 -0.0953
12781TIP3    H259835   3.983   2.360   4.855 -0.5040  0.6265  0.2296
12782TIP3   OH259836   1.708   3.815  16.908  0.6093 -0.1974 -0.0120
12782TIP3    H159837   1.770   3.774  16.848  0.2319  1.4933 -1.6142
12782TIP3    H259838   1.633   3.838  16.854 -0.0370  0.7848  1.2477
12783TIP3   OH259839   6.102   5.889   5.150 -0.1351 -0.0039 -0.4637
12783TIP3    H159840   6.094   5.937   5.232 -0.7179  2.1906 -1.7162
12783TIP3    H259841   6.184   5.920   5.112  1.2800 -2.6094  0.1755
12784TIP3   OH259842   1.154   0.642  16.972 -0.2075  0.3506  0.5610
12784TIP3    H159843   1.207   0.609  17.045 -0.9092 -0.2803  0.8027
12784TIP3    H259844   1.179   0.587  16.898 -1.6997 -1.0999  1.0678
12785TIP3   OH259845   6.720   3.495   1.223 -0.1505 -0.5073 -0.2023
12785TIP3    H159846   6.783   3.459   1.286  1.6378 -0.4786 -1.8753
12785TIP3    H259847   6.694   3.420   1.170  0.3045 -0.1250 -0.9891
12786TIP3   OH259848   0.971   0.285   5.001 -0.0441  0.3428 -0.2866
12786TIP3    H159849   1.062   0.272   4.976  0.6693 -0.9116  2.5640
12786TIP3    H259850   0.974   0.350   5.071 -1.1985 -0.3615  0.4557
12787TIP3   OH259851   3.985   1.367   5.198  0.2168  0.0369  0.0242
12787TIP3    H159852   3.926   1.411   5.136  0.3358 -0.3565 -0.3713
12787TIP3    H259853   3.969   1.410   5.282  1.6802  2.1579 -0.7029
12788TIP3   OH259854   0.471   1.610  16.289 -0.2354 -0.2906  0.1663
12788TIP3    H159855   0.561   1.635  16.267 -0.5665  1.3336  0.5165
12788TIP3    H259856   0.452   1.536  16.232  1.3750 -0.7704  0.2051
12789TIP3   OH259857   0.377   0.960   1.839 -0.4319  0.4799 -0.1006
12789TIP3    H159858   0.314   0.940   1.908 -0.6123  1.9174  0.1717
12789TIP3    H259859   0.369   1.054   1.826  0.6183  0.4452 -1.1005
12790TIP3   OH259860   2.880   6.309   1.832 -0.6394 -0.0811  0.3387
12790TIP3    H159861   2.841   6.386   1.792  0.6070  0.6085  0.3791
12790TIP3    H259862   2.879   6.327   1.926  0.0601  0.1138  0.3201
12791TIP3   OH259863   3.684   2.720   3.447 -0.4611  0.1350  0.4348
12791TIP3    H159864   3.768   2.694   3.485  0.3699 -0.1638 -1.4736
12791TIP3    H259865   3.618   2.681   3.505  0.5717  2.4747  3.4285
12792TIP3   OH259866   4.503   2.447   1.718  0.0009  0.3543  0.2502
12792TIP3    H159867   4.596   2.459   1.698 -0.1294  0.9627 -0.0071
12792TIP3    H259868   4.479   2.366   1.672  0.2741  0.4818 -0.1250
12793TIP3   OH259869   0.272   0.495  13.368 -0.0046 -0.0683  0.3708
12793TIP3    H159870   0.187   0.539  13.373  0.1817  0.1590  2.2538
12793TIP3    H259871   0.328   0.544  13.427  0.8306 -1.4961  0.8117
12794TIP3   OH259872   1.299   2.610   3.150  0.4109  0.1594 -0.2697
12794TIP3    H159873   1.219   2.660   3.163  1.4579  1.8265  0.0920
12794TIP3    H259874   1.279   2.522   3.182 -1.0184  0.7523  0.5227
12795TIP3   OH259875   1.345   6.208  17.023 -0.3912  0.5435 -0.0515
12795TIP3    H159876   1.261   6.173  17.054 -0.5339  1.4020  0.5495
12795TIP3    H259877   1.383   6.136  16.973 -0.8789 -0.3356  0.7969
12796TIP3   OH259878   3.627   3.985   0.083 -0.0291 -0.5238  0.1155
12796TIP3    H159879   3.561   3.915   0.081  1.4011 -1.9166  0.0643
12796TIP3    H259880   3.685   3.965   0.010  2.2557 -1.2098  1.9695
12797TIP3   OH259881   5.182   2.384  15.087 -0.1752 -0.1744 -0.6591
12797TIP3    H159882   5.142   2.406  15.003 -1.5298 -1.5319 -0.4123
12797TIP3    H259883   5.231   2.304  15.070 -0.1334 -0.2380 -0.2486
12798TIP3   OH259884   3.536   3.116  13.819 -0.4424 -0.3665  0.0480
12798TIP3    H159885   3.524   3.021  13.831 -1.9077  0.1038  3.5231
12798TIP3    H259886   3.630   3.128  13.814 -0.1112 -2.2669 -5.5159
12799TIP3   OH259887   6.123   4.602  15.972 -0.1811  0.2450  0.1520
12799TIP3    H159888   6.095   4.573  15.885 -0.4043 -0.1220  0.3438
12799TIP3    H259889   6.218   4.613  15.963  0.0025 -1.0944  0.2129
12800TIP3   OH259890   6.518   3.290   2.881 -0.2446  0.5919 -0.6199
12800TIP3    H159891   6.548   3.315   2.793  4.0559 -1.8203 -0.1538
12800TIP3    H259892   6.469   3.208   2.867 -2.0238  1.6623 -0.9150
12801TIP3   OH259893   1.511   4.229   4.441 -0.1321  0.0709  0.2303
12801TIP3    H159894   1.472   4.236   4.354  1.0952  2.0116 -0.2052
12801TIP3    H259895   1.597   4.189   4.426 -0.5431 -1.0952  0.7908
12802TIP3   OH259896   5.184   6.786  13.984  0.7342 -0.0724 -0.9289
12802TIP3    H159897   5.233   6.778  14.066  0.1098  1.3688 -0.3951
12802TIP3    H259898   5.227   6.724  13.924  0.4014 -2.1197  0.8391
12803TIP3   OH259899   5.962   2.627   5.412 -0.3560 -0.2994  1.2355
12803TIP3    H159900   5.877   2.584   5.415 -0.0430 -0.9402  1.0317
12803TIP3    H259901   5.948   2.711   5.456 -2.0204  1.3061 -2.0673
12804TIP3   OH259902   1.165   3.148   6.358 -0.2043 -0.4569  0.9954
12804TIP3    H159903   1.178   3.054   6.370 -0.8680 -0.5574  0.9950
12804TIP3    H259904   1.073   3.156   6.333  0.4560 -0.0257 -1.5496
12805TIP3   OH259905   5.656   4.682   5.020  0.3361  0.6997 -0.1409
12805TIP3    H159906   5.747   4.654   5.031  0.1769  0.0282 -0.4320
12805TIP3    H259907   5.616   4.669   5.106 -0.1081 -1.4758 -0.6123
12806TIP3   OH259908   6.755   4.566  14.907  0.2616 -0.3159 -0.3440
12806TIP3    H159909   6.734   4.652  14.944 -0.0584 -0.6344  0.2315
12806TIP3    H259910   6.691   4.553  14.837 -0.2465 -0.4589  0.1444
12807TIP3   OH259911   5.789   0.775   3.419 -0.6708  0.1310  0.5248
12807TIP3    H159912   5.874   0.781   3.463 -0.8795  0.8553  0.8303
12807TIP3    H259913   5.725   0.796   3.487 -1.3882 -3.5932  1.2424
12808TIP3   OH259914   0.337   4.371   1.431  0.2666  0.6653 -0.2015
12808TIP3    H159915   0.333   4.400   1.340  1.9845 -0.1340 -0.5822
12808TIP3    H259916   0.422   4.405   1.462 -0.0436  0.4404  0.9258
12809TIP3   OH259917   4.822   0.973  11.368  0.0511 -0.1051 -0.2079
12809TIP3    H159918   4.917   0.958  11.371  0.0699  0.1319  0.8711
12809TIP3    H259919   4.789   0.929  11.447 -0.7297 -0.1505 -0.5565
12810TIP3   OH259920   3.137   0.846  16.316  0.4699 -0.2339 -0.7294
12810TIP3    H159921   3.042   0.851  16.328  0.4867 -0.8179 -0.2950
12810TIP3    H259922   3.150   0.771  16.258  0.6319  0.2495 -1.3260
12811TIP3   OH259923   5.752   4.357   1.435 -0.2070  0.4857 -0.3244
12811TIP3    H159924   5.671   4.307   1.424 -0.6548  1.4932 -1.9260
12811TIP3    H259925   5.725   4.436   1.482  0.1586  0.1101  0.5403
12812TIP3   OH259926   6.300   5.572   0.930  0.1284  0.2753 -0.2380
12812TIP3    H159927   6.260   5.512   0.867  1.1901 -1.7133  0.8673
12812TIP3    H259928   6.329   5.647   0.878  0.0650 -0.8408 -1.9486
12813TIP3   OH259929   2.289   2.545   2.666 -0.2882  0.1462  0.3598
12813TIP3    H159930   2.201   2.560   2.632  0.0189  0.2180 -0.4135
12813TIP3    H259931   2.276   2.484   2.739 -1.2999  2.2515  2.0752
12814TIP3   OH259932   4.482   0.576  16.246 -0.0860 -0.5073  0.1582
12814TIP3    H159933   4.407   0.534  16.288 -0.4745 -0.9918 -0.9933
12814TIP3    H259934   4.553   0.513  16.257 -0.1362 -0.5498  0.2498
12815TIP3   OH259935   3.729   5.545  12.392  0.5039  0.5108  0.0066
12815TIP3    H159936   3.782   5.619  12.420  0.4340  0.9045 -0.8602
12815TIP3    H259937   3.717   5.559  12.298 -0.3453 -0.0727  0.0218
12816TIP3   OH259938   2.203   5.854  14.135  0.0395  0.4006 -0.0230
12816TIP3    H159939   2.292   5.838  14.104  0.6455 -1.4138  2.2954
12816TIP3    H259940   2.214   5.897  14.220 -1.1274 -1.3534  1.1180
12817TIP3   OH259941   1.937   0.599   1.207  0.3390 -0.1030 -0.0951
12817TIP3    H159942   1.878   0.642   1.146  0.3927  0.1272  0.0148
12817TIP3    H259943   2.025   0.620   1.176  0.3677 -1.0270 -0.6656
12818TIP3   OH259944   4.033   3.221  14.883 -0.9751  0.9274 -0.4175
12818TIP3    H159945   4.022   3.139  14.932  1.9283  1.6790  1.7500
12818TIP3    H259946   3.973   3.282  14.924 -0.0307  0.9870  0.9562
12819TIP3   OH259947   3.542   0.239   3.661  0.0043 -0.2623  0.0589
12819TIP3    H159948   3.598   0.245   3.583 -0.1085  1.1072  0.0634
12819TIP3    H259949   3.463   0.195   3.629  0.1835 -0.2029 -0.4849
12820TIP3   OH259950   4.295   0.882  12.342 -0.0183 -0.1692  0.4266
12820TIP3    H159951   4.321   0.950  12.403 -1.1045  0.8082 -0.1570
12820TIP3    H259952   4.224   0.836  12.386 -1.2782  0.9800 -0.3254
12821TIP3   OH259953   0.161   6.670   3.854  0.3806 -0.0477  0.1145
12821TIP3    H159954   0.247   6.645   3.887  0.8829  1.8431  0.3121
12821TIP3    H259955   0.171   6.669   3.759  1.0902  1.5875  0.1398
12822TIP3   OH259956   2.366   1.995   2.473  0.8902 -0.0625 -0.1404
12822TIP3    H159957   2.294   1.978   2.412  0.3124  0.1288  0.4687
12822TIP3    H259958   2.343   2.079   2.513  1.6659  0.1935 -0.2350
12823TIP3   OH259959   1.825   3.213   6.455 -0.5974  0.1152 -0.6936
12823TIP3    H159960   1.879   3.211   6.376 -0.5332 -0.4534 -0.6421
12823TIP3    H259961   1.820   3.305   6.479  0.2885  0.1870 -0.7456
12824TIP3   OH259962   2.114   3.550   1.572  0.2839  0.1477 -0.3320
12824TIP3    H159963   2.125   3.474   1.515  0.2443 -1.0720  1.2300
12824TIP3    H259964   2.171   3.532   1.647  0.4784  1.7938 -0.0493
12825TIP3   OH259965   4.412   2.115  10.900  0.1053  0.0820 -0.4017
12825TIP3    H159966   4.422   2.025  10.868 -0.4184  0.1641 -0.8084
12825TIP3    H259967   4.488   2.162  10.865  0.5580 -0.2742  0.0857
12826TIP3   OH259968   3.648   6.484   6.261 -0.3424  0.1198 -0.2012
12826TIP3    H159969   3.723   6.520   6.215  0.8275 -2.2806 -0.3022
12826TIP3    H259970   3.576   6.491   6.198  0.1562  0.9558 -0.7005
12827TIP3   OH259971   2.012   6.426   5.602 -0.0217  0.5159  0.0607
12827TIP3    H159972   2.048   6.390   5.521 -0.1644  1.0176 -0.2298
12827TIP3    H259973   2.032   6.519   5.598  0.9221  0.3797  1.1156
12828TIP3   OH259974   2.471   6.569  11.843 -0.3369  1.0706  0.1486
12828TIP3    H159975   2.503   6.635  11.904  1.1589 -0.9431  1.6779
12828TIP3    H259976   2.493   6.486  11.884 -0.3243 -0.3963 -2.6134
12829TIP3   OH259977   5.646   3.538  13.032  0.1299  0.3669  0.1358
12829TIP3    H159978   5.694   3.503  13.107  0.3082 -0.7463 -0.4883
12829TIP3    H259979   5.661   3.476  12.962  0.2428  1.5673 -0.9467
12830TIP3   OH259980   0.876   1.371  13.827  0.5879 -0.0460 -0.1579
12830TIP3    H159981   0.848   1.399  13.914  1.6546 -0.8606  0.4784
12830TIP3    H259982   0.862   1.448  13.771 -0.9273  0.2085  0.5232
12831TIP3   OH259983   2.311   3.260  14.544  0.3540  0.0445 -1.1193
12831TIP3    H159984   2.231   3.251  14.492  0.2238  1.9080 -1.2911
12831TIP3    H259985   2.382   3.260  14.480  0.6853 -2.8570 -0.8985
12832TIP3   OH259986   5.755   3.266  13.799 -0.0971 -0.5781 -0.1454
12832TIP3    H159987   5.825   3.324  13.768  1.6587 -2.6128 -0.1516
12832TIP3    H259988   5.742   3.292  13.890  0.6203 -0.1469 -0.1539
12833TIP3   OH259989   0.131   5.272   3.574  0.4863  0.2979  0.4695
12833TIP3    H159990   0.095   5.345   3.625  0.7798  1.5575 -1.0338
12833TIP3    H259991   0.054   5.231   3.534  0.4250  0.7591  0.1017
12834TIP3   OH259992   5.434   0.506  14.816 -0.1161 -0.8148  0.1363
12834TIP3    H159993   5.357   0.562  14.830  1.3921  1.2929  0.5035
12834TIP3    H259994   5.480   0.547  14.743  2.5063  0.1853  2.2060
12835TIP3   OH259995   3.342   0.927  15.643 -0.6658 -0.5715  0.2625
12835TIP3    H159996   3.407   0.877  15.694  0.9597  2.1849  1.1168
12835TIP3    H259997   3.388   0.947  15.561 -0.1951  1.7521  1.0398
12836TIP3   OH259998   6.149   4.531   5.235  0.1171 -0.0553 -0.3873
12836TIP3    H159999   6.103   4.451   5.258 -0.5209  0.4074 -0.0190
12836TIP3    H260000   6.190   4.513   5.151 -1.0098 -0.3635 -0.8794
12837TIP3   OH260001   4.887   4.226  12.501 -0.0971 -0.5613 -0.0254
12837TIP3    H160002   4.916   4.263  12.417 -1.1458 -1.0517 -0.6223
12837TIP3    H260003   4.959   4.245  12.561  0.1215  0.9568 -0.7126
12838TIP3   OH260004   3.849   5.969   5.244 -0.0313  0.4311  0.1266
12838TIP3    H160005   3.839   5.911   5.320 -1.0819  1.1017  0.5313
12838TIP3    H260006   3.895   5.917   5.179  1.4739  0.0328  1.4446
12839TIP3   OH260007   0.146   4.586   5.596  0.2791  0.3842 -0.2579
12839TIP3    H160008   0.064   4.607   5.641 -0.7950 -0.2153 -1.8296
12839TIP3    H260009   0.186   4.517   5.649 -0.1469  0.7880  0.6109
12840TIP3   OH260010   6.099   2.010   5.576 -0.0487  0.1520  0.3734
12840TIP3    H160011   6.079   2.103   5.566 -1.5785 -0.2063 -0.2428
12840TIP3    H260012   6.069   1.970   5.495  1.9095 -0.7173  0.0199
12841TIP3   OH260013   1.257   3.222   3.478 -0.5513  0.2967 -0.4938
12841TIP3    H160014   1.341   3.188   3.448 -0.1733  0.4676  0.3627
12841TIP3    H260015   1.203   3.225   3.399  0.2153  0.0993 -1.0313
12842TIP3   OH260016   5.426   2.880  14.918 -0.0898  0.1917 -0.4977
12842TIP3    H160017   5.442   2.879  15.012  1.0416  1.4235 -0.6440
12842TIP3    H260018   5.361   2.812  14.903 -0.6249  0.2966  1.2353
12843TIP3   OH260019   1.435   0.660   3.133  0.0832 -0.0510 -0.0133
12843TIP3    H160020   1.484   0.578   3.127 -0.6924 -0.4368 -1.5362
12843TIP3    H260021   1.430   0.691   3.043 -1.7243  0.4139  0.2163
12844TIP3   OH260022   0.598   1.538   2.904 -0.7667 -0.2191  0.6308
12844TIP3    H160023   0.581   1.562   2.814 -1.1671  0.1513  0.8051
12844TIP3    H260024   0.660   1.465   2.898 -0.1413  0.3415  0.0850
12845TIP3   OH260025   0.356   3.437   1.302 -0.1426  0.8491  0.1850
12845TIP3    H160026   0.322   3.525   1.318 -0.7549  0.8105 -0.8290
12845TIP3    H260027   0.309   3.406   1.225 -0.1130 -0.4744  0.6682
12846TIP3   OH260028   6.284   0.302   0.703  0.7001  0.3254 -0.4802
12846TIP3    H160029   6.340   0.374   0.673 -0.2119  1.1416 -0.2619
12846TIP3    H260030   6.275   0.245   0.627  1.0326  0.7013 -0.8042
12847TIP3   OH260031   6.632   2.186  15.630  0.1769  0.4092 -0.1909
12847TIP3    H160032   6.604   2.278  15.638 -2.2732 -0.2590 -0.1890
12847TIP3    H260033   6.690   2.185  15.554 -1.7327  1.5898 -1.7732
12848TIP3   OH260034   4.706   0.131   3.829 -0.1123 -0.4045 -0.1179
12848TIP3    H160035   4.627   0.159   3.874 -0.1806 -2.4345  1.2052
12848TIP3    H260036   4.704   0.035   3.835  2.5960 -0.5302  0.3043
12849TIP3   OH260037   0.194   2.020   5.927 -0.5449 -0.3300 -0.2890
12849TIP3    H160038   0.264   2.018   5.992 -0.3608 -0.8999 -0.5005
12849TIP3    H260039   0.135   2.088   5.958 -0.9745 -1.2596  1.0124
12850TIP3   OH260040   1.456   0.059  11.217  0.2284 -0.3899  0.2713
12850TIP3    H160041   1.405  -0.013  11.254 -0.9601  0.4226  0.2493
12850TIP3    H260042   1.533   0.016  11.178 -1.0295 -1.7702 -0.7916
12851TIP3   OH260043   0.897   3.598   0.170  0.2930  0.0693 -0.5975
12851TIP3    H160044   0.850   3.515   0.180  1.4147 -0.5800 -0.5690
12851TIP3    H260045   0.845   3.647   0.106  0.7927 -1.5480 -2.3318
12852TIP3   OH260046   4.341   2.509   5.654 -0.3901 -0.5078 -0.3146
12852TIP3    H160047   4.301   2.582   5.701 -1.6564 -1.1152 -0.3973
12852TIP3    H260048   4.426   2.496   5.696 -2.1724 -2.2273  3.1781
12853TIP3   OH260049   4.160   1.075  14.979 -0.5253  0.1162  0.2138
12853TIP3    H160050   4.181   1.169  14.977  1.3944 -0.1539  2.7480
12853TIP3    H260051   4.243   1.031  14.962 -0.8502 -1.0866  1.5536
12854TIP3   OH260052   4.573   5.749   2.444  0.4620 -0.2293 -0.3902
12854TIP3    H160053   4.644   5.686   2.428  2.0680  0.8720  1.8283
12854TIP3    H260054   4.616   5.835   2.440 -1.0639  0.5629 -0.3989
12855TIP3   OH260055   3.961   1.036   5.623 -0.3220  0.4932 -0.1877
12855TIP3    H160056   3.926   1.085   5.698 -1.2462  0.3754 -0.5192
12855TIP3    H260057   3.967   0.945   5.653 -0.8575  0.4161 -0.2991
12856TIP3   OH260058   5.147   6.280  11.069 -0.1414  0.5070  0.0413
12856TIP3    H160059   5.130   6.324  10.986 -0.3037  0.2380 -0.0698
12856TIP3    H260060   5.239   6.299  11.089  0.8534 -1.8972 -1.7129
12857TIP3   OH260061   2.749   1.085   1.171  0.5773 -0.2220 -0.3705
12857TIP3    H160062   2.679   1.144   1.143 -0.4261 -1.0714  0.2421
12857TIP3    H260063   2.734   1.005   1.120  1.3931 -0.2618 -0.5622
12858TIP3   OH260064   0.731   6.531   1.173 -0.3194  0.1127  0.4767
12858TIP3    H160065   0.646   6.487   1.163  1.1997 -3.1891  0.7577
12858TIP3    H260066   0.795   6.460   1.169  2.5360  2.5492 -0.5106
12859TIP3   OH260067   0.129   4.182   1.343 -0.3930  0.3992  0.2370
12859TIP3    H160068   0.160   4.164   1.254  1.1590 -2.5656  1.2089
12859TIP3    H260069   0.209   4.194   1.394 -1.0352 -1.3931  1.7838
12860TIP3   OH260070   1.044   1.484  11.137  0.6917  0.3144 -0.3143
12860TIP3    H160071   1.033   1.522  11.050 -0.5839 -0.1981 -0.3995
12860TIP3    H260072   1.067   1.393  11.121 -0.2784  0.0224 -0.1452
12861TIP3   OH260073   3.987   6.657  16.169  0.1208  0.5064 -0.0494
12861TIP3    H160074   3.941   6.582  16.130 -0.1678  0.8187 -0.3094
12861TIP3    H260075   4.080   6.636  16.155  0.0946 -0.3539  0.9042
12862TIP3   OH260076   1.666   5.378   0.682 -0.0653 -0.9075 -0.7242
12862TIP3    H160077   1.581   5.414   0.657  0.3371 -0.5510 -1.6070
12862TIP3    H260078   1.697   5.333   0.604  0.4658 -1.2241 -0.3346
12863TIP3   OH260079   1.263   0.382  14.282 -0.3101  0.0105  0.3846
12863TIP3    H160080   1.218   0.298  14.280  0.0511 -0.1943 -1.8783
12863TIP3    H260081   1.271   0.407  14.190  0.0867  2.2641  0.9744
12864TIP3   OH260082   2.418   0.063   2.804  0.4550 -0.4414 -0.4411
12864TIP3    H160083   2.510   0.090   2.799  0.6186 -1.2523 -2.8021
12864TIP3    H260084   2.369   0.140   2.777  0.3523  0.1615  1.3256
12865TIP3   OH260085   6.788   6.825   5.398 -0.4429  0.1790  0.1465
12865TIP3    H160086   6.727   6.753   5.381 -2.0505  1.4315  0.3695
12865TIP3    H260087   6.831   6.801   5.480  0.7907 -1.6093 -0.9550
12866TIP3   OH260088   2.354   3.861   3.711  0.4579 -0.5955  0.2032
12866TIP3    H160089   2.380   3.811   3.634  0.7292 -0.2546  0.0726
12866TIP3    H260090   2.379   3.806   3.785 -1.3448 -1.7117  0.0472
12867TIP3   OH260091   5.607   0.360  10.485 -0.0539  0.0084  0.0503
12867TIP3    H160092   5.547   0.427  10.452 -0.2461  0.4326  1.2416
12867TIP3    H260093   5.683   0.409  10.516  0.7955 -0.5015 -1.1307
12868TIP3   OH260094   1.850   6.509   5.313  0.4034 -0.4202 -0.2995
12868TIP3    H160095   1.878   6.431   5.266 -0.6954 -0.0168 -1.6944
12868TIP3    H260096   1.926   6.568   5.309  0.5144 -0.6007 -1.1325
12869TIP3   OH260097   4.109   5.411  12.665  0.2344 -0.2786 -0.8356
12869TIP3    H160098   4.088   5.478  12.731  0.6833 -2.7089  2.0225
12869TIP3    H260099   4.104   5.457  12.581 -1.1112  2.8789  0.8006
12870TIP3   OH260100   5.416   2.656  14.320 -0.1293 -0.2609  0.3333
12870TIP3    H160101   5.507   2.655  14.289 -0.0999  0.4280  0.3764
12870TIP3    H260102   5.424   2.673  14.414 -0.3066 -0.1553  0.3290
12871TIP3   OH260103   5.674   4.054  15.479 -0.7827  0.0957  0.1743
12871TIP3    H160104   5.680   4.087  15.568 -0.0276 -2.0912  1.0137
12871TIP3    H260105   5.698   4.128  15.424 -1.8782  1.6734  1.7343
12872TIP3   OH260106   0.891   1.291   0.525 -0.0439 -0.1630  0.3176
12872TIP3    H160107   0.983   1.290   0.553  0.3801  0.2208 -1.0267
12872TIP3    H260108   0.867   1.383   0.524 -0.8021 -0.3115  1.7051
12873TIP3   OH260109   2.380   6.715   1.448  0.2767 -0.2769  0.3150
12873TIP3    H160110   2.366   6.687   1.538  0.4292  0.6505  0.6320
12873TIP3    H260111   2.295   6.747   1.419  0.7396  1.6357  0.9299
12874TIP3   OH260112   1.904   5.368   4.005 -0.0071  0.0857 -0.4076
12874TIP3    H160113   1.987   5.413   3.987 -0.2383  0.4590 -0.5327
12874TIP3    H260114   1.881   5.395   4.093 -1.6730  2.6311 -1.5086
12875TIP3   OH260115   6.023   0.550  14.015 -0.0893  0.5059 -0.5791
12875TIP3    H160116   6.043   0.553  13.921  1.6348 -1.3693 -0.3390
12875TIP3    H260117   6.031   0.457  14.038  2.5588  1.2080  1.9787
12876TIP3   OH260118   4.322   2.445  15.370 -0.0114 -0.0718  0.3341
12876TIP3    H160119   4.237   2.465  15.411 -0.1524  1.6102 -0.7068
12876TIP3    H260120   4.308   2.361  15.327 -1.7819  0.9854 -1.3305
12877TIP3   OH260121   4.599   4.370   2.260 -0.6950 -0.3143  0.0042
12877TIP3    H160122   4.598   4.398   2.352 -1.6978  1.0411 -0.3953
12877TIP3    H260123   4.690   4.380   2.233 -0.5854  0.2525  0.5668
12878TIP3   OH260124   6.317   3.204   0.467 -0.8046 -0.2038  0.0748
12878TIP3    H160125   6.237   3.244   0.433 -1.1221 -1.5908 -0.8658
12878TIP3    H260126   6.293   3.176   0.556 -0.8986  0.6878  0.3437
12879TIP3   OH260127   4.563   6.800  14.308  0.3639 -0.0027 -0.8232
12879TIP3    H160128   4.474   6.790  14.273  0.7650 -1.3012 -1.5327
12879TIP3    H260129   4.562   6.755  14.392  0.2771  0.2664 -0.6774
12880TIP3   OH260130   6.485   3.052   5.591  0.9337 -0.2229 -0.0129
12880TIP3    H160131   6.452   3.136   5.622  0.1616 -0.3673 -0.4023
12880TIP3    H260132   6.462   2.989   5.660  0.8041 -0.2443 -0.0749
12881TIP3   OH260133   6.192   0.681   4.890 -0.1298 -0.0671 -0.3138
12881TIP3    H160134   6.262   0.724   4.839  0.5489 -1.3808 -0.5385
12881TIP3    H260135   6.239   0.633   4.958 -0.8219 -0.8901 -0.4069
12882TIP3   OH260136   0.486   2.918   0.862 -0.0557  0.4491  0.3440
12882TIP3    H160137   0.424   2.845   0.854 -0.0500  0.5204 -0.4769
12882TIP3    H260138   0.447   2.988   0.809 -0.2555  1.1846  1.4319
12883TIP3   OH260139   1.887   5.599   4.527  0.0363  0.1530  0.1151
12883TIP3    H160140   1.881   5.615   4.621  1.7066 -1.6526  0.5917
12883TIP3    H260141   1.797   5.577   4.500 -0.3929  0.3207  1.3638
12884TIP3   OH260142   3.629   2.383  16.246  0.0571  0.6321 -0.0119
12884TIP3    H160143   3.699   2.445  16.267  0.6675 -0.1094  0.2050
12884TIP3    H260144   3.629   2.321  16.319 -0.3317  0.1983 -0.3718
12885TIP3   OH260145   4.854   4.095  15.386  0.0343 -0.7569  0.3168
12885TIP3    H160146   4.768   4.052  15.382  0.1099 -1.0185  1.4055
12885TIP3    H260147   4.871   4.106  15.479  1.9400 -2.2255  0.1910
12886TIP3   OH260148   5.831   2.396  13.141  0.4274 -0.1891 -0.5922
12886TIP3    H160149   5.768   2.396  13.069 -0.0207  0.0372 -0.2146
12886TIP3    H260150   5.843   2.489  13.162 -1.7833 -0.2982  1.5780
12887TIP3   OH260151   2.241   4.723   0.835 -0.1881  0.6536  0.3772
12887TIP3    H160152   2.310   4.730   0.901 -0.3852  0.9879  0.5529
12887TIP3    H260153   2.256   4.797   0.777 -0.7497  1.0847  0.7611
12888TIP3   OH260154   3.823   1.853  16.680 -0.8989 -0.2512  0.2268
12888TIP3    H160155   3.897   1.863  16.740 -1.9304 -0.7401  1.6352
12888TIP3    H260156   3.849   1.780  16.622  0.9255  1.4678 -1.2814
12889TIP3   OH260157   3.642   1.023   3.525 -0.2864 -0.2460  0.3932
12889TIP3    H160158   3.561   0.981   3.498 -0.0043 -2.1682  2.2476
12889TIP3    H260159   3.632   1.115   3.498 -4.1947  0.2530  2.6790
12890TIP3   OH260160   2.524   5.593   0.164 -0.4839 -0.6704 -0.2590
12890TIP3    H160161   2.470   5.622   0.237 -1.8665  1.5416 -2.0180
12890TIP3    H260162   2.614   5.606   0.194 -1.0182  0.7483  0.8767
12891TIP3   OH260163   2.518   3.913  13.361 -0.3235  0.1714  0.2948
12891TIP3    H160164   2.485   3.823  13.357 -0.8550  0.3089  1.2116
12891TIP3    H260165   2.481   3.948  13.442  1.5017  0.5577  1.0108
12892TIP3   OH260166   2.934   3.306  15.228  0.1318 -0.3198 -0.6302
12892TIP3    H160167   2.910   3.244  15.159  1.5425  0.1564 -1.5740
12892TIP3    H260168   3.000   3.259  15.280  2.1646  0.7456 -2.0933
12893TIP3   OH260169   4.271   3.838  13.682  0.4022 -0.1137  0.0500
12893TIP3    H160170   4.259   3.755  13.728 -2.8465  0.1153 -0.1564
12893TIP3    H260171   4.332   3.818  13.611 -1.4893 -2.8382 -0.9866
12894TIP3   OH260172   2.140   4.230   6.580 -0.0514  0.2086  0.0812
12894TIP3    H160173   2.151   4.167   6.652  0.1669 -0.9090 -0.8871
12894TIP3    H260174   2.047   4.225   6.557 -0.1468  0.6587  0.3659
12895TIP3   OH260175   4.443   5.376   4.381 -0.2125  0.2290  0.1968
12895TIP3    H160176   4.415   5.309   4.318 -1.3211 -0.2748  1.1715
12895TIP3    H260177   4.517   5.420   4.340  0.1069 -1.1597 -0.7569
12896TIP3   OH260178   5.336   4.922   5.523 -0.0569  0.5592 -0.1039
12896TIP3    H160179   5.260   4.867   5.542  0.5536  0.2619  1.7351
12896TIP3    H260180   5.301   4.994   5.471 -1.2919 -0.3891 -0.6413
12897TIP3   OH260181   2.408   2.517  12.063 -0.3820 -0.8056  0.0209
12897TIP3    H160182   2.473   2.478  12.122 -0.7380 -0.3514  0.7389
12897TIP3    H260183   2.414   2.467  11.982  2.7210  0.8452 -0.9255
12898TIP3   OH260184   1.547   3.474  13.559 -0.7997 -0.0858  0.0584
12898TIP3    H160185   1.573   3.521  13.480  0.4813 -2.3390 -0.9773
12898TIP3    H260186   1.455   3.453  13.545 -1.2090  1.4614  0.2506
12899TIP3   OH260187   0.334   1.165  12.745 -0.0544 -0.1564  0.2619
12899TIP3    H160188   0.350   1.227  12.816  4.6925 -0.0659 -0.5844
12899TIP3    H260189   0.331   1.080  12.789 -1.4763  0.2089  0.9263
12900TIP3   OH260190   4.775   1.198   1.802 -0.3019 -0.3591 -0.0539
12900TIP3    H160191   4.814   1.135   1.863 -0.2074 -0.9824 -0.7376
12900TIP3    H260192   4.696   1.154   1.771 -1.0415  0.4896  0.5791
12901TIP3   OH260193   1.960   4.559  14.688 -0.1074 -0.1538  0.1935
12901TIP3    H160194   2.025   4.616  14.730 -0.1840  0.2796 -0.2700
12901TIP3    H260195   1.947   4.597  14.601 -0.6046 -0.5325  0.0992
12902TIP3   OH260196   4.351   1.177   2.512 -0.4221  0.0813  0.6565
12902TIP3    H160197   4.295   1.191   2.588 -1.5834 -1.5938  0.1538
12902TIP3    H260198   4.293   1.145   2.444  1.1160 -1.7486  0.1135
12903TIP3   OH260199   5.280   1.708  14.935  0.0555 -0.7823  1.0008
12903TIP3    H160200   5.302   1.785  14.988 -2.2183 -0.1828  1.1633
12903TIP3    H260201   5.203   1.670  14.978 -0.7646 -1.3327 -0.8490
12904TIP3   OH260202   0.923   3.537  16.347  0.4116 -0.0576 -0.1310
12904TIP3    H160203   0.962   3.552  16.261  2.2898 -0.5502  0.5793
12904TIP3    H260204   0.983   3.475  16.389 -0.8221 -0.3261  1.2892
12905TIP3   OH260205   2.055   3.451  15.766  0.0057  0.6666  0.3599
12905TIP3    H160206   1.967   3.456  15.727 -0.4627 -1.5115  0.9716
12905TIP3    H260207   2.085   3.541  15.770 -1.6378  1.3432 -1.1602
12906TIP3   OH260208   2.697   2.478   5.308  0.2373  0.1107 -0.3156
12906TIP3    H160209   2.730   2.529   5.382 -0.3729  1.4328 -0.9204
12906TIP3    H260210   2.610   2.449   5.336  1.0301 -1.6323  0.4779
12907TIP3   OH260211   1.959   6.571  12.067 -0.0355  0.2830  0.0089
12907TIP3    H160212   1.913   6.643  12.025 -2.2867  0.4835  2.5058
12907TIP3    H260213   1.897   6.498  12.065  0.4998 -0.2423  1.2520
12908TIP3   OH260214   3.601   1.335  16.503 -1.0420  0.1823 -0.4887
12908TIP3    H160215   3.589   1.385  16.584  0.5974 -0.8148  0.4302
12908TIP3    H260216   3.523   1.280  16.497 -0.2435 -1.3547  1.7056
12909TIP3   OH260217   3.540   5.117   3.506  0.0910  0.0781  0.5652
12909TIP3    H160218   3.561   5.155   3.591 -0.9774  0.0524  0.8555
12909TIP3    H260219   3.494   5.036   3.526 -0.1824  0.0816 -0.0260
12910TIP3   OH260220   1.305   5.045   5.399 -0.1366  0.0049  0.4688
12910TIP3    H160221   1.335   5.135   5.387 -1.4889  0.2116 -1.7841
12910TIP3    H260222   1.246   5.050   5.475 -0.8228  1.1934 -0.1145
12911TIP3   OH260223   0.367   0.441  12.401  0.5051  0.2796  0.3448
12911TIP3    H160224   0.345   0.534  12.391  0.1882  0.5512  2.9449
12911TIP3    H260225   0.457   0.441  12.432 -0.1293 -0.1315  2.3032
12912TIP3   OH260226   6.681   6.719   2.302 -0.5894 -0.5100 -0.4914
12912TIP3    H160227   6.602   6.712   2.247  0.2796 -0.8981 -1.7216
12912TIP3    H260228   6.718   6.631   2.303 -0.1745 -0.3374  0.1130
12913TIP3   OH260229   3.519   2.018   3.582  0.6682 -0.3122 -0.0218
12913TIP3    H160230   3.539   1.931   3.546  0.1041 -0.2472 -0.5013
12913TIP3    H260231   3.528   2.006   3.677  0.8462 -0.8305 -0.0969
12914TIP3   OH260232   6.313   3.523   4.143 -0.2608  0.0131  0.2280
12914TIP3    H160233   6.222   3.539   4.169  0.1178 -0.7670  2.1644
12914TIP3    H260234   6.324   3.575   4.063 -2.3528  0.2375  0.0165
12915TIP3   OH260235   0.228   5.177   2.474  0.0453 -0.4888 -0.5486
12915TIP3    H160236   0.281   5.253   2.451 -1.3711  0.5814 -0.4751
12915TIP3    H260237   0.275   5.102   2.438  0.2328  0.6705 -2.9156
12916TIP3   OH260238   5.023   5.080   6.274  0.0036 -0.6579 -0.3365
12916TIP3    H160239   5.058   5.168   6.291  1.7530 -1.3259 -0.2722
12916TIP3    H260240   4.931   5.086   6.297  0.2093  1.0214  0.1793
12917TIP3   OH260241   1.359   3.485  14.038  0.4768  0.3349 -0.1815
12917TIP3    H160242   1.317   3.552  14.092  1.0855  1.3446 -0.9350
12917TIP3    H260243   1.296   3.413  14.037  0.9759 -0.2749  2.9174
12918TIP3   OH260244   0.523   2.514  12.838  0.1224 -0.5431 -0.2450
12918TIP3    H160245   0.510   2.559  12.921  0.3334 -2.0947  0.6579
12918TIP3    H260246   0.523   2.421  12.860 -0.6131 -1.0320 -2.0925
12919TIP3   OH260247   5.945   1.835  12.328  0.3275 -0.1571 -0.3621
12919TIP3    H160248   5.878   1.897  12.302  1.6128  1.2440 -0.5102
12919TIP3    H260249   5.989   1.811  12.246 -0.0052 -1.1107 -0.2787
12920TIP3   OH260250   3.008   2.326   3.890  0.2604  0.1031 -0.0653
12920TIP3    H160251   3.031   2.391   3.824  0.4124 -0.5528 -0.6666
12920TIP3    H260252   2.949   2.373   3.950  1.7733  1.3181  0.5419
12921TIP3   OH260253   4.383   5.629   1.821 -0.6240 -0.9685 -0.4388
12921TIP3    H160254   4.449   5.584   1.768  1.4828  0.8510  0.4725
12921TIP3    H260255   4.375   5.576   1.901  0.3818 -0.7670 -0.1963
12922TIP3   OH260256   5.565   0.534   2.868 -0.1474  0.5898  0.0001
12922TIP3    H160257   5.520   0.618   2.882 -0.2767  0.3882  0.8546
12922TIP3    H260258   5.630   0.530   2.939  0.1719  0.1730 -0.3112
12923TIP3   OH260259   2.192   6.565  15.716 -0.5746  0.3545 -0.3461
12923TIP3    H160260   2.224   6.489  15.669 -0.0443 -0.3371  1.0755
12923TIP3    H260261   2.109   6.536  15.755  1.0938 -0.6784  2.8523
12924TIP3   OH260262   2.743   1.903  14.587  0.3847  0.5263  0.1018
12924TIP3    H160263   2.725   1.859  14.671  2.2203 -0.6274 -0.0363
12924TIP3    H260264   2.773   1.990  14.612  1.4289  0.0177  0.7388
12925TIP3   OH260265   5.314   5.991  13.672  0.2511  0.0640  0.2977
12925TIP3    H160266   5.347   5.974  13.760 -1.7576  1.3766  1.3956
12925TIP3    H260267   5.233   5.942  13.667  0.9351 -0.9700 -1.3253
12926TIP3   OH260268   1.198   3.417   7.046 -1.0284  0.8130 -0.2715
12926TIP3    H160269   1.185   3.429   6.952 -1.5277  0.8331 -0.2026
12926TIP3    H260270   1.202   3.506   7.081  1.2641  0.8596 -0.5370
12927TIP3   OH260271   5.616   2.447   3.388 -0.4275  0.1744 -0.5541
12927TIP3    H160272   5.709   2.444   3.406 -0.3290  3.7275  0.2471
12927TIP3    H260273   5.583   2.522   3.438 -3.9939 -1.6485  0.1947
12928TIP3   OH260274   3.852   2.603   1.037  0.2523  0.1291  0.1369
12928TIP3    H160275   3.789   2.607   1.109  0.5741 -1.0382  0.5070
12928TIP3    H260276   3.894   2.689   1.037  0.3519  0.1068  1.4443
12929TIP3   OH260277   3.220   1.242   1.224  0.1944 -0.2097 -0.2463
12929TIP3    H160278   3.302   1.193   1.224  0.9351  0.9467  1.0676
12929TIP3    H260279   3.153   1.178   1.202  1.2251 -1.6253  0.5951
12930TIP3   OH260280   4.828   5.321   3.463  0.4280  0.7154  0.2110
12930TIP3    H160281   4.848   5.231   3.436 -0.1035  0.4338  0.7306
12930TIP3    H260282   4.749   5.344   3.415  1.7325  1.6954 -1.5590
12931TIP3   OH260283   4.732   1.816  15.423  0.7971 -0.1547 -0.0003
12931TIP3    H160284   4.694   1.733  15.451 -0.7708  0.2949 -0.7015
12931TIP3    H260285   4.778   1.849  15.500 -2.0242  0.2926  1.6233
12932TIP3   OH260286   4.377   1.968   0.336 -0.1217 -0.3786  0.0521
12932TIP3    H160287   4.383   1.873   0.344  2.2006 -0.2469  0.8759
12932TIP3    H260288   4.299   1.991   0.385 -1.1582 -1.8944 -0.7948
12933TIP3   OH260289   5.624   6.271  15.808  0.1138 -0.5287  0.1890
12933TIP3    H160290   5.651   6.268  15.899 -0.0640  0.3800  0.2740
12933TIP3    H260291   5.548   6.212  15.804  0.6384 -1.2430  0.4331
12934TIP3   OH260292   0.777   6.037  16.993  0.4811 -0.1976 -0.5099
12934TIP3    H160293   0.687   6.004  16.992  0.7376 -0.9156 -1.5438
12934TIP3    H260294   0.772   6.121  16.949  0.1826  0.1817  0.2214
12935TIP3   OH260295   3.421   4.486  11.510 -0.2383 -0.0460  0.3961
12935TIP3    H160296   3.409   4.395  11.483 -0.9770 -0.2649  1.3994
12935TIP3    H260297   3.436   4.533  11.428  0.9490 -1.1758 -0.0646
12936TIP3   OH260298   0.777   5.022   3.147 -0.3206  0.5696  0.2592
12936TIP3    H160299   0.861   5.024   3.193  0.1856 -0.5489 -0.5681
12936TIP3    H260300   0.796   5.060   3.061 -0.6939  0.4248  0.1121
12937TIP3   OH260301   4.027   2.627   2.549 -0.1913  0.0655 -0.1209
12937TIP3    H160302   3.965   2.567   2.592 -0.5604 -0.1325 -0.9208
12937TIP3    H260303   4.023   2.605   2.457  1.3013 -0.1400 -0.1637
12938TIP3   OH260304   3.540   1.210  13.274  0.0760 -0.6607  0.0396
12938TIP3    H160305   3.546   1.183  13.366 -0.7968  0.7880  0.5625
12938TIP3    H260306   3.448   1.232  13.262  0.5068  0.9058 -0.6434
12939TIP3   OH260307   3.101   2.866   2.015 -0.7127 -0.4843  0.1132
12939TIP3    H160308   3.040   2.829   2.079 -0.4971  1.1936  1.3463
12939TIP3    H260309   3.054   2.940   1.976  0.6700  1.2452  1.5479
12940TIP3   OH260310   6.530   2.318   4.499 -0.3401 -0.5271 -0.0740
12940TIP3    H160311   6.493   2.357   4.578 -0.0034 -0.5543  0.0991
12940TIP3    H260312   6.577   2.390   4.456  1.3446 -1.0129  0.8936
12941TIP3   OH260313   0.381   3.975  16.090  0.8974 -0.2570  0.4011
12941TIP3    H160314   0.370   4.046  16.154 -0.6796 -2.1615  2.3998
12941TIP3    H260315   0.340   4.008  16.011  0.0051  0.9924  1.3388
12942TIP3   OH260316   2.642   4.639  11.398  0.1628  0.2480 -0.0144
12942TIP3    H160317   2.715   4.621  11.457  1.5230 -0.4464 -1.8140
12942TIP3    H260318   2.575   4.678  11.454  1.3404 -0.4427  1.9761
12943TIP3   OH260319   1.484   6.021   0.873 -0.1593 -0.0826 -0.6919
12943TIP3    H160320   1.506   6.072   0.795 -1.2064 -0.0721 -1.0053
12943TIP3    H260321   1.563   5.972   0.894  0.7047  1.2677 -0.6912
12944TIP3   OH260322   0.943   0.929   1.600  0.7731  0.0637  0.6205
12944TIP3    H160323   0.868   0.870   1.594  1.0341 -0.3014  0.9093
12944TIP3    H260324   0.938   0.982   1.520  0.8744 -0.7662  0.0414
12945TIP3   OH260325   5.704   4.061  13.620  0.4669  0.2701 -0.2822
12945TIP3    H160326   5.782   4.006  13.613 -0.0137 -0.5704  0.7248
12945TIP3    H260327   5.665   4.037  13.704 -0.4339  1.2772 -0.3856
12946TIP3   OH260328   1.752   3.808   0.517 -0.0734 -0.4449 -0.7215
12946TIP3    H160329   1.840   3.799   0.553  0.0836  0.0965 -0.9562
12946TIP3    H260330   1.760   3.876   0.450 -1.3381  1.9673  1.4393
12947TIP3   OH260331   2.460   2.253   6.284  0.1711  0.3235  0.2417
12947TIP3    H160332   2.438   2.195   6.211  0.2718 -0.4416  0.8100
12947TIP3    H260333   2.409   2.220   6.358  2.1212 -0.6575  1.2482
12948TIP3   OH260334   2.949   0.544  10.945 -0.1403 -0.5644  0.2245
12948TIP3    H160335   2.897   0.466  10.966 -0.4358 -0.4776 -0.1799
12948TIP3    H260336   2.991   0.523  10.862  0.5259 -0.6567  0.5711
12949TIP3   OH260337   1.818   3.706   0.819  0.2533  0.4925  0.3276
12949TIP3    H160338   1.852   3.749   0.740 -0.0085  0.9308  0.4467
12949TIP3    H260339   1.723   3.705   0.806  0.1384  1.3351  1.0057
12950TIP3   OH260340   0.200   1.407   5.230  0.1082 -0.2253 -0.3155
12950TIP3    H160341   0.250   1.356   5.167  1.1732  0.7749 -0.3166
12950TIP3    H260342   0.163   1.342   5.290  2.2928 -0.9615  0.3208
12951TIP3   OH260343   3.250   5.514  12.365 -0.5552  0.0872  0.0764
12951TIP3    H160344   3.243   5.557  12.280  0.0554  0.1188  0.0369
12951TIP3    H260345   3.344   5.499  12.376 -0.4825  1.3001  1.3468
12952TIP3   OH260346   4.025   5.076   1.437  0.2808 -0.1547  0.0706
12952TIP3    H160347   3.978   5.006   1.484  0.8515  0.2997  1.3584
12952TIP3    H260348   4.003   5.156   1.485 -0.2242  0.5550 -1.2829
12953TIP3   OH260349   0.999   1.601  12.252 -0.0595 -0.2894 -0.3912
12953TIP3    H160350   0.918   1.550  12.251 -0.3908  0.2219 -1.0539
12953TIP3    H260351   1.061   1.547  12.204  0.4223 -1.3128  1.3071
12954TIP3   OH260352   6.500   4.561  12.716  0.3922  0.2464  0.6001
12954TIP3    H160353   6.503   4.577  12.622  1.2457 -2.5668  0.0446
12954TIP3    H260354   6.592   4.565  12.743  0.2845 -0.2435  1.0463
12955TIP3   OH260355   6.202   4.340   1.592  0.1328  0.1023 -0.2336
12955TIP3    H160356   6.275   4.349   1.530 -0.8677  1.0017 -1.3176
12955TIP3    H260357   6.184   4.429   1.621 -1.8313  0.1963 -1.5481
12956TIP3   OH260358   3.707   5.251  10.842  0.8091  0.4010  0.1437
12956TIP3    H160359   3.694   5.316  10.773  0.1842 -0.4969 -0.6115
12956TIP3    H260360   3.761   5.183  10.801  1.7110  0.5618  1.0148
12957TIP3   OH260361   4.341   0.106  13.990 -0.7265 -0.0786 -0.2864
12957TIP3    H160362   4.392   0.187  13.985 -1.2128  0.2837  0.4858
12957TIP3    H260363   4.344   0.071  13.901 -0.1555  0.5610 -0.5353
12958TIP3   OH260364   0.859   5.758   2.131  0.7414 -0.1207  0.0030
12958TIP3    H160365   0.895   5.677   2.167  0.7470  0.0933  0.4810
12958TIP3    H260366   0.926   5.824   2.146  0.1288  0.2977  0.9731
12959TIP3   OH260367   4.652   6.398  17.160  0.3524  0.1800 -0.0184
12959TIP3    H160368   4.718   6.465  17.178 -0.1672  0.2400  1.8120
12959TIP3    H260369   4.634   6.358  17.245 -0.2429 -1.4646 -0.8779
12960TIP3   OH260370   1.274   0.084  16.615  0.1209  0.3746  0.1522
12960TIP3    H160371   1.362   0.050  16.596  0.1868  1.3993 -1.6070
12960TIP3    H260372   1.237   0.102  16.529 -1.1598  1.6252  0.9358
12961TIP3   OH260373   3.614   0.267  16.960  0.3754  0.2228 -0.2379
12961TIP3    H160374   3.658   0.348  16.985  0.2195  0.2609 -0.0860
12961TIP3    H260375   3.607   0.217  17.041  0.8848 -0.1466 -0.4140
12962TIP3   OH260376   2.432   4.481   1.768  0.1425  0.0884  0.0620
12962TIP3    H160377   2.349   4.523   1.745  0.4771  1.1232  0.7048
12962TIP3    H260378   2.486   4.551   1.803  1.3015 -0.5740 -0.3401
12963TIP3   OH260379   5.860   2.651  12.964  0.6384  0.1529 -0.1468
12963TIP3    H160380   5.875   2.729  12.911 -1.3566  0.5220 -0.2256
12963TIP3    H260381   5.879   2.578  12.905  0.2544  0.5734 -0.8003
12964TIP3   OH260382   3.074   5.488  11.782  0.0175  0.2794  0.5305
12964TIP3    H160383   3.161   5.524  11.764  0.3050 -1.4044 -1.9645
12964TIP3    H260384   3.091   5.411  11.836  0.0716  0.1073  0.2716
12965TIP3   OH260385   4.996   6.757   0.658 -0.0420 -0.5063  0.1182
12965TIP3    H160386   4.901   6.763   0.660 -0.1441 -1.9240  1.3732
12965TIP3    H260387   5.014   6.681   0.603  0.4097  0.0428 -0.5160
12966TIP3   OH260388   2.111   1.106   5.811  0.0523  0.0394  0.3970
12966TIP3    H160389   2.103   1.058   5.894 -0.1451  1.5321  1.2737
12966TIP3    H260390   2.195   1.077   5.776 -1.1934 -2.9421 -0.4747
12967TIP3   OH260391   4.490   1.940  13.525 -0.1278 -0.0262 -0.5009
12967TIP3    H160392   4.494   2.034  13.543 -2.7472 -0.2150  1.6896
12967TIP3    H260393   4.405   1.913  13.558  0.1998 -3.0624 -1.8345
12968TIP3   OH260394   0.928   0.514  16.548 -0.2465  0.4296  0.2649
12968TIP3    H160395   0.915   0.420  16.544 -1.5381  0.4924  1.8610
12968TIP3    H260396   0.911   0.545  16.459  1.7829 -0.9622 -0.6740
12969TIP3   OH260397   2.128   2.715  13.649  0.4556 -0.7534 -0.3935
12969TIP3    H160398   2.084   2.650  13.593 -0.9020 -1.1889  1.0973
12969TIP3    H260399   2.069   2.726  13.724  0.3420  2.6722 -0.8364
12970TIP3   OH260400   0.203   2.417  13.223  0.4613 -0.3174 -0.0196
12970TIP3    H160401   0.153   2.349  13.268  2.2759 -1.6635  0.0675
12970TIP3    H260402   0.229   2.478  13.292 -1.4144  0.7013 -0.1395
12971TIP3   OH260403   1.739   0.897  15.999  0.0190  0.3516  0.6621
12971TIP3    H160404   1.777   0.985  16.004  1.3520 -0.2060  0.4542
12971TIP3    H260405   1.788   0.846  16.062  0.5768 -0.7190 -0.5938
12972TIP3   OH260406   6.159   0.530   4.198 -0.3669  0.6657 -0.3989
12972TIP3    H160407   6.133   0.585   4.124  0.1080  1.2802 -0.1192
12972TIP3    H260408   6.246   0.497   4.173 -1.5586 -1.8366 -1.5885
12973TIP3   OH260409   4.970   1.669   5.379  0.6987 -0.3338  0.4007
12973TIP3    H160410   4.876   1.653   5.368  1.1657 -2.3046 -1.4479
12973TIP3    H260411   4.979   1.764   5.374 -1.0752 -0.1808 -0.7557
12974TIP3   OH260412   6.170   0.020  14.404  0.0189  0.3407  0.3689
12974TIP3    H160413   6.219   0.057  14.330  0.9949 -0.3444  0.6550
12974TIP3    H260414   6.136   0.096  14.451  0.4123  0.8167 -0.1021
12975TIP3   OH260415   1.161   0.434  14.015 -0.5209 -0.4388  0.4743
12975TIP3    H160416   1.149   0.340  14.004 -0.0597 -0.3412 -1.1657
12975TIP3    H260417   1.101   0.474  13.952  0.6274  0.2851 -0.2208
12976TIP3   OH260418   1.846   4.370   4.471 -0.0505  0.5605  0.0672
12976TIP3    H160419   1.850   4.466   4.463 -1.2264  0.6436  0.3191
12976TIP3    H260420   1.937   4.341   4.458  0.9492  1.9272  2.9724
12977TIP3   OH260421   4.619   1.281   4.035 -0.2128 -0.1715  0.9793
12977TIP3    H160422   4.627   1.375   4.021  0.9571 -0.5668 -1.3623
12977TIP3    H260423   4.532   1.270   4.075 -0.8535  1.7786  0.2182
12978TIP3   OH260424   4.819   2.120  13.272 -0.2381  0.2733 -0.3876
12978TIP3    H160425   4.737   2.138  13.225 -0.2307  0.0376 -0.4933
12978TIP3    H260426   4.791   2.082  13.355 -0.2321  0.0922 -0.4687
12979TIP3   OH260427   6.040   1.498   0.678  0.2890  0.2755  0.2923
12979TIP3    H160428   5.955   1.481   0.639 -0.1976  1.2202  0.8898
12979TIP3    H260429   6.022   1.561   0.748  1.3729 -0.0865  0.9182
12980TIP3   OH260430   4.673   4.171   0.018 -0.4428  0.4506 -0.1844
12980TIP3    H160431   4.763   4.186  -0.014 -0.7308  1.2902 -0.6205
12980TIP3    H260432   4.618   4.224  -0.040 -1.2557 -0.2866 -0.1033
12981TIP3   OH260433   0.715   5.085   1.551 -0.2266 -0.4710  0.1086
12981TIP3    H160434   0.646   5.065   1.613 -0.1254 -1.9885 -0.2308
12981TIP3    H260435   0.766   5.154   1.593 -0.3247 -1.2694  1.6003
12982TIP3   OH260436   3.839   1.891  15.712  0.3182  1.2278  0.6086
12982TIP3    H160437   3.824   1.798  15.724  2.1697  0.8263  0.1988
12982TIP3    H260438   3.766   1.921  15.658  0.4065 -0.2713 -0.3883
12983TIP3   OH260439   0.233   3.712  15.801  0.1051  0.2621  0.3011
12983TIP3    H160440   0.220   3.619  15.819 -0.5641  0.3752  0.4275
12983TIP3    H260441   0.161   3.755  15.846 -0.9412  0.6596 -1.6419
12984TIP3   OH260442   2.986   2.850   3.999 -0.6476 -0.4864 -0.6650
12984TIP3    H160443   2.901   2.814   3.972 -0.7885 -0.5325 -0.1716
12984TIP3    H260444   2.967   2.900   4.078 -0.6158  1.4596 -1.8362
12985TIP3   OH260445   6.031   4.140  11.566  0.2389 -0.2492 -0.0049
12985TIP3    H160446   6.060   4.209  11.625  1.4181  0.9091 -1.8571
12985TIP3    H260447   5.987   4.076  11.624  0.7500  1.1136  1.9932
12986TIP3   OH260448   2.698   1.485   2.196  0.1818  0.1441 -0.4323
12986TIP3    H160449   2.725   1.421   2.130 -1.0110 -0.3786 -0.4427
12986TIP3    H260450   2.673   1.562   2.145  0.1399  0.0656 -0.5308
12987TIP3   OH260451   5.184   1.362  11.898 -0.1615  0.3246 -0.5108
12987TIP3    H160452   5.093   1.363  11.928 -0.5464 -0.1237 -1.6304
12987TIP3    H260453   5.206   1.455  11.886 -1.0662  0.3743 -1.9485
12988TIP3   OH260454   5.541   4.867  12.179 -0.3273  0.3578  0.8653
12988TIP3    H160455   5.453   4.866  12.141  0.4435  1.8032 -1.1671
12988TIP3    H260456   5.565   4.960  12.181  1.8175 -0.0935 -0.4024
12989TIP3   OH260457   6.238   4.820   1.301  0.0523  0.3011 -0.4419
12989TIP3    H160458   6.260   4.731   1.275  0.4800  0.3045 -0.1188
12989TIP3    H260459   6.143   4.825   1.292 -0.1017 -0.5141  0.5017
12990TIP3   OH260460   4.172   3.733  16.083 -0.1549 -0.4566  0.5887
12990TIP3    H160461   4.267   3.724  16.093  0.0508  1.1461  0.3153
12990TIP3    H260462   4.135   3.685  16.157  0.7164 -3.6999 -0.8793
12991TIP3   OH260463   3.667   2.106   1.467  0.6298  0.0248 -0.3424
12991TIP3    H160464   3.675   2.200   1.451 -1.9405  0.5511  0.9146
12991TIP3    H260465   3.586   2.097   1.517  1.4779 -2.7493  0.7345
12992TIP3   OH260466   2.810   3.909  13.955 -0.0553 -0.4511 -0.2607
12992TIP3    H160467   2.852   3.907  13.869 -1.6215  1.5112 -1.1615
12992TIP3    H260468   2.869   3.860  14.012  1.4366 -1.1179 -2.2654
12993TIP3   OH260469   3.610   6.112  11.252 -0.2766  0.2892 -0.2343
12993TIP3    H160470   3.611   6.032  11.304 -1.6131  1.7117  2.1940
12993TIP3    H260471   3.585   6.084  11.164  0.3139 -2.0399  0.2765
12994TIP3   OH260472   2.942   1.115   5.756  0.3261 -0.1733  0.4453
12994TIP3    H160473   2.914   1.046   5.696  0.6708  0.6360 -0.6743
12994TIP3    H260474   3.023   1.082   5.794  0.3112 -0.5274  0.1793
12995TIP3   OH260475   1.156   4.850  12.090  0.0280 -0.3649  0.0851
12995TIP3    H160476   1.174   4.939  12.060 -0.3944 -0.7658 -1.4746
12995TIP3    H260477   1.147   4.799  12.009 -0.2212 -1.7287  0.9362
12996TIP3   OH260478   2.397   0.340   6.643  0.1600 -0.0776  0.5423
12996TIP3    H160479   2.453   0.299   6.576 -0.8689  2.4548 -2.0905
12996TIP3    H260480   2.349   0.407   6.595 -2.2573  0.4877  3.4907
12997TIP3   OH260481   1.738   5.531   3.232  0.0377  0.3099 -0.2404
12997TIP3    H160482   1.658   5.571   3.198 -0.8933 -1.5338 -0.3351
12997TIP3    H260483   1.715   5.506   3.322  1.8382  3.3431  1.2431
12998TIP3   OH260484   4.679   3.469  14.042 -0.1778  0.2681  0.5311
12998TIP3    H160485   4.747   3.404  14.054  1.0999  1.5241  0.3551
12998TIP3    H260486   4.649   3.491  14.130 -0.3425 -0.2610  0.6091
12999TIP3   OH260487   4.968   5.594  16.551  0.2617 -0.3362 -0.0925
12999TIP3    H160488   4.965   5.579  16.456 -2.3314  0.7499 -0.2564
12999TIP3    H260489   5.058   5.623  16.567  0.5883  0.1426 -2.3412
13000TIP3   OH260490   6.104   1.628   1.507  0.2804  0.5380 -0.3312
13000TIP3    H160491   6.184   1.631   1.455  0.9307  0.7057  0.6442
13000TIP3    H260492   6.127   1.572   1.582 -1.1139 -1.0176 -1.0001
13001TIP3   OH260493   6.388   1.100   0.279  0.2182 -0.7008 -0.4469
13001TIP3    H160494   6.438   1.111   0.198 -0.5839 -1.5970 -1.0847
13001TIP3    H260495   6.418   1.016   0.314  1.0244 -0.0326  0.5546
13002TIP3   OH260496   2.892   0.286   4.852 -0.9008 -0.2430 -0.1691
13002TIP3    H160497   2.987   0.298   4.848 -1.0751  1.1762 -3.4890
13002TIP3    H260498   2.881   0.191   4.862  0.7621 -0.2504  2.4675
13003TIP3   OH260499   0.513   1.316  13.139 -0.2796  0.2803 -0.0357
13003TIP3    H160500   0.523   1.275  13.053  0.9205  1.5688 -0.5535
13003TIP3    H260501   0.509   1.409  13.120 -0.9995  0.5321  1.2586
13004TIP3   OH260502   6.124   0.906   5.895 -0.1011 -0.3597  0.1946
13004TIP3    H160503   6.116   0.922   5.989 -1.1411  1.5250 -0.1639
13004TIP3    H260504   6.067   0.971   5.855 -0.9896 -2.1884 -1.7065
13005TIP3   OH260505   5.028   0.717  14.100 -0.2222  0.4271  0.3495
13005TIP3    H160506   4.939   0.706  14.067 -0.1996  1.1419  0.0331
13005TIP3    H260507   5.075   0.640  14.067 -0.3920  0.7313 -0.6311
13006TIP3   OH260508   4.785   1.854   6.138 -0.5107 -0.3188 -1.0164
13006TIP3    H160509   4.724   1.826   6.207  0.2944  0.0127 -0.1366
13006TIP3    H260510   4.781   1.785   6.073  1.2777 -2.5378  1.0085
13007TIP3   OH260511   2.718   4.537   0.911 -0.2680  0.4736 -0.3097
13007TIP3    H160512   2.782   4.593   0.866  0.1725  0.6990  0.5665
13007TIP3    H260513   2.721   4.567   1.002 -1.1412  0.0310 -0.1280
13008TIP3   OH260514   6.020   0.641   2.134 -0.3542 -0.0200  0.2002
13008TIP3    H160515   6.095   0.620   2.189  1.3524 -0.8384 -2.2655
13008TIP3    H260516   6.050   0.712   2.078 -1.3423 -0.4641 -0.9414
13009TIP3   OH260517   1.711   1.367   0.276 -0.2626  0.1056  0.2401
13009TIP3    H160518   1.647   1.329   0.337  0.8947  1.1548  2.2329
13009TIP3    H260519   1.680   1.341   0.189 -0.1905 -4.3660  1.3377
13010TIP3   OH260520   0.010   0.281   1.031  0.6055 -0.5866 -0.3273
13010TIP3    H160521  -0.000   0.230   0.951  3.3464 -1.0481 -0.4736
13010TIP3    H260522  -0.020   0.223   1.101 -0.3283 -0.7590 -0.8552
13011TIP3   OH260523   5.928   6.721   1.033 -0.1259 -0.1036  0.3068
13011TIP3    H160524   5.998   6.750   1.090  0.4022 -0.0132 -0.3697
13011TIP3    H260525   5.925   6.626   1.044  1.1454 -0.3122 -0.7761
13012TIP3   OH260526   1.979   5.249   3.629  0.2220  0.0435 -0.3006
13012TIP3    H160527   1.955   5.246   3.537 -0.7729  0.4836 -0.0710
13012TIP3    H260528   1.920   5.187   3.672 -1.8434  2.4015  0.5254
13013TIP3   OH260529   0.275   4.064   0.468 -0.2790  0.0425  0.0663
13013TIP3    H160530   0.250   4.032   0.555  0.5529 -0.8980 -0.0240
13013TIP3    H260531   0.370   4.052   0.465 -0.2079  0.7470 -0.7062
13014TIP3   OH260532   4.652   4.346  11.677 -0.2055  0.0273  0.0505
13014TIP3    H160533   4.696   4.426  11.647  0.6688 -0.5608 -0.2824
13014TIP3    H260534   4.624   4.303  11.596 -1.0038  0.1726  0.2445
13015TIP3   OH260535   2.189   5.884   2.645 -0.7086 -0.1635 -0.2531
13015TIP3    H160536   2.246   5.951   2.682 -0.7285 -1.9231  3.4215
13015TIP3    H260537   2.101   5.907   2.676 -1.1214 -0.4902 -1.1508
13016TIP3   OH260538   3.183   1.870  16.249 -0.7448 -0.5218 -0.4639
13016TIP3    H160539   3.098   1.907  16.272  0.1184  0.8147  0.7702
13016TIP3    H260540   3.185   1.871  16.154 -1.6136  0.6325 -0.4836
13017TIP3   OH260541   4.198   6.624   3.025 -0.2301  0.8102  0.3341
13017TIP3    H160542   4.258   6.554   2.999  1.5537  2.2685  0.2700
13017TIP3    H260543   4.221   6.643   3.117 -0.0204  1.9058  0.0753
13018TIP3   OH260544   4.739   2.135  12.595  0.0789  0.4428 -0.1316
13018TIP3    H160545   4.670   2.189  12.556  1.1836  2.6315  0.7219
13018TIP3    H260546   4.717   2.134  12.689 -0.3877 -1.3879 -0.2341
13019TIP3   OH260547   0.895   0.525  13.119 -0.0705 -0.3954  0.1344
13019TIP3    H160548   0.804   0.498  13.106  0.1996 -0.5639 -1.7939
13019TIP3    H260549   0.899   0.613  13.083  0.8298 -0.9906 -1.3510
13020TIP3   OH260550   1.782   1.098   1.645  0.0903  0.0755 -0.1539
13020TIP3    H160551   1.862   1.097   1.697  0.1056 -0.1344 -0.1825
13020TIP3    H260552   1.810   1.127   1.558  0.0173  0.7301  0.0296
13021TIP3   OH260553   2.318   4.181  14.736 -0.7709  0.2122 -0.3484
13021TIP3    H160554   2.347   4.257  14.686 -1.5443  1.5115  1.0675
13021TIP3    H260555   2.329   4.207  14.828 -1.3903 -1.2458  0.1770
13022TIP3   OH260556   0.501   6.816   2.184  0.4564 -0.4159  0.0943
13022TIP3    H160557   0.417   6.849   2.151 -0.3828 -1.1074  1.4807
13022TIP3    H260558   0.484   6.725   2.206  1.6603 -0.6366  0.1445
13023TIP3   OH260559   2.112   5.524  12.625 -0.2252  0.0294  0.4963
13023TIP3    H160560   2.149   5.500  12.540  0.2703 -0.2183  0.7724
13023TIP3    H260561   2.171   5.592  12.658  0.8076 -1.2888  1.5274
13024TIP3   OH260562   0.209   3.987   2.873  0.3833  0.5735 -0.4948
13024TIP3    H160563   0.140   3.930   2.838  0.2288  1.9600 -2.6935
13024TIP3    H260564   0.231   3.950   2.958  0.0606 -2.5419 -1.6517
13025TIP3   OH260565   3.775   5.868   3.753  0.2918 -0.5095  0.8014
13025TIP3    H160566   3.767   5.958   3.784  2.1507  0.0763 -0.2207
13025TIP3    H260567   3.858   5.837   3.790  1.4463 -0.5431 -1.6024
13026TIP3   OH260568   5.872   5.971  13.952 -0.1394  0.0813 -0.0772
13026TIP3    H160569   5.811   5.922  13.896 -0.0815  0.0454 -0.1091
13026TIP3    H260570   5.886   5.913  14.028  0.9370 -0.5292 -0.7169
13027TIP3   OH260571   2.016   0.024   0.540  0.1565 -0.2305  0.0223
13027TIP3    H160572   2.062   0.006   0.459  0.1345 -0.0976 -0.0204
13027TIP3    H260573   2.082   0.015   0.609  0.4788  0.9211 -0.1232
13028TIP3   OH260574   6.357   5.462  11.671 -0.0244  0.4626 -0.3584
13028TIP3    H160575   6.423   5.415  11.722 -1.6056  0.9591  2.3719
13028TIP3    H260576   6.348   5.412  11.590  0.2475 -2.4228  1.2877
13029TIP3   OH260577   0.642   1.659   0.963 -0.2757  0.8704  0.7103
13029TIP3    H160578   0.689   1.607   0.898 -0.5889  0.0795  1.1009
13029TIP3    H260579   0.607   1.595   1.024 -1.3900  1.4771  0.7353
13030TIP3   OH260580   6.518   0.724   5.166 -0.4870 -0.1999  0.2529
13030TIP3    H160581   6.557   0.705   5.252  0.1992 -1.6268 -0.3441
13030TIP3    H260582   6.591   0.754   5.112 -0.5399 -1.1135 -0.3494
13031TIP3   OH260583   5.824   6.099  15.415  0.5756 -0.0092 -0.2184
13031TIP3    H160584   5.746   6.127  15.368  0.0340  0.8712  1.1203
13031TIP3    H260585   5.791   6.075  15.502  1.6539 -0.6312  0.0266
13032TIP3   OH260586   0.652   6.161  14.612 -0.2401  0.0458 -0.6876
13032TIP3    H160587   0.634   6.068  14.597 -1.1142  0.4722 -2.5935
13032TIP3    H260588   0.583   6.191  14.670 -0.7125 -0.2219 -1.1072
13033TIP3   OH260589   0.337   3.635  15.278  0.5651 -0.1082  0.0099
13033TIP3    H160590   0.423   3.676  15.276  3.0749 -4.2200  4.3380
13033TIP3    H260591   0.286   3.690  15.337  1.0257  1.0010 -0.5910
13034TIP3   OH260592   6.584   2.624   4.702 -0.3234  0.1403  0.0652
13034TIP3    H160593   6.678   2.611   4.718  0.0765 -0.3092 -2.2712
13034TIP3    H260594   6.560   2.698   4.757  1.5140  0.5552  0.3711
13035TIP3   OH260595   0.765   6.450  12.904 -0.0704  0.0316  0.2278
13035TIP3    H160596   0.786   6.539  12.875  0.8124 -0.1073  0.4086
13035TIP3    H260597   0.684   6.459  12.953  0.3566  0.8450  0.8064
13036TIP3   OH260598   1.170   3.645  13.756 -0.1788  0.2924 -0.7342
13036TIP3    H160599   1.095   3.663  13.813 -0.2683  1.1221 -1.0925
13036TIP3    H260600   1.157   3.555  13.727  0.4860 -0.5684  1.4538
13037TIP3   OH260601   0.116   1.174   5.404  0.1845  0.3368 -0.1463
13037TIP3    H160602   0.081   1.168   5.493 -2.1760  1.2927 -0.9133
13037TIP3    H260603   0.166   1.094   5.392 -3.9710 -2.6349  0.2713
13038TIP3   OH260604   4.849   2.380  17.076  0.0299  0.3333 -0.9086
13038TIP3    H160605   4.823   2.434  17.001 -0.5098  1.6196  0.1560
13038TIP3    H260606   4.805   2.420  17.151  1.0911 -0.4970  0.2099
13039TIP3   OH260607   2.719   5.847  11.686  0.1976  0.0047  0.6486
13039TIP3    H160608   2.763   5.763  11.684 -0.0124 -0.1008  0.2848
13039TIP3    H260609   2.676   5.854  11.600 -3.0847 -1.2779  2.0026
13040TIP3   OH260610   5.621   1.142   4.503 -0.0529  0.1539 -0.4731
13040TIP3    H160611   5.664   1.225   4.483 -1.4646  0.7820 -1.0188
13040TIP3    H260612   5.692   1.079   4.513  1.0360  1.4093 -0.1253
13041TIP3   OH260613   1.934   2.448   1.483  0.0265 -0.0421  0.0305
13041TIP3    H160614   1.949   2.382   1.415 -1.0470 -0.1009 -0.1800
13041TIP3    H260615   1.902   2.398   1.558 -0.8061  0.2173 -0.1363
13042TIP3   OH260616   3.057   5.463  15.040  0.0381  0.1561  0.6216
13042TIP3    H160617   3.018   5.545  15.071 -0.6286  0.0486  0.0848
13042TIP3    H260618   2.983   5.411  15.011  0.4874 -0.5229  0.6743
13043TIP3   OH260619   5.060   4.437   4.712 -0.2926 -1.0716 -0.3923
13043TIP3    H160620   5.142   4.408   4.672 -0.7376 -0.8202 -1.4994
13043TIP3    H260621   4.991   4.399   4.658 -0.9094 -0.7951  0.1822
13044TIP3   OH260622   3.013   4.459   0.529 -0.4577 -0.1055  0.0104
13044TIP3    H160623   2.945   4.519   0.498  2.0736  1.3731 -3.3303
13044TIP3    H260624   3.047   4.500   0.609 -1.4154  0.7565 -0.0018
13045TIP3   OH260625   1.595   0.449   3.149 -0.0984 -0.1846 -0.5524
13045TIP3    H160626   1.570   0.391   3.078  1.4534 -0.9931 -0.4861
13045TIP3    H260627   1.684   0.421   3.173 -0.1363  0.8208  0.9204
13046TIP3   OH260628   3.049   2.577   3.330 -0.3731  0.2643  0.4343
13046TIP3    H160629   2.963   2.589   3.371  0.6628  2.1591  2.2673
13046TIP3    H260630   3.080   2.493   3.362 -0.9392  0.2492  0.9611
13047TIP3   OH260631   2.202   0.631  16.431  0.7433 -0.4780  0.8426
13047TIP3    H160632   2.175   0.544  16.461 -0.9799  0.0709  0.9592
13047TIP3    H260633   2.270   0.614  16.366 -0.3613 -1.9729  0.0164
13048TIP3   OH260634   1.164   2.828  16.495 -0.4147  0.3244 -0.0200
13048TIP3    H160635   1.148   2.734  16.487 -0.4013  0.5096 -3.3142
13048TIP3    H260636   1.256   2.835  16.518 -0.4157 -0.4347  0.2555
13049TIP3   OH260637   0.923   6.079  11.466  0.5765  0.4952  0.4663
13049TIP3    H160638   0.834   6.077  11.430 -0.1223 -1.0714  2.1448
13049TIP3    H260639   0.974   6.129  11.401 -1.1671  0.0902 -1.3077
13050TIP3   OH260640   5.741   5.722  12.440  0.3763 -0.8611  0.7621
13050TIP3    H160641   5.712   5.682  12.359 -1.8068  1.1133  0.4768
13050TIP3    H260642   5.678   5.692  12.506 -0.2526  0.6514  0.8802
13051TIP3   OH260643   0.551   4.754   5.442  0.5205  0.0099 -0.1052
13051TIP3    H160644   0.516   4.841   5.463  0.1584 -0.4665  1.4109
13051TIP3    H260645   0.475   4.703   5.414  0.6103 -0.0393 -0.2653
13052TIP3   OH260646   1.135   6.217   0.885 -0.1166 -0.1295 -0.1742
13052TIP3    H160647   1.124   6.228   0.791  0.0130 -0.0158 -0.1756
13052TIP3    H260648   1.223   6.182   0.895  1.7097  3.9988  0.1824
13053TIP3   OH260649   2.410   6.021   2.109 -0.3136  0.5960 -0.1559
13053TIP3    H160650   2.486   5.981   2.065  0.6955 -0.3266  2.2621
13053TIP3    H260651   2.337   5.964   2.087 -0.2037  1.0545 -1.8745
13054TIP3   OH260652   1.825   4.301  11.830 -0.2870 -0.7882  0.2291
13054TIP3    H160653   1.786   4.246  11.898 -0.9472  0.5545  0.9939
13054TIP3    H260654   1.759   4.304  11.761  0.1729 -1.7451 -0.2683
13055TIP3   OH260655   4.666   2.062   2.904 -0.0283  0.1436  0.0705
13055TIP3    H160656   4.747   2.097   2.869 -0.2319 -0.8025 -1.4108
13055TIP3    H260657   4.599   2.088   2.841 -0.6178 -0.4669  0.4233
13056TIP3   OH260658   1.464   5.160  13.524  0.3177 -0.2576  0.0632
13056TIP3    H160659   1.490   5.132  13.436  2.6590  2.6424 -0.3485
13056TIP3    H260660   1.408   5.237  13.508 -0.1847 -0.3972  1.1042
13057TIP3   OH260661   6.522   3.099  14.086 -0.0323  0.0082 -0.3280
13057TIP3    H160662   6.613   3.096  14.058  0.7085  1.6962  1.6304
13057TIP3    H260663   6.473   3.120  14.007  1.4186  0.2013 -1.2094
13058TIP3   OH260664   1.732   0.344  15.210  0.1873 -0.0207  0.2351
13058TIP3    H160665   1.713   0.295  15.291  3.8810  1.1203  2.0299
13058TIP3    H260666   1.786   0.284  15.158  0.3346  0.2883  0.0281
13059TIP3   OH260667   2.660   3.458   4.733  0.0797 -0.3564 -0.1371
13059TIP3    H160668   2.692   3.545   4.758 -0.8602 -0.3289  1.0730
13059TIP3    H260669   2.622   3.470   4.646 -0.7158  0.6137  0.3385
13060TIP3   OH260670   3.149   1.456  15.640  0.2580 -0.2577  0.7080
13060TIP3    H160671   3.078   1.498  15.591  1.3761  0.4890 -0.3267
13060TIP3    H260672   3.175   1.381  15.586  0.0636 -0.7043  1.2284
13061TIP3   OH260673   3.976   1.090   4.650  0.3182  0.0366 -0.4500
13061TIP3    H160674   4.016   1.131   4.727  0.0130  1.0826 -0.8323
13061TIP3    H260675   4.025   1.009   4.638  1.0991  0.3959  0.2005
13062TIP3   OH260676   0.433   4.082   5.268 -0.6346 -0.4565  0.0376
13062TIP3    H160677   0.403   3.995   5.240  1.8301 -0.5570 -2.7186
13062TIP3    H260678   0.447   4.072   5.363 -2.1907 -2.4414  0.1461
13063TIP3   OH260679   4.985   3.525  10.325 -0.0888 -0.1012  0.3697
13063TIP3    H160680   4.951   3.458  10.265  1.3307 -0.3749 -0.1854
13063TIP3    H260681   5.038   3.476  10.388  1.3335  0.5081 -0.3068
13064TIP3   OH260682   1.472   4.896  10.764  0.5484 -0.3662  0.1801
13064TIP3    H160683   1.475   4.975  10.817  3.9702 -0.8915  1.0158
13064TIP3    H260684   1.482   4.927  10.674  0.8928  0.2196  0.4151
13065TIP3   OH260685   3.158   6.511   2.935 -0.2006 -0.0607 -0.3096
13065TIP3    H160686   3.252   6.528   2.932 -0.0433 -0.9659 -0.9178
13065TIP3    H260687   3.138   6.505   3.029  0.0726  1.4783 -0.1247
13066TIP3   OH260688   0.499   0.810  11.938 -0.5520  0.2933 -0.4111
13066TIP3    H160689   0.501   0.875  12.008 -3.5566  1.6096 -1.3798
13066TIP3    H260690   0.467   0.858  11.862 -2.4320 -2.1573 -1.2966
13067TIP3   OH260691   3.707   3.667   0.807 -0.0507  0.3797  0.8151
13067TIP3    H160692   3.780   3.667   0.746 -0.1284  1.5081  0.7156
13067TIP3    H260693   3.702   3.576   0.838  0.4993 -0.0141 -0.2259
13068TIP3   OH260694   6.442   1.413   6.333 -0.4498  0.0109  0.6294
13068TIP3    H160695   6.473   1.435   6.245 -2.8438 -0.2928 -0.3635
13068TIP3    H260696   6.436   1.497   6.378 -0.8110  0.3700 -0.0739
13069TIP3   OH260697   4.284   2.918  11.308  0.1858 -0.2928 -0.0056
13069TIP3    H160698   4.290   2.926  11.213 -0.4190 -3.3037 -0.3755
13069TIP3    H260699   4.307   3.005  11.340 -1.5205  1.4234 -2.9365
13070TIP3   OH260700   4.981   1.193  12.159  0.5638  0.2725 -0.1883
13070TIP3    H160701   5.072   1.164  12.156  0.0968 -1.2880 -0.6686
13070TIP3    H260702   4.981   1.280  12.121  2.1057  1.0699  1.5062
13071TIP3   OH260703   1.561   1.556   1.698  0.0332  0.1214  0.0028
13071TIP3    H160704   1.595   1.621   1.760  0.5240 -0.8048  0.7440
13071TIP3    H260705   1.471   1.539   1.726 -0.0110  0.3015 -0.0344
13072TIP3   OH260706   4.804   2.265  15.015 -0.0703  0.3142  0.4251
13072TIP3    H160707   4.725   2.212  15.002 -0.2651 -0.4009  3.7027
13072TIP3    H260708   4.772   2.347  15.052  0.6631 -0.2891  2.5687
13073TIP3   OH260709   3.139   3.416  14.296  0.2335  0.3690 -0.0374
13073TIP3    H160710   3.166   3.362  14.371 -1.7549 -1.5239 -0.5731
13073TIP3    H260711   3.113   3.499  14.335  2.4375  0.6979  0.9402
13074TIP3   OH260712   2.338   2.844   1.445 -0.5282  0.3036  0.2436
13074TIP3    H160713   2.410   2.784   1.463  0.7244  1.5987 -0.2711
13074TIP3    H260714   2.260   2.799   1.478  0.1968 -2.0326 -1.0172
13075TIP3   OH260715   2.412   2.342  16.082  0.3709  0.1992  0.3491
13075TIP3    H160716   2.332   2.391  16.063 -0.2671 -0.8919  0.1158
13075TIP3    H260717   2.469   2.358  16.006  0.2171  0.6650  0.3322
13076TIP3   OH260718   0.491   5.259   3.322  0.1940  0.1925 -0.0494
13076TIP3    H160719   0.429   5.263   3.394  0.7208 -0.5302  0.4547
13076TIP3    H260720   0.464   5.184   3.270 -1.0189  1.5178 -1.4113
13077TIP3   OH260721   2.723   2.741  12.920 -0.3674 -0.5387 -0.0916
13077TIP3    H160722   2.684   2.741  13.007 -0.2730 -0.4374 -0.0487
13077TIP3    H260723   2.793   2.807  12.925  1.5700 -2.5542  0.5979
13078TIP3   OH260724   4.612   1.259   2.806  0.1485  0.0862 -0.5805
13078TIP3    H160725   4.524   1.252   2.768  0.4418  0.2305 -1.2827
13078TIP3    H260726   4.624   1.353   2.820 -0.8760 -0.0759  2.0662
13079TIP3   OH260727   0.313   2.619  11.010 -0.0932 -0.4449  0.7456
13079TIP3    H160728   0.331   2.697  11.062 -0.7200 -0.9005  1.6605
13079TIP3    H260729   0.222   2.596  11.030 -1.6808  1.3883 -3.2332
13080TIP3   OH260730   3.260   1.586  12.784  0.2074  0.0960  0.5000
13080TIP3    H160731   3.301   1.564  12.701  0.6210  2.0889  0.1318
13080TIP3    H260732   3.167   1.596  12.763  0.2267  0.0444  0.3890
13081TIP3   OH260733   2.530   4.122   6.195  0.4229  0.1415 -0.1084
13081TIP3    H160734   2.619   4.127   6.231  0.7484 -1.1376 -0.6967
13081TIP3    H260735   2.474   4.109   6.272  0.9977 -1.4125  0.0801
13082TIP3   OH260736   5.117   3.324   5.446 -0.0386 -0.1807 -0.0357
13082TIP3    H160737   5.029   3.331   5.485 -0.0504 -0.7362  0.0424
13082TIP3    H260738   5.102   3.330   5.352 -0.0626  0.6571  0.0120
13083TIP3   OH260739   0.377   6.024  12.189  0.2262  0.0483 -0.5878
13083TIP3    H160740   0.379   6.035  12.094 -1.6546  0.2192 -0.6293
13083TIP3    H260741   0.295   6.065  12.217 -0.4647 -2.1441  0.8236
13084TIP3   OH260742   3.213   1.869   0.880  0.1380  0.5014 -0.3299
13084TIP3    H160743   3.137   1.820   0.849 -0.7327  1.9580 -0.5871
13084TIP3    H260744   3.281   1.849   0.816  0.2460 -1.4016  0.3033
13085TIP3   OH260745   4.312   0.827  14.367  0.3759 -0.0112  0.0534
13085TIP3    H160746   4.260   0.829  14.287  0.9583  0.2807 -0.3227
13085TIP3    H260747   4.328   0.734  14.384  1.3402 -0.0363 -0.8931
13086TIP3   OH260748   1.483   0.930  16.645  0.7177  0.5639 -0.3568
13086TIP3    H160749   1.466   0.858  16.584  1.6103  0.9057 -1.0347
13086TIP3    H260750   1.429   1.002  16.613  0.1037  0.3249  0.1087
13087TIP3   OH260751   4.534   1.658  17.186  0.5332  0.0387  0.2487
13087TIP3    H160752   4.491   1.739  17.212 -0.0697 -0.1242 -0.2211
13087TIP3    H260753   4.571   1.624  17.267 -0.1566  0.2203  0.6528
13088TIP3   OH260754   2.486   0.083   1.290 -0.3622  0.2604  0.4948
13088TIP3    H160755   2.437   0.154   1.333  0.0465  0.4768  0.6130
13088TIP3    H260756   2.459   0.004   1.336 -2.6420 -0.0180 -1.1935
13089TIP3   OH260757   4.476   4.629  12.254  0.8610 -0.4821  0.0438
13089TIP3    H160758   4.414   4.580  12.199 -0.2296  0.3469  0.4891
13089TIP3    H260759   4.525   4.562  12.301  0.2031 -1.1555 -0.2101
13090TIP3   OH260760   2.990   0.579   3.739  0.0976 -0.4764  0.1693
13090TIP3    H160761   2.911   0.553   3.691 -0.0680 -2.4273  1.3989
13090TIP3    H260762   2.997   0.516   3.810  1.2124  1.3625  1.8069
13091TIP3   OH260763   5.047   1.409   3.426 -0.1479 -0.3620  0.0992
13091TIP3    H160764   4.976   1.402   3.361 -0.3262 -1.0067  0.3513
13091TIP3    H260765   5.006   1.382   3.508  0.1448  0.2099  0.4309
13092TIP3   OH260766   6.354   6.491  13.371 -0.2428  0.5677  0.0749
13092TIP3    H160767   6.356   6.559  13.303 -0.9417  0.0470 -0.4885
13092TIP3    H260768   6.261   6.477  13.388 -0.0716  0.9873  1.4693
13093TIP3   OH260769   2.525   4.561   2.881  0.2053 -0.1818 -0.1233
13093TIP3    H160770   2.560   4.634   2.932 -0.6198 -0.5615  1.0361
13093TIP3    H260771   2.538   4.587   2.790 -2.5637  2.7592  0.1299
13094TIP3   OH260772   0.965   3.460  10.983  0.5432 -0.1297  0.0017
13094TIP3    H160773   0.878   3.443  10.947  0.3106  0.3806  0.3238
13094TIP3    H260774   1.020   3.478  10.906  0.3990 -0.5743 -0.2098
13095TIP3   OH260775   6.600   0.942   4.358 -0.4927 -0.2977 -0.2265
13095TIP3    H160776   6.531   0.892   4.400  0.2589 -0.2119  1.1481
13095TIP3    H260777   6.671   0.879   4.344 -0.3553 -0.0963 -0.4478
13096TIP3   OH260778   2.144   3.339  13.223 -0.5663 -0.0282  0.0817
13096TIP3    H160779   2.239   3.334  13.216 -0.4445 -1.2052  1.8410
13096TIP3    H260780   2.120   3.417  13.173  1.6056  1.8774  1.7831
13097TIP3   OH260781   0.813   4.194   3.924  0.1485  0.0400  0.0240
13097TIP3    H160782   0.769   4.229   4.002 -0.2933  0.2205 -0.2985
13097TIP3    H260783   0.743   4.154   3.873  0.7505 -1.9521  0.6982
13098TIP3   OH260784   3.101   3.254   4.976 -0.4925 -0.2483 -0.0571
13098TIP3    H160785   3.011   3.262   4.944 -0.2445  2.6540 -0.3089
13098TIP3    H260786   3.095   3.273   5.070 -0.0748  0.8090 -0.2315
13099TIP3   OH260787   4.204   1.412  11.461 -0.3449 -0.5671  0.0072
13099TIP3    H160788   4.187   1.504  11.441 -0.0874 -0.2705  1.0920
13099TIP3    H260789   4.245   1.378  11.382  4.2177  1.5080  1.1270
13100TIP3   OH260790   2.303   4.788  16.563 -0.6329  0.4330  0.0762
13100TIP3    H160791   2.275   4.827  16.646 -1.2523 -0.6833  0.4182
13100TIP3    H260792   2.288   4.694  16.575  3.4255 -0.3305  0.3252
13101TIP3   OH260793   0.553   4.933  13.655  0.3995 -0.1970 -0.2356
13101TIP3    H160794   0.639   4.950  13.695  0.0241  1.5267 -0.0868
13101TIP3    H260795   0.543   5.003  13.591 -0.7602 -0.5772 -0.4825
13102TIP3   OH260796   6.038   4.284   5.562 -0.0616 -0.4004 -0.0459
13102TIP3    H160797   6.094   4.289   5.484  0.3623  0.8911  0.3159
13102TIP3    H260798   5.970   4.349   5.547 -0.6902 -1.0166  0.1221
13103TIP3   OH260799   6.627   5.063   1.730 -0.7370 -0.4160 -0.4577
13103TIP3    H160800   6.650   5.040   1.820 -2.2336 -1.7616 -0.3797
13103TIP3    H260801   6.614   5.158   1.733 -2.2733 -0.6121  1.1620
13104TIP3   OH260802   1.682   2.559  11.745 -0.0912  0.3302  0.4274
13104TIP3    H160803   1.713   2.498  11.678 -0.3061  2.6894 -1.9937
13104TIP3    H260804   1.608   2.514  11.787  1.5470 -2.1861  0.8509
13105TIP3   OH260805   4.368   6.564   0.518 -0.1036  0.0456  1.0572
13105TIP3    H160806   4.296   6.509   0.547  0.8263 -1.1067  1.2413
13105TIP3    H260807   4.375   6.632   0.586 -0.8261  0.0128  1.1716
13106TIP3   OH260808   5.870   4.836   5.186 -0.0250  0.1029 -0.0384
13106TIP3    H160809   5.917   4.764   5.143  0.0200 -0.0434  0.2552
13106TIP3    H260810   5.821   4.878   5.115 -0.8768 -0.8580 -0.0339
13107TIP3   OH260811   5.191   3.604  13.974  0.0217 -0.1748 -0.1623
13107TIP3    H160812   5.216   3.518  13.939 -0.5726 -0.3851 -0.0882
13107TIP3    H260813   5.192   3.592  14.069  0.7002  0.1255 -0.1278
13108TIP3   OH260814   5.259   0.813   3.711  0.4951  0.3652 -0.2251
13108TIP3    H160815   5.232   0.759   3.637  1.1319  1.4232 -1.2565
13108TIP3    H260816   5.213   0.896   3.699  0.6786  0.5811  0.5056
13109TIP3   OH260817   4.431   1.779   1.500  0.0707 -0.0773  0.2351
13109TIP3    H160818   4.448   1.705   1.442  0.0966  0.6275 -0.6769
13109TIP3    H260819   4.435   1.742   1.588  0.4808 -1.0747 -0.1911
13110TIP3   OH260820   6.239   5.321  12.550 -0.1523 -0.1561  0.5128
13110TIP3    H160821   6.239   5.410  12.514 -1.9746 -0.2604  0.1874
13110TIP3    H260822   6.220   5.334  12.643 -0.4479 -0.2012  0.4593
13111TIP3   OH260823   4.405   2.831   4.528 -0.7109  0.9056  0.0523
13111TIP3    H160824   4.318   2.829   4.568 -0.8963 -0.7640 -0.3853
13111TIP3    H260825   4.446   2.749   4.554  0.6066  1.4969 -0.0691
13112TIP3   OH260826   0.416   4.050  14.747  0.3477 -0.6458 -0.0101
13112TIP3    H160827   0.358   4.082  14.678  0.8972 -3.4589 -1.9700
13112TIP3    H260828   0.423   4.123  14.808  0.2009  2.2730 -3.1422
13113TIP3   OH260829   3.876   1.166  12.569  0.5991 -0.1138  0.5526
13113TIP3    H160830   3.971   1.177  12.571  0.8147 -0.7581 -2.2782
13113TIP3    H260831   3.841   1.251  12.597  1.9902  0.3515  0.9637
13114TIP3   OH260832   6.829   1.844   0.651 -0.3090  0.4531 -0.4838
13114TIP3    H160833   6.884   1.884   0.583  0.3988  0.9607  0.3557
13114TIP3    H260834   6.766   1.912   0.674  0.5178  0.9203  0.5238
13115TIP3   OH260835   2.127   2.770  14.600 -0.2433  0.0225 -0.2833
13115TIP3    H160836   2.184   2.846  14.611 -1.4231  0.6575  2.0381
13115TIP3    H260837   2.046   2.805  14.562 -0.8209  0.0045  0.8676
13116TIP3   OH260838   3.179   6.131   3.391  0.2229  0.4051 -0.1622
13116TIP3    H160839   3.237   6.089   3.455  0.3900 -0.7001 -1.0011
13116TIP3    H260840   3.237   6.187   3.339  0.5905 -0.6997 -1.0010
13117TIP3   OH260841   2.807   6.356  12.637 -0.1651  0.0286 -0.5724
13117TIP3    H160842   2.729   6.315  12.675 -0.6180  2.3123  1.2204
13117TIP3    H260843   2.875   6.289  12.644 -0.9757 -0.6610  1.6975
13118TIP3   OH260844   4.911   0.988  10.955  0.3505  0.3178 -0.1709
13118TIP3    H160845   4.862   1.054  11.005  0.5620 -0.4063  1.0293
13118TIP3    H260846   4.992   1.032  10.930  0.3536  0.6252  0.3543
13119TIP3   OH260847   3.413   0.715  16.480  0.1127 -0.2006  0.4171
13119TIP3    H160848   3.387   0.624  16.493  0.8911 -0.3644  0.8723
13119TIP3    H260849   3.350   0.765  16.533  0.4516 -0.5639  1.1819
13120TIP3   OH260850   3.833   3.054   2.769 -0.2576  0.0407 -0.4784
13120TIP3    H160851   3.914   3.013   2.739  1.3715  0.8299  2.3805
13120TIP3    H260852   3.848   3.148   2.758 -0.6091  0.2097  0.3544
13121TIP3   OH260853   4.593   1.260  13.081  0.5309 -0.8257 -0.2340
13121TIP3    H160854   4.642   1.287  13.004  0.2914 -1.5423 -0.6506
13121TIP3    H260855   4.589   1.164  13.074 -0.3111 -0.8251  0.1663
13122TIP3   OH260856   5.616   3.252  15.116 -0.2045 -0.8151  0.4866
13122TIP3    H160857   5.591   3.187  15.181 -1.1355 -1.3617 -0.3866
13122TIP3    H260858   5.711   3.245  15.109 -0.2074 -1.4492  1.0460
13123TIP3   OH260859   6.310   3.596   4.417 -0.1613  0.3249 -0.3259
13123TIP3    H160860   6.230   3.649   4.416  0.9297  2.1566  1.2501
13123TIP3    H260861   6.330   3.580   4.324 -0.5910  2.7154 -0.8996
13124TIP3   OH260862   0.173   3.145   5.845 -0.2138 -0.6308  0.0268
13124TIP3    H160863   0.219   3.205   5.787 -0.6812 -0.8152 -0.5426
13124TIP3    H260864   0.228   3.141   5.923  0.8753 -1.0651 -0.7428
13125TIP3   OH260865   3.350   5.893  13.831 -0.7191  0.3389 -0.0013
13125TIP3    H160866   3.418   5.904  13.765 -1.5076 -0.4257 -0.9732
13125TIP3    H260867   3.316   5.982  13.845  0.2127  0.6716  0.2293
13126TIP3   OH260868   5.534   5.056   4.119 -0.0657 -0.1766  0.2376
13126TIP3    H160869   5.617   5.029   4.080 -0.6487 -1.6728 -0.0076
13126TIP3    H260870   5.485   4.975   4.132 -2.5577  0.8249 -1.9849
13127TIP3   OH260871   4.812   1.648   2.358 -0.1145  0.5537  0.0779
13127TIP3    H160872   4.839   1.587   2.426 -0.8049 -0.7139 -0.7531
13127TIP3    H260873   4.742   1.700   2.397  0.4192  0.7662  0.7616
13128TIP3   OH260874   1.148   4.440  17.103  0.0505  0.2713  0.8720
13128TIP3    H160875   1.084   4.496  17.059  1.7221  1.4689 -0.1457
13128TIP3    H260876   1.192   4.497  17.165  0.3090 -0.4707  1.3844
13129TIP3   OH260877   3.859   5.410  14.655  0.4377  0.4915 -0.0720
13129TIP3    H160878   3.794   5.343  14.675 -0.5956  1.6486  0.6457
13129TIP3    H260879   3.809   5.480  14.612  1.3082  1.1574 -0.0352
13130TIP3   OH260880   6.248   4.477  17.104 -0.0054 -0.3155 -0.3056
13130TIP3    H160881   6.313   4.547  17.094  1.9168 -1.8908  0.3866
13130TIP3    H260882   6.274   4.411  17.039 -1.3344 -0.7343 -0.4485
13131TIP3   OH260883   3.582   2.394  16.672  0.1658 -0.0545 -0.2761
13131TIP3    H160884   3.560   2.362  16.760  3.0946 -1.9585 -0.0965
13131TIP3    H260885   3.513   2.456  16.651 -2.4496 -1.9605  2.0179
13132TIP3   OH260886   3.471   4.239  15.823 -0.3872  0.0901  0.8860
13132TIP3    H160887   3.496   4.199  15.906 -0.0815 -0.6288  0.4639
13132TIP3    H260888   3.419   4.171  15.779  0.5238 -0.0329 -0.0390
13133TIP3   OH260889   1.510   1.910  12.243  0.4329 -0.5578 -0.4596
13133TIP3    H160890   1.573   1.982  12.251 -0.3144  0.1239 -0.5395
13133TIP3    H260891   1.512   1.887  12.150 -0.6808  0.6583 -0.8261
13134TIP3   OH260892   1.422   6.033   4.218  0.0708  0.5082  0.2659
13134TIP3    H160893   1.478   6.094   4.170 -1.6892  0.8942 -1.4135
13134TIP3    H260894   1.362   6.089   4.267  0.5451  0.1047  1.3308
13135TIP3   OH260895   4.354   5.268  12.727  1.0247 -0.0976 -0.0967
13135TIP3    H160896   4.416   5.338  12.707  1.4236 -1.0885 -2.6887
13135TIP3    H260897   4.269   5.304  12.700  0.8926  0.1643  0.6449
13136TIP3   OH260898   2.134   3.093   0.425 -0.2547 -0.4973 -0.4366
13136TIP3    H160899   2.093   3.114   0.509 -1.4391  1.0813 -1.3389
13136TIP3    H260900   2.227   3.105   0.439 -0.4975  0.4251  0.4771
13137TIP3   OH260901   5.091   0.219   6.222 -0.0294 -0.0071  0.5605
13137TIP3    H160902   5.051   0.142   6.182 -0.4652 -0.3168  1.5640
13137TIP3    H260903   5.145   0.184   6.293  0.5700  0.5487  0.3901
13138TIP3   OH260904   2.631   3.748   0.835  0.1633  0.5577  0.0111
13138TIP3    H160905   2.671   3.760   0.921 -0.7511  0.8088  0.4167
13138TIP3    H260906   2.549   3.702   0.853  0.4665 -0.3366 -0.8474
13139TIP3   OH260907   3.452   5.829   2.564  0.5088 -0.1083 -0.0409
13139TIP3    H160908   3.378   5.776   2.534 -0.6595  0.2266  2.0676
13139TIP3    H260909   3.477   5.791   2.648 -0.1151  2.3551  1.3509
13140TIP3   OH260910   5.918   3.662   2.298 -0.0351 -0.6642  0.4009
13140TIP3    H160911   5.977   3.607   2.349 -0.2452 -2.1060 -0.8536
13140TIP3    H260912   5.945   3.649   2.207 -0.9405  0.3031 -0.0353
13141TIP3   OH260913   4.066   5.371   4.134 -0.2523 -0.3388 -0.3296
13141TIP3    H160914   4.028   5.323   4.208  1.4487  1.8684  2.1324
13141TIP3    H260915   3.993   5.421   4.098 -1.2890 -2.0728 -0.7666
13142TIP3   OH260916   1.684   2.746  12.830 -0.0071  0.4276 -0.2845
13142TIP3    H160917   1.706   2.683  12.898 -0.4090  1.4317  0.7967
13142TIP3    H260918   1.769   2.773  12.793  0.2223  0.0506 -0.0362
13143TIP3   OH260919   2.612   2.818  16.261 -0.1007 -0.0924 -0.4259
13143TIP3    H160920   2.641   2.745  16.315  3.1521 -0.2622 -2.1154
13143TIP3    H260921   2.660   2.894  16.296 -0.6592  0.4909 -0.8932
13144TIP3   OH260922   3.019   5.971  12.165 -0.1146 -0.6748  0.2184
13144TIP3    H160923   3.113   5.964  12.181 -0.3972 -2.0468  1.5474
13144TIP3    H260924   2.984   5.886  12.192 -1.6909 -0.3423 -0.6429
13145TIP3   OH260925   5.815   6.089  11.048  0.7776  0.3346 -0.0371
13145TIP3    H160926   5.825   6.062  10.956  0.0799 -0.1237  0.0113
13145TIP3    H260927   5.783   6.179  11.044 -0.5405 -0.1199 -0.2849
13146TIP3   OH260928   5.166   0.238  12.372  0.1534 -0.2271  0.2198
13146TIP3    H160929   5.079   0.231  12.411  0.3783 -0.4769  0.6998
13146TIP3    H260930   5.152   0.281  12.288 -0.5884 -1.3161 -0.2359
13147TIP3   OH260931   2.808   4.263  15.988  0.4020 -0.4586  0.6339
13147TIP3    H160932   2.774   4.341  16.032  1.3094  0.6534 -0.5540
13147TIP3    H260933   2.823   4.201  16.059 -1.2020  0.0884  1.5077
13148TIP3   OH260934   2.055   0.769  10.912 -0.1997  0.0096  0.2736
13148TIP3    H160935   2.123   0.745  10.850 -0.5050  1.0372 -0.4843
13148TIP3    H260936   1.983   0.801  10.858 -0.1921  1.6390  1.1662
13149TIP3   OH260937   2.868   2.598   6.269 -0.3333 -0.0078 -0.0740
13149TIP3    H160938   2.858   2.542   6.346  1.3503  2.2116  1.8590
13149TIP3    H260939   2.961   2.594   6.248 -0.2760  1.6466 -0.2171
13150TIP3   OH260940   0.176   2.298   4.013  0.4841 -0.2475 -0.2194
13150TIP3    H160941   0.085   2.278   3.990  0.3590  0.3149 -0.2261
13150TIP3    H260942   0.169   2.369   4.076  0.9317 -0.0177 -0.4282
13151TIP3   OH260943   5.893   2.169   0.144 -0.0009 -0.6255 -0.1841
13151TIP3    H160944   5.893   2.089   0.091 -1.5446  0.0098 -1.2290
13151TIP3    H260945   5.953   2.228   0.098  1.2752 -1.2066  0.6842
13152TIP3   OH260946   1.835   5.607  13.460 -0.0130 -0.3320  0.5654
13152TIP3    H160947   1.763   5.665  13.437 -0.1452 -1.2453 -1.5534
13152TIP3    H260948   1.897   5.663  13.506 -0.5022  1.3214 -0.6847
13153TIP3   OH260949   2.955   6.022  14.235 -0.6192  0.1873 -0.1896
13153TIP3    H160950   3.022   6.089  14.217 -0.0340 -0.5760 -0.9429
13153TIP3    H260951   2.873   6.072  14.238 -0.1999  0.9468 -0.7493
13154TIP3   OH260952   5.256   6.508  12.537 -0.3717 -0.1575 -0.1398
13154TIP3    H160953   5.212   6.550  12.463 -1.1872 -0.8592 -0.0761
13154TIP3    H260954   5.189   6.451  12.575  0.1029  0.0051  0.9912
13155TIP3   OH260955   1.720   4.026  15.632  0.0628  0.0826  0.0166
13155TIP3    H160956   1.782   4.011  15.703 -0.1137  0.3573  0.2335
13155TIP3    H260957   1.635   4.028  15.675 -0.2711 -1.7728 -0.4676
13156TIP3   OH260958   1.257   3.077  16.328 -0.7659 -0.0752 -0.1437
13156TIP3    H160959   1.240   3.031  16.410  0.3665 -0.0551  0.1136
13156TIP3    H260960   1.254   3.008  16.261 -2.4587  0.0235 -0.2169
13157TIP3   OH260961   2.384   3.174  12.382  0.0961 -0.7911  0.4755
13157TIP3    H160962   2.315   3.236  12.404 -0.7971 -1.8506  0.7564
13157TIP3    H260963   2.339   3.099  12.344  1.1530 -1.2533  0.0721
13158TIP3   OH260964   1.233   1.682  13.108 -0.2077 -0.6428  0.4812
13158TIP3    H160965   1.205   1.619  13.042 -0.7238 -1.5700  1.5433
13158TIP3    H260966   1.323   1.655  13.130  0.2321  0.1077 -0.3335
13159TIP3   OH260967   1.045   1.868   0.566  0.3846 -0.3453 -0.4874
13159TIP3    H160968   1.020   1.778   0.587 -0.2396  0.1978  1.2121
13159TIP3    H260969   0.980   1.923   0.611  0.6298  0.9647 -1.6487
13160TIP3   OH260970   1.986   6.044  17.044 -0.1857 -0.2984 -0.9127
13160TIP3    H160971   1.907   6.020  17.093 -0.2325 -0.7029 -1.1812
13160TIP3    H260972   2.048   6.073  17.111 -0.1234 -1.1865 -0.5642
13161TIP3   OH260973   4.091   6.548  16.853 -1.0354  1.0916 -0.3634
13161TIP3    H160974   4.087   6.567  16.760 -0.2964  0.2209 -0.5878
13161TIP3    H260975   4.153   6.611  16.889  2.9174 -1.7747 -1.4188
13162TIP3   OH260976   0.874   3.596  13.577  0.2387  1.3343  0.6470
13162TIP3    H160977   0.870   3.674  13.522 -0.4566  1.2049  0.4951
13162TIP3    H260978   0.925   3.533  13.525 -1.8003  0.6296 -0.6757
13163TIP3   OH260979   2.222   6.818  14.127  0.4553  0.0711  0.4203
13163TIP3    H160980   2.180   6.774  14.052 -0.7621 -0.8925  1.6195
13163TIP3    H260981   2.165   6.892  14.147 -0.6454 -1.1218  1.9251
13164TIP3   OH260982   1.917   6.623   3.738 -0.5717  0.0379  0.5231
13164TIP3    H160983   1.922   6.635   3.643  0.0056  0.0779  0.5555
13164TIP3    H260984   1.875   6.537   3.749  0.5924 -0.5848  0.2082
13165TIP3   OH260985   1.869   1.220   1.410  0.3367  0.0722  0.1309
13165TIP3    H160986   1.955   1.254   1.436 -0.2714  0.5602  1.6177
13165TIP3    H260987   1.874   1.210   1.315  1.5931  1.3411  0.0442
13166TIP3   OH260988   1.332   4.175   3.614  0.3209 -0.1187  0.1067
13166TIP3    H160989   1.392   4.147   3.545  0.0011 -0.7549  0.0832
13166TIP3    H260990   1.294   4.257   3.581  1.6723  0.6658  0.4171
13167TIP3   OH260991   6.801   5.151   4.540  0.8268  0.0438  0.2509
13167TIP3    H160992   6.722   5.192   4.575  1.5914  0.0373  2.0633
13167TIP3    H260993   6.800   5.062   4.575  1.8656  0.1883  0.6880
13168TIP3   OH260994   6.432   6.482  11.260  0.3626  0.1348  0.1026
13168TIP3    H160995   6.488   6.417  11.303  0.8200 -0.2704 -1.0803
13168TIP3    H260996   6.485   6.515  11.188 -1.1486 -0.7315 -1.4571
13169TIP3   OH260997   0.839   2.436   4.152 -0.2899  0.1271  0.3511
13169TIP3    H160998   0.779   2.378   4.105 -0.1750  1.1990 -1.1999
13169TIP3    H260999   0.909   2.378   4.182 -1.3814 -0.9177  0.9924
13170TIP3   OH261000   2.285   0.017  11.641 -0.5068 -0.0270  0.2662
13170TIP3    H161001   2.378   0.037  11.644 -0.0076 -1.3056 -2.8161
13170TIP3    H261002   2.249   0.054  11.721  2.6792  0.2747  1.6751
13171TIP3   OH261003   0.942   4.148   2.285 -0.0018  0.1544 -0.0747
13171TIP3    H161004   0.919   4.237   2.311 -2.0099 -0.4905  0.5804
13171TIP3    H261005   1.007   4.120   2.350 -0.1823  0.7792  0.3830
13172TIP3   OH261006   1.462   2.718   1.911  0.6294  0.2212  0.5291
13172TIP3    H161007   1.513   2.787   1.869  2.2672 -1.3474 -0.1777
13172TIP3    H261008   1.406   2.684   1.841  1.5510 -0.7204  0.2235
13173TIP3   OH261009   6.236   6.021  11.672 -0.5295  0.4352  0.4782
13173TIP3    H161010   6.181   6.071  11.612 -0.2024  0.5661  0.2864
13173TIP3    H261011   6.307   5.987  11.617 -0.4072  0.2856  0.7265
13174TIP3   OH261012   1.988   3.302  16.015  0.4429  0.3622  0.4524
13174TIP3    H161013   2.012   3.260  15.932 -1.0159 -1.5376  0.9276
13174TIP3    H261014   1.898   3.330  16.002  0.4447  0.7134  1.1610
13175TIP3   OH261015   5.907   1.640   4.525  0.4044 -0.4087  0.4492
13175TIP3    H161016   5.812   1.633   4.527  0.4902 -1.6876  1.5073
13175TIP3    H261017   5.938   1.550   4.536  1.7450 -0.0023  0.2349
13176TIP3   OH261018   0.821   3.152   0.894 -0.2766 -0.5680  0.2569
13176TIP3    H161019   0.738   3.119   0.930 -0.1439 -2.1687 -0.7846
13176TIP3    H261020   0.800   3.240   0.863 -1.6458 -0.9968 -0.1163
13177TIP3   OH261021   5.053   3.014  16.820  0.5621 -0.2675 -0.4826
13177TIP3    H161022   5.124   2.981  16.876  1.1276  0.4936 -0.7349
13177TIP3    H261023   5.080   3.102  16.797 -1.1427  0.5862  0.5805
13178TIP3   OH261024   2.134   6.390  16.360 -0.2897 -0.7687 -0.5330
13178TIP3    H161025   2.155   6.344  16.441 -1.7657 -2.1759 -0.9210
13178TIP3    H261026   2.048   6.429  16.375  1.1874  2.6844  0.0778
13179TIP3   OH261027   6.007   1.142  16.723  0.5672 -0.0106 -0.1599
13179TIP3    H161028   6.067   1.116  16.793 -0.9541 -1.2757  0.7579
13179TIP3    H261029   6.014   1.237  16.719  1.8462 -0.0485  0.6249
13180TIP3   OH261030   5.404   4.815   0.669  0.4265  0.4085  0.3126
13180TIP3    H161031   5.415   4.897   0.623 -1.2578  0.1082 -0.7420
13180TIP3    H261032   5.312   4.815   0.696  0.4137 -1.0658  0.3850
13181TIP3   OH261033   4.631   5.711   3.743  0.4604  0.5193 -0.0935
13181TIP3    H161034   4.653   5.706   3.650 -0.5648  0.3291 -0.3399
13181TIP3    H261035   4.697   5.770   3.780  2.7475 -1.6805 -0.3337
13182TIP3   OH261036   6.689   5.113   2.974 -0.3942 -0.5276  0.0344
13182TIP3    H161037   6.696   5.024   3.009  0.6113  0.1410  1.6651
13182TIP3    H261038   6.772   5.126   2.927  0.2544  0.1076  1.2898
13183TIP3   OH261039   2.958   6.383   0.599 -0.4222 -0.2115  1.0200
13183TIP3    H161040   2.917   6.340   0.674 -1.2237  0.3743  0.9275
13183TIP3    H261041   2.916   6.468   0.594 -0.2678 -0.1817  0.0002
13184TIP3   OH261042   5.716   0.515   5.109 -0.1046 -0.2966 -0.3009
13184TIP3    H161043   5.796   0.488   5.064  0.0976 -0.6575  0.2589
13184TIP3    H261044   5.739   0.598   5.152 -0.2077 -0.1048 -0.6152
13185TIP3   OH261045   6.014   2.493  11.897  0.3718  0.0089 -0.0683
13185TIP3    H161046   5.983   2.563  11.841 -0.0020  0.8538  1.1546
13185TIP3    H261047   5.944   2.481  11.962  0.9207 -0.7228  0.4099
13186TIP3   OH261048   3.545   2.139   0.727 -0.5108  0.2016  0.2815
13186TIP3    H161049   3.497   2.140   0.810 -0.7043  0.6516  0.1648
13186TIP3    H261050   3.532   2.226   0.691 -2.3010 -0.6597 -1.3021
13187TIP3   OH261051   2.164   6.119   2.327  0.6172  0.2277 -0.2999
13187TIP3    H161052   2.243   6.092   2.375  1.8785  0.3439 -2.1928
13187TIP3    H261053   2.094   6.116   2.392  1.8008 -1.7962  1.0047
13188TIP3   OH261054   1.200   5.475  13.888  0.4358  0.2357  0.6535
13188TIP3    H161055   1.163   5.543  13.945 -0.7335  0.2495 -0.0846
13188TIP3    H261056   1.124   5.435  13.847  1.2488  0.1925 -0.8637
13189TIP3   OH261057   6.807   4.429  16.051  0.2890  0.4726 -0.3774
13189TIP3    H161058   6.731   4.446  16.106 -0.0422 -0.6419 -0.4572
13189TIP3    H261059   6.778   4.360  15.992  1.0849  0.6768 -1.0159
13190TIP3   OH261060   3.395   5.199   2.519 -0.2484  0.6074 -0.3917
13190TIP3    H161061   3.478   5.177   2.561 -1.3886 -2.0114  0.6554
13190TIP3    H261062   3.358   5.115   2.493 -2.7174  1.6844 -0.5948
13191TIP3   OH261063   2.997   6.596  12.778 -0.0398 -0.0304 -0.2365
13191TIP3    H161064   2.940   6.527  12.745 -0.3155 -0.8176  1.6948
13191TIP3    H261065   3.085   6.559  12.771 -0.0437  0.0264 -0.5811
13192TIP3   OH261066   1.226   6.636  16.031  0.1594  0.4156  0.6263
13192TIP3    H161067   1.168   6.626  16.106 -3.1057 -1.0924 -1.8533
13192TIP3    H261068   1.232   6.549  15.992  1.6828  1.1450 -0.9509
13193TIP3   OH261069   2.335   4.570   4.016 -0.1771  0.3284 -0.2025
13193TIP3    H161070   2.405   4.631   4.039  0.2248 -0.2169  0.0373
13193TIP3    H261071   2.377   4.507   3.957 -0.2459 -0.4769  0.5855
13194TIP3   OH261072   5.566   5.700   2.986 -0.2186 -0.1540  0.3144
13194TIP3    H161073   5.535   5.768   2.926  0.4715  0.9969  1.2024
13194TIP3    H261074   5.652   5.676   2.952  0.3297  0.7560  0.9957
13195TIP3   OH261075   4.065   4.502  16.113  0.3129  0.1815  0.7395
13195TIP3    H161076   4.124   4.542  16.177  0.1035 -0.6381  1.4779
13195TIP3    H261077   3.979   4.503  16.157  0.2017 -0.5529  0.5515
13196TIP3   OH261078   3.420   2.655  15.262 -0.6143 -0.1804 -0.5849
13196TIP3    H161079   3.327   2.647  15.241 -0.9905 -0.3906  1.0087
13196TIP3    H261080   3.424   2.642  15.357  0.5281  3.6778  0.0818
13197TIP3   OH261081   1.947   3.456   4.747 -0.4409 -0.0392 -0.4715
13197TIP3    H161082   1.956   3.550   4.762  0.5405 -0.3356  1.0448
13197TIP3    H261083   2.036   3.422   4.757 -1.1184 -1.4175  1.3118
13198TIP3   OH261084   4.624   2.675  15.981 -0.5458  0.3052 -0.8208
13198TIP3    H161085   4.718   2.685  15.967 -0.3034 -1.9596 -1.1469
13198TIP3    H261086   4.593   2.626  15.905 -1.9455  0.7711 -0.5782
13199TIP3   OH261087   3.103   0.649  12.492  0.0918  0.4649 -0.3169
13199TIP3    H161088   3.116   0.738  12.527  0.0028 -0.2857  1.7604
13199TIP3    H261089   3.191   0.610  12.493  0.1919  0.6092 -1.5692
13200TIP3   OH261090   5.942   2.644   4.781  0.5291 -0.4168 -0.4608
13200TIP3    H161091   5.945   2.622   4.688  0.3640 -1.6360 -0.1949
13200TIP3    H261092   5.893   2.726   4.785  0.3595 -0.4619 -1.4294
13201TIP3   OH261093   6.555   3.111   0.680  0.3355  0.1768  0.0098
13201TIP3    H161094   6.647   3.130   0.660  0.0629  0.7997 -0.7025
13201TIP3    H261095   6.513   3.107   0.594  0.1336 -2.5549  0.1280
13202TIP3   OH261096   2.949   1.565  12.073 -0.3094 -0.6086  0.2019
13202TIP3    H161097   2.902   1.529  12.148 -1.4324 -0.5803 -0.4570
13202TIP3    H261098   3.029   1.513  12.067  0.3656  0.1398  2.0964
13203TIP3   OH261099   5.799   2.369  16.700 -0.3241  0.1332  0.5239
13203TIP3    H161100   5.712   2.333  16.681  0.2400 -1.0932  0.1205
13203TIP3    H261101   5.818   2.428  16.627 -1.8686  2.4873  1.9177
13204TIP3   OH261102   5.795   2.779   4.476 -0.4952 -0.0941 -0.2053
13204TIP3    H161103   5.886   2.757   4.453  0.0129 -0.0184  1.5939
13204TIP3    H261104   5.754   2.799   4.392  0.5609 -2.2039 -1.3295
13205TIP3   OH261105   2.585   2.671   0.500  0.4590 -0.3582  0.6773
13205TIP3    H161106   2.558   2.706   0.586 -1.5367 -1.4994  0.5594
13205TIP3    H261107   2.616   2.583   0.519  0.2951 -0.5049  0.2565
13206TIP3   OH261108   1.650   3.798  16.298 -0.4425 -0.1578 -0.1855
13206TIP3    H161109   1.738   3.779  16.330 -0.9315 -0.9038  0.7853
13206TIP3    H261110   1.635   3.734  16.229  0.4344  1.1398 -1.6323
13207TIP3   OH261111   2.812   2.805  11.403 -0.0864 -0.3670  0.8681
13207TIP3    H161112   2.823   2.739  11.335 -0.2780  1.6116 -1.2217
13207TIP3    H261113   2.878   2.871  11.384 -0.7617  0.7035  2.0356
13208TIP3   OH261114   5.999   4.799  11.292  0.9508  0.2979 -0.1330
13208TIP3    H161115   6.069   4.753  11.340  1.3764  1.2383  0.1746
13208TIP3    H261116   6.038   4.884  11.269 -0.2475  1.0338  0.4635
13209TIP3   OH261117   4.937   1.540  14.803  0.3850  0.1903  0.2908
13209TIP3    H161118   4.994   1.576  14.871 -0.2597  1.4639  0.1884
13209TIP3    H261119   4.871   1.490  14.851  0.8621 -0.2561  0.4892
13210TIP3   OH261120   6.562   0.241   0.230  0.1292  0.0445 -0.1923
13210TIP3    H161121   6.651   0.221   0.257  0.1099 -0.8499 -0.7659
13210TIP3    H261122   6.514   0.159   0.240 -0.5327  0.4007 -0.3166
13211TIP3   OH261123   3.697   1.707   2.137  0.0718  0.2108 -0.8556
13211TIP3    H161124   3.636   1.767   2.094 -0.1792  0.6464  0.0764
13211TIP3    H261125   3.658   1.691   2.223  0.3837 -0.9103 -0.9034
13212TIP3   OH261126   5.231   0.907  10.441  0.8371 -0.1567  0.0217
13212TIP3    H161127   5.286   0.910  10.520 -0.4412 -2.0721  1.0791
13212TIP3    H261128   5.252   0.988  10.394  4.2683 -0.5840  0.5163
13213TIP3   OH261129   1.102   6.365   4.598  0.2882  0.0232 -0.1256
13213TIP3    H161130   1.103   6.440   4.659 -0.9081  0.5879 -0.7758
13213TIP3    H261131   1.144   6.295   4.647 -2.1167 -0.0550  2.0670
13214TIP3   OH261132   5.624   3.899   1.361  0.2427 -0.2964 -0.2526
13214TIP3    H161133   5.698   3.853   1.321 -1.0107 -1.8527 -0.8640
13214TIP3    H261134   5.605   3.850   1.441 -0.2962 -0.0637 -0.2297
13215TIP3   OH261135   0.238   1.491   2.702 -0.3392 -0.0614 -0.9625
13215TIP3    H161136   0.251   1.550   2.777 -1.9170 -0.2566 -0.5117
13215TIP3    H261137   0.297   1.525   2.635  2.3981 -0.8252  0.8376
13216TIP3   OH261138   4.256   1.546  13.213  0.0067  0.0744  0.1918
13216TIP3    H161139   4.280   1.456  13.236 -0.4413 -0.0469  0.1922
13216TIP3    H261140   4.286   1.599  13.287 -0.1293 -0.1341  0.3975
13217TIP3   OH261141   4.818   5.210   2.408  0.0016 -0.0777 -0.7656
13217TIP3    H161142   4.803   5.304   2.400  0.7333  0.0509 -0.7119
13217TIP3    H261143   4.901   5.195   2.362 -0.6119 -0.8584 -1.6440
13218TIP3   OH261144   6.461   0.860  17.182 -0.6591 -0.5627  0.0662
13218TIP3    H161145   6.449   0.855  17.087  1.4077 -0.2364 -0.2515
13218TIP3    H261146   6.539   0.913  17.194 -1.4931  0.3328  2.0258
13219TIP3   OH261147   1.781   0.543   5.030 -0.5955 -0.5830 -0.4293
13219TIP3    H161148   1.688   0.564   5.035 -0.3466  0.9661 -1.7221
13219TIP3    H261149   1.786   0.470   4.968 -0.8035  0.6247 -1.9172
13220TIP3   OH261150   3.402   4.247   3.545 -0.3646  0.1314 -0.0790
13220TIP3    H161151   3.475   4.309   3.548 -0.0785 -0.1482 -0.8698
13220TIP3    H261152   3.434   4.176   3.489 -1.7099  0.6409 -1.5911
13221TIP3   OH261153   3.560   3.492   2.903 -0.3563 -0.3805  0.1987
13221TIP3    H161154   3.626   3.463   2.966  1.3136 -0.3665 -1.4425
13221TIP3    H261155   3.562   3.425   2.834 -0.6809  0.6080 -0.7946
13222TIP3   OH261156   6.282   5.359  16.766  0.0988 -0.6205  0.4268
13222TIP3    H161157   6.326   5.289  16.719  0.4151 -0.5891  0.6672
13222TIP3    H261158   6.238   5.316  16.839  0.2161 -0.5789  0.5220
13223TIP3   OH261159   3.484   4.851   4.328 -0.4263 -0.2806  0.0762
13223TIP3    H161160   3.438   4.772   4.355  2.0600 -1.3106  1.7271
13223TIP3    H261161   3.511   4.834   4.238  2.7627 -2.9029  1.2887
13224TIP3   OH261162   5.872   2.545   2.383 -0.1017 -0.0793  0.3168
13224TIP3    H161163   5.919   2.514   2.306 -0.1902  0.1143  0.1842
13224TIP3    H261164   5.783   2.562   2.352 -0.9602 -2.6390  1.0369
13225TIP3   OH261165   2.042   3.709  13.662  0.2000  0.2576 -0.4314
13225TIP3    H161166   2.095   3.629  13.661  1.6157  1.1698 -1.3971
13225TIP3    H261167   2.093   3.772  13.712 -1.3291  0.3312  1.1180
13226TIP3   OH261168   6.129   4.676  16.735 -0.0101 -0.5459  0.2510
13226TIP3    H161169   6.043   4.710  16.760 -0.6269 -2.6637  1.2656
13226TIP3    H261170   6.192   4.732  16.782 -0.8828  0.1284  0.6405
13227TIP3   OH261171   6.500   2.818  15.286  0.2875  0.5150  0.3929
13227TIP3    H161172   6.524   2.828  15.378 -0.2167 -0.9365  0.7128
13227TIP3    H261173   6.466   2.728  15.280  0.2591  0.6084 -1.1961
13228TIP3   OH261174   1.021   6.135  14.308 -0.3865 -0.0586  0.1216
13228TIP3    H161175   0.956   6.071  14.337 -0.4324 -0.5630 -1.0165
13228TIP3    H261176   1.037   6.111  14.216  2.2989 -0.7225  0.6905
13229TIP3   OH261177   0.667   0.594  16.020  0.7112 -0.2819  0.0039
13229TIP3    H161178   0.652   0.556  16.107 -0.4238 -0.4510 -0.2595
13229TIP3    H261179   0.742   0.653  16.033 -1.8494  2.8265  2.0418
13230TIP3   OH261180   2.050   3.634  11.968  0.4178  0.1823  0.0114
13230TIP3    H161181   2.043   3.729  11.978  1.4750  0.1285  1.5919
13230TIP3    H261182   2.048   3.620  11.874 -0.7281  1.6807 -0.2262
13231TIP3   OH261183   3.716   2.190  13.592  0.4611 -0.2096  0.0967
13231TIP3    H161184   3.690   2.101  13.569  1.5561 -0.4731 -0.1688
13231TIP3    H261185   3.680   2.244  13.521  0.3421 -0.5132 -0.0778
13232TIP3   OH261186   1.488   2.552   0.904  0.6066  0.4739 -0.3659
13232TIP3    H161187   1.544   2.631   0.907 -0.2307  1.1556 -1.7355
13232TIP3    H261188   1.460   2.547   0.813 -0.4898 -0.6259  0.0189
13233TIP3   OH261189   6.763   0.427   3.317 -0.1337 -0.2690 -0.3448
13233TIP3    H161190   6.717   0.379   3.386 -0.6390 -0.1736 -0.6127
13233TIP3    H261191   6.745   0.519   3.336  1.7077 -0.0763  0.7984
13234TIP3   OH261192   4.408   1.888   4.407 -0.4449 -0.0698  0.3835
13234TIP3    H161193   4.443   1.820   4.350  1.9955  1.2036  0.2262
13234TIP3    H261194   4.392   1.962   4.349 -2.4626 -0.2421  0.6541
13235TIP3   OH261195   6.292   1.624   0.714  0.4557  0.1146 -0.0166
13235TIP3    H161196   6.206   1.585   0.698  0.1870  0.6231  0.1725
13235TIP3    H261197   6.283   1.714   0.684  1.1945 -0.0734 -0.8394
13236TIP3   OH261198   6.276   0.657   2.604  0.2624 -0.2179  0.0034
13236TIP3    H161199   6.247   0.703   2.525  1.8256  0.3813 -0.2475
13236TIP3    H261200   6.370   0.646   2.593  0.3912 -0.8053  1.4387
13237TIP3   OH261201   0.303   6.619  15.019  0.5948 -0.0594  0.0519
13237TIP3    H161202   0.292   6.574  15.103  0.0062 -4.1904 -2.0111
13237TIP3    H261203   0.372   6.570  14.975  0.3063  1.4792 -2.2511
13238TIP3   OH261204   1.889   5.887  16.733 -0.3361 -0.1506  0.4091
13238TIP3    H161205   1.982   5.880  16.756  0.4668  1.7599 -1.8049
13238TIP3    H261206   1.875   5.981  16.720 -1.0784 -0.6563 -4.4770
13239TIP3   OH261207   5.445   1.134   0.837  0.1425 -0.9008 -0.6499
13239TIP3    H161208   5.497   1.202   0.880  1.4874 -0.9888 -2.0432
13239TIP3    H261209   5.509   1.068   0.810 -0.7797 -1.4064 -1.7060
13240TIP3   OH261210   3.484   2.045   4.900  0.1971 -0.4101 -0.0094
13240TIP3    H161211   3.505   2.008   4.814 -1.5758 -0.8449 -0.2968
13240TIP3    H261212   3.537   1.996   4.961  0.6849 -0.8346 -0.7596
13241TIP3   OH261213   4.318   1.731  12.626  0.0837  0.1262 -0.0356
13241TIP3    H161214   4.350   1.750  12.538  1.2994 -1.4124  0.0346
13241TIP3    H261215   4.396   1.735  12.682 -0.3820 -0.5472  0.6893
13242TIP3   OH261216   4.585   6.106  16.356  0.0809  0.1287  0.0737
13242TIP3    H161217   4.541   6.132  16.436  0.5597 -2.6826  1.3804
13242TIP3    H261218   4.647   6.176  16.338 -2.5684  2.6425 -0.0345
13243TIP3   OH261219   3.585   4.028  12.820  0.1330  0.1758  0.0968
13243TIP3    H161220   3.647   4.101  12.818  1.5093 -0.9070  1.1120
13243TIP3    H261221   3.552   4.027  12.910  0.4001 -0.6554  0.1945
13244TIP3   OH261222   0.240   4.592   2.662  0.0871  0.1434 -0.0791
13244TIP3    H161223   0.301   4.659   2.630  0.2724 -0.0932 -0.2239
13244TIP3    H261224   0.165   4.597   2.602  0.3126 -0.1085 -0.3852
13245TIP3   OH261225   6.142   3.373   0.782  0.1142  0.3041  0.4670
13245TIP3    H161226   6.087   3.423   0.842  0.2523  0.9986  0.0260
13245TIP3    H261227   6.164   3.435   0.712 -0.6949 -0.6825 -0.7196
13246TIP3   OH261228   1.228   6.816  16.904  0.9102  0.5618 -0.2951
13246TIP3    H161229   1.139   6.833  16.936  1.2509 -0.3819  1.2475
13246TIP3    H261230   1.240   6.879  16.833 -0.3045  2.0229  0.7216
13247TIP3   OH261231   2.616   1.737  14.324  0.4902  0.3260 -0.4713
13247TIP3    H161232   2.636   1.700  14.238 -0.5457 -1.9325  0.1930
13247TIP3    H261233   2.684   1.700  14.382 -0.6242 -0.7267  0.2229
13248TIP3   OH261234   1.859   0.416  16.187 -0.0776  0.0968  0.3202
13248TIP3    H161235   1.882   0.334  16.143 -0.9203 -0.2864  0.5742
13248TIP3    H261236   1.794   0.391  16.253  1.9925  0.4442  2.6641
13249TIP3   OH261237   5.982   5.251   2.088 -0.0649  0.3662  1.0305
13249TIP3    H161238   6.000   5.345   2.079  1.7633 -0.0622 -0.4264
13249TIP3    H261239   6.056   5.208   2.044 -0.6687 -1.7728  1.9754
13250TIP3   OH261240   0.096   6.640  13.851 -0.5454 -0.0424  0.1563
13250TIP3    H161241   0.064   6.688  13.928  2.0501  2.9176 -0.4156
13250TIP3    H261242   0.178   6.601  13.880  0.3441  0.9111 -0.9952
13251TIP3   OH261243   1.161   6.314   5.907  0.5552 -0.3156 -0.4778
13251TIP3    H161244   1.124   6.226   5.916 -1.1952  0.5656  2.3554
13251TIP3    H261245   1.105   6.357   5.843  0.1682 -0.6700 -0.3814
13252TIP3   OH261246   1.602   4.931  15.790 -0.1418  0.7515  0.2669
13252TIP3    H161247   1.609   4.853  15.736 -1.5014  2.2761 -2.2739
13252TIP3    H261248   1.675   4.925  15.852 -0.4667 -2.6881  0.4663
13253TIP3   OH261249   4.432   3.741   5.204 -0.0240  0.2203 -0.2397
13253TIP3    H161250   4.344   3.778   5.211  0.3577  1.1313 -0.0634
13253TIP3    H261251   4.419   3.646   5.210 -0.9836  0.3455 -0.1815
13254TIP3   OH261252   4.698   5.694  12.813 -0.6563  0.4291 -0.2814
13254TIP3    H161253   4.626   5.634  12.794 -1.4743  1.5362 -0.7661
13254TIP3    H261254   4.742   5.706  12.729  0.0216 -0.1193 -0.0197
13255TIP3   OH261255   2.327   4.812  14.327 -0.5816 -0.1404 -0.6540
13255TIP3    H161256   2.329   4.813  14.423 -0.6827  0.7445 -0.6557
13255TIP3    H261257   2.312   4.720  14.305  0.3538 -0.5059  0.1499
13256TIP3   OH261258   3.105   6.170   4.847  1.2117  0.1672  0.0855
13256TIP3    H161259   3.114   6.089   4.798 -0.8796 -1.1503  1.7086
13256TIP3    H261260   3.013   6.174   4.871  1.3978  2.6671  0.7030
13257TIP3   OH261261   1.394   0.233  17.146  0.0828 -0.3968 -0.2139
13257TIP3    H161262   1.309   0.232  17.190 -1.0032  0.4720 -2.1700
13257TIP3    H261263   1.382   0.291  17.071  1.7369 -1.9896 -1.8182
13258TIP3   OH261264   1.284   2.437  12.876 -0.0989  0.7594 -0.3280
13258TIP3    H161265   1.209   2.444  12.817  0.3941 -1.1349 -1.2918
13258TIP3    H261266   1.246   2.415  12.961 -0.6747  0.3024 -0.6979
13259TIP3   OH261267   0.078   3.324  11.567 -0.0671  0.3975 -0.5993
13259TIP3    H161268  -0.004   3.274  11.569  0.1447  0.0537  0.7593
13259TIP3    H261269   0.127   3.286  11.494  0.3520 -1.9142  0.7453
13260TIP3   OH261270   5.705   4.835   0.938  0.0204  0.8429 -0.3130
13260TIP3    H161271   5.719   4.882   0.856  1.2473  2.0295  0.5451
13260TIP3    H261272   5.657   4.897   0.993  0.6765  0.6860  0.4496
13261TIP3   OH261273   6.062   1.790  15.901  0.3143  0.3785  0.1705
13261TIP3    H161274   6.027   1.755  15.819 -1.2524  1.8729  0.1360
13261TIP3    H261275   6.041   1.724  15.966  1.3588 -0.7174 -0.5507
13262TIP3   OH261276   1.810   6.592  17.013 -0.2957 -0.1481 -0.5256
13262TIP3    H161277   1.887   6.595  17.070 -0.8952  0.7505  0.2702
13262TIP3    H261278   1.738   6.623  17.067 -0.8322  1.0769 -1.8640
13263TIP3   OH261279   1.618   5.352   0.364 -0.1631  0.2181  0.0601
13263TIP3    H161280   1.586   5.263   0.377  1.5778 -0.6453 -1.0890
13263TIP3    H261281   1.591   5.374   0.275  0.5131  0.3096 -0.1281
13264TIP3   OH261282   3.974   5.134   4.581 -0.0444  0.3096  0.5630
13264TIP3    H161283   3.920   5.077   4.635  0.4527  0.1987  0.9486
13264TIP3    H261284   4.064   5.107   4.599  0.1234  0.0144 -0.5961
13265TIP3   OH261285   2.469   2.364   2.524 -0.0993 -0.4916  0.2834
13265TIP3    H161286   2.467   2.456   2.497  0.9344 -0.3483  0.6272
13265TIP3    H261287   2.377   2.339   2.534 -0.4241  0.1885 -0.8549
13266TIP3   OH261288   5.647   4.379   1.094 -0.0031 -0.2545 -0.2439
13266TIP3    H161289   5.601   4.463   1.100  1.4594  0.5946 -0.3143
13266TIP3    H261290   5.737   4.403   1.069  0.3596 -1.8726 -0.5960
13267TIP3   OH261291   4.662   5.428  11.842 -0.8095  0.1343 -0.7581
13267TIP3    H161292   4.586   5.422  11.784 -1.0329  0.8506 -0.5485
13267TIP3    H261293   4.643   5.368  11.914 -0.0408 -1.6144 -1.9503
13268TIP3   OH261294   5.807   2.460  12.083  0.2353 -0.0440 -0.8722
13268TIP3    H161295   5.868   2.492  12.149  1.1819 -0.3861 -1.5666
13268TIP3    H261296   5.748   2.534  12.066  0.7044  0.4216 -0.4895
13269TIP3   OH261297   0.807   1.425  14.561 -0.4155  0.0811 -0.4046
13269TIP3    H161298   0.736   1.369  14.528 -0.1560  0.5893 -1.9296
13269TIP3    H261299   0.762   1.497  14.604 -0.8713  0.4439 -1.4335
13270TIP3   OH261300   4.017   2.294  15.947  0.1969  0.2032  0.4150
13270TIP3    H161301   3.987   2.312  16.036 -1.8614  2.0278 -0.5549
13270TIP3    H261302   4.001   2.200  15.935 -1.0188  0.2389  1.4798
13271TIP3   OH261303   6.572   0.705  15.228  0.2166 -0.5307 -0.3366
13271TIP3    H161304   6.520   0.782  15.203  0.4792 -0.4412 -0.6102
13271TIP3    H261305   6.509   0.648  15.272 -0.0161 -0.2269 -0.2677
13272TIP3   OH261306   0.928   1.346  12.762  0.2393 -0.4923  0.2306
13272TIP3    H161307   0.846   1.394  12.775  0.0494 -0.5191 -0.7899
13272TIP3    H261308   0.911   1.260  12.801 -0.0863 -0.3658  0.3696
13273TIP3   OH261309   0.117   0.561  16.960  0.1103 -0.4129 -0.1568
13273TIP3    H161310   0.115   0.576  16.865 -0.9799 -1.4340 -0.3150
13273TIP3    H261311   0.157   0.475  16.969 -0.3535 -0.5869  0.2696
13274TIP3   OH261312   6.392   3.289   5.690  0.0377 -0.0938 -0.5543
13274TIP3    H161313   6.372   3.250   5.775 -0.8571  0.8984 -0.3012
13274TIP3    H261314   6.447   3.364   5.710 -0.0060  0.0224 -0.8697
13275TIP3   OH261315   4.760   3.512  14.734  0.3979  0.1516 -0.0126
13275TIP3    H161316   4.852   3.513  14.761  0.1834  0.4719  0.7207
13275TIP3    H261317   4.730   3.424  14.755  0.9723 -0.5279 -1.8143
13276TIP3   OH261318   4.308   5.179  17.022 -0.0093 -0.1502 -0.5145
13276TIP3    H161319   4.268   5.263  17.047 -3.1776 -0.5956 -3.2891
13276TIP3    H261320   4.381   5.203  16.965  0.6412  0.6826  0.6242
13277TIP3   OH261321   3.901   5.392  16.225 -0.3831  0.7087 -0.1008
13277TIP3    H161322   3.910   5.479  16.188  2.8895  0.9926  1.0370
13277TIP3    H261323   3.809   5.386  16.250 -0.8549  3.5704 -0.7959
13278TIP3   OH261324   2.921   5.885  15.846 -0.6400  0.9091  0.3450
13278TIP3    H161325   2.970   5.876  15.764 -1.4027 -0.9805  0.0535
13278TIP3    H261326   2.858   5.954  15.828 -1.7551 -0.4344 -1.1994
13279TIP3   OH261327   5.995   2.535  13.414 -0.0073 -0.5495  0.0853
13279TIP3    H161328   5.953   2.486  13.485  1.2125 -1.1042  0.4532
13279TIP3    H261329   5.930   2.599  13.387 -0.4815 -0.2877  1.7451
13280TIP3   OH261330   6.006   4.825   3.185  0.0513  0.2576 -0.4524
13280TIP3    H161331   5.955   4.850   3.262  0.2201  0.1180 -0.2951
13280TIP3    H261332   6.067   4.897   3.172 -1.1827  1.1640 -1.5488
13281TIP3   OH261333   2.023   0.841   6.470 -0.2617  0.6304 -0.0439
13281TIP3    H161334   1.964   0.867   6.399  0.2899  1.2714 -0.2750
13281TIP3    H261335   2.110   0.861   6.437 -0.0340  1.4388  1.0217
13282TIP3   OH261336   6.503   1.070   6.694  0.6358  0.3554  0.4470
13282TIP3    H161337   6.504   1.162   6.722 -0.4208  0.4160  0.3406
13282TIP3    H261338   6.595   1.049   6.677  0.9676  1.1740  1.1684
13283TIP3   OH261339   0.187   0.348  11.442  0.3168  0.4337  0.8145
13283TIP3    H161340   0.168   0.274  11.385 -3.3130  1.4957  0.4493
13283TIP3    H261341   0.178   0.313  11.531 -1.3294  0.3499  0.6442
13284TIP3   OH261342   5.502   2.547  11.367  0.4466 -0.3888 -0.1736
13284TIP3    H161343   5.529   2.593  11.287  1.0791 -0.4120  0.0217
13284TIP3    H261344   5.538   2.459  11.357 -0.0142 -0.5842 -0.1452
13285TIP3   OH261345   6.360   5.366  10.626 -0.6299 -0.7549 -0.1506
13285TIP3    H161346   6.443   5.391  10.666 -0.0880 -0.3146 -1.5032
13285TIP3    H261347   6.324   5.448  10.592 -2.1096 -0.7721  1.2564
13286TIP3   OH261348   4.561   2.317  11.737  0.7328 -0.2830 -0.0280
13286TIP3    H161349   4.499   2.292  11.669  2.0138 -0.1678 -1.2787
13286TIP3    H261350   4.511   2.376  11.794 -0.3818 -0.4146 -0.8278
13287TIP3   OH261351   6.810   3.306  17.000 -0.0520 -0.5852  0.0163
13287TIP3    H161352   6.777   3.240  17.060 -1.3850  0.4377  0.4740
13287TIP3    H261353   6.901   3.319  17.025 -0.1893 -1.2174  0.8495
13288TIP3   OH261354   6.780   1.418   3.924  0.1605 -0.4069  0.9027
13288TIP3    H161355   6.828   1.354   3.977 -0.7765 -0.7651  1.3371
13288TIP3    H261356   6.849   1.468   3.879  0.9162 -1.4135  0.9065
13289TIP3   OH261357   5.495   3.499  15.564 -0.3125  0.1125 -0.3481
13289TIP3    H161358   5.532   3.555  15.633  0.7544  0.9016 -1.5289
13289TIP3    H261359   5.495   3.411  15.603  1.2533  0.3715  0.3238
13290TIP3   OH261360   6.275   4.030   2.610 -0.5588  0.1353  0.0399
13290TIP3    H161361   6.200   4.039   2.550 -1.3590  0.0427  0.9940
13290TIP3    H261362   6.257   4.094   2.679  0.0231 -0.1965  0.5038
13291TIP3   OH261363   0.544   2.701   3.560 -0.3855 -0.3191  0.1021
13291TIP3    H161364   0.562   2.629   3.621  0.2307  0.0053  0.3125
13291TIP3    H261365   0.452   2.691   3.538 -0.3090 -1.1723  0.1321
13292TIP3   OH261366   3.296   3.628   3.797  0.1348  0.1175  0.2944
13292TIP3    H161367   3.234   3.555   3.792  0.6761 -0.3456  0.1629
13292TIP3    H261368   3.251   3.701   3.754 -0.1065 -0.3609 -0.2789
13293TIP3   OH261369   6.191   2.261  14.975 -0.2384  0.4302  0.2502
13293TIP3    H161370   6.096   2.267  14.959 -0.4080 -0.5023  0.7868
13293TIP3    H261371   6.199   2.263  15.071  0.4288  2.0774  0.1840
13294TIP3   OH261372   0.394   5.209  15.439  0.8679  0.0293 -0.1533
13294TIP3    H161373   0.326   5.243  15.380 -0.5584 -0.4632  1.1416
13294TIP3    H261374   0.467   5.270  15.430 -0.2357  1.3202 -0.6340
13295TIP3   OH261375   4.221   0.916  10.983 -0.1299 -0.4805  0.5061
13295TIP3    H161376   4.222   0.828  10.944  0.8272 -1.8895  3.3704
13295TIP3    H261377   4.306   0.924  11.026  0.6338  2.7547 -1.2967
13296TIP3   OH261378   1.984   1.398  13.685  0.4250  0.4855  0.6176
13296TIP3    H161379   2.059   1.357  13.641  1.3192  0.9212  1.7029
13296TIP3    H261380   1.964   1.475  13.632  0.8784  0.4861  0.4454
13297TIP3   OH261381   2.731   6.117   4.438 -0.7171 -0.4935  0.0098
13297TIP3    H161382   2.808   6.083   4.392 -0.8528  0.0498 -0.6276
13297TIP3    H261383   2.755   6.112   4.531  0.9131  1.5809 -0.2363
13298TIP3   OH261384   4.707   6.683  15.562 -0.0698 -0.0016 -0.2176
13298TIP3    H161385   4.618   6.670  15.595  0.6200  0.2526  1.8452
13298TIP3    H261386   4.704   6.768  15.519 -0.6896  0.2752  0.3476
13299TIP3   OH261387   5.389   2.460   2.887  0.4352 -0.1552  0.2821
13299TIP3    H161388   5.363   2.552   2.895  1.0455  0.0275  0.2230
13299TIP3    H261389   5.395   2.429   2.977  1.1541  0.1301  0.3339
13300TIP3   OH261390   4.719   4.080  10.873 -0.5941  0.3411  0.0472
13300TIP3    H161391   4.672   4.004  10.838  0.6106 -0.0147 -0.8674
13300TIP3    H261392   4.807   4.048  10.890 -0.8629  0.7776  2.5406
13301TIP3   OH261393   2.178   5.443  12.363  0.2063 -0.2702 -0.1787
13301TIP3    H161394   2.129   5.460  12.283 -0.6581 -1.1892  0.1411
13301TIP3    H261395   2.260   5.404  12.333  1.1412  1.9366 -0.7639
13302TIP3   OH261396   5.921   5.099   0.858  0.3187 -0.1469 -0.4406
13302TIP3    H161397   5.851   5.057   0.809 -0.1562 -1.7324  1.4323
13302TIP3    H261398   5.878   5.166   0.910 -0.2318 -2.1788  1.9362
13303TIP3   OH261399   0.884   1.069   0.869 -0.0592 -0.1786 -0.5876
13303TIP3    H161400   0.875   0.982   0.831  1.6275 -0.7370  0.1944
13303TIP3    H261401   0.835   1.064   0.952  1.4777 -0.9843  0.3138
13304TIP3   OH261402   6.784   4.758  16.796  0.6142 -0.3846  0.0637
13304TIP3    H161403   6.752   4.846  16.815  0.9630 -0.5356  1.4824
13304TIP3    H261404   6.838   4.735  16.872  1.2780 -1.4664 -0.7062
13305TIP3   OH261405   6.799   2.133   0.986  0.0699  0.3652  0.6725
13305TIP3    H161406   6.814   2.222   1.020  0.0180  0.3781  0.6609
13305TIP3    H261407   6.786   2.146   0.892  1.6581  0.1912  0.3915
13306TIP3   OH261408   4.480   0.853   2.596 -0.0957 -0.0402  0.3097
13306TIP3    H161409   4.400   0.835   2.644 -0.0215 -0.0181  0.4416
13306TIP3    H261410   4.535   0.903   2.657  0.1690 -0.3753  0.3532
13307TIP3   OH261411   6.635   0.110   6.035 -0.5775 -0.4221 -0.6233
13307TIP3    H161412   6.726   0.106   6.065 -0.7605 -0.8693 -0.1166
13307TIP3    H261413   6.591   0.166   6.099 -0.5735  0.1391 -1.1046
13308TIP3   OH261414   1.054   1.312   4.380  0.6533 -0.7429 -0.1301
13308TIP3    H161415   0.980   1.251   4.375 -0.2855  0.2729  0.8280
13308TIP3    H261416   1.071   1.323   4.473 -1.5246  3.0590  0.0424
13309TIP3   OH261417   3.612   0.985   3.791  0.5844  0.4869  0.0353
13309TIP3    H161418   3.632   0.978   3.698 -0.0343  0.7649 -0.1235
13309TIP3    H261419   3.526   0.945   3.800 -0.8116  3.2375 -0.0778
13310TIP3   OH261420   5.005   0.707   4.275 -0.5230 -0.4652 -0.4074
13310TIP3    H161421   4.915   0.699   4.308 -1.1640  1.7259 -1.4630
13310TIP3    H261422   4.998   0.762   4.197  2.1109  2.9801  1.4999
13311TIP3   OH261423   0.274   5.850  11.668 -0.1749 -0.3002  0.5927
13311TIP3    H161424   0.331   5.895  11.731 -0.7420 -1.1627  1.7748
13311TIP3    H261425   0.283   5.757  11.689 -2.0658 -0.4645  0.9155
13312TIP3   OH261426   0.450   0.026   3.845  0.4162 -0.1768 -0.8184
13312TIP3    H161427   0.460   0.024   3.750 -0.2416  1.5303 -0.9647
13312TIP3    H261428   0.472  -0.063   3.874  0.4353 -0.7734 -2.5690
13313TIP3   OH261429   5.240   0.713   0.254 -0.2491 -0.1917  0.3498
13313TIP3    H161430   5.300   0.702   0.181  0.3833  1.1557  0.6341
13313TIP3    H261431   5.160   0.748   0.215  0.2134  0.8717  0.3237
13314TIP3   OH261432   2.685   6.676  13.686  0.1855 -0.4655 -0.6316
13314TIP3    H161433   2.632   6.652  13.762  1.6899 -3.2663 -0.3405
13314TIP3    H261434   2.718   6.764  13.708  0.3625 -1.0674  1.8740
13315TIP3   OH261435   6.263   1.872   5.055 -0.3531 -0.4365 -0.1154
13315TIP3    H161436   6.222   1.858   4.970 -0.1703 -1.0129 -0.1186
13315TIP3    H261437   6.199   1.840   5.118  0.3121 -1.9186 -0.1524
13316TIP3   OH261438   4.172   6.748  15.837  0.3380 -0.1434  0.1705
13316TIP3    H161439   4.148   6.829  15.883  0.3551 -0.5478  0.9012
13316TIP3    H261440   4.218   6.778  15.759  0.8680  0.5501  0.7350
13317TIP3   OH261441   5.005   3.003   5.252 -0.1403  0.7370  0.2111
13317TIP3    H161442   4.918   3.017   5.216 -0.3188  0.4255  0.5151
13317TIP3    H261443   4.990   2.958   5.335  0.3071  0.7099  0.2824
13318TIP3   OH261444   5.517   0.346  13.275  0.1367  0.2778 -0.5048
13318TIP3    H161445   5.601   0.367  13.233  0.7574 -0.4147  0.3454
13318TIP3    H261446   5.490   0.428  13.316  2.3618 -0.3262  2.4911
13319TIP3   OH261447   4.482   3.507  16.831  0.1022 -0.2468 -0.2404
13319TIP3    H161448   4.412   3.508  16.766  0.3490 -1.0410 -0.5419
13319TIP3    H261449   4.482   3.595  16.869  0.0900  0.3024 -1.4631
13320TIP3   OH261450   6.161   1.462  16.499 -0.5671 -0.2750 -0.0440
13320TIP3    H161451   6.124   1.521  16.434 -0.5827  0.7813  0.9042
13320TIP3    H261452   6.087   1.437  16.555 -0.5501 -1.1588 -0.3966
13321TIP3   OH261453   5.789   4.242  11.431 -0.2810 -0.0819 -0.2211
13321TIP3    H161454   5.855   4.195  11.483 -1.1821 -1.0836  0.0772
13321TIP3    H261455   5.808   4.218  11.341 -0.3507 -0.5254 -0.1213
13322TIP3   OH261456   1.375   6.431   2.217 -0.2937 -0.6595  0.1708
13322TIP3    H161457   1.317   6.431   2.293 -0.7739 -0.7284 -0.1929
13322TIP3    H261458   1.440   6.498   2.237 -2.5060  2.0205 -0.9220
13323TIP3   OH261459   6.749   2.139   2.991  0.4493 -0.3632  0.1553
13323TIP3    H161460   6.826   2.176   2.947 -0.1079  0.3597 -0.2222
13323TIP3    H261461   6.678   2.149   2.928 -0.0248 -0.7297  0.6294
13324TIP3   OH261462   5.760   5.318  15.415 -0.7225  0.0554 -0.0515
13324TIP3    H161463   5.693   5.314  15.484 -1.2315 -2.7100 -0.5873
13324TIP3    H261464   5.722   5.377  15.349 -1.5029  0.4834  0.7533
13325TIP3   OH261465   6.190   4.955  15.336  0.0027  0.1276  0.5095
13325TIP3    H161466   6.211   5.012  15.410  2.4007  0.4246 -0.3346
13325TIP3    H261467   6.165   4.872  15.377  1.7224  0.1374  1.6882
13326TIP3   OH261468   0.419   6.583   2.305  0.6791  0.6037 -0.5995
13326TIP3    H161469   0.404   6.542   2.391 -1.4654 -0.6195 -1.4750
13326TIP3    H261470   0.400   6.514   2.242  1.0078  1.8334 -2.1025
13327TIP3   OH261471   2.382   3.407   6.532  0.2764 -0.4982 -0.9489
13327TIP3    H161472   2.409   3.332   6.585 -1.7788 -0.4139  0.3520
13327TIP3    H261473   2.302   3.439   6.575  0.1536  1.3996 -2.4475
13328TIP3   OH261474   2.972   3.424  13.582  0.2928 -0.3519 -0.2461
13328TIP3    H161475   2.916   3.499  13.562 -2.4008 -2.1913 -0.2402
13328TIP3    H261476   3.056   3.444  13.541 -0.9167  1.8138 -1.8375
13329TIP3   OH261477   3.147   2.902   3.767 -0.2393  0.2701  0.3890
13329TIP3    H161478   3.090   2.891   3.843  1.2128 -0.9271  1.3515
13329TIP3    H261479   3.086   2.915   3.694 -1.7852 -1.2845  1.3103
13330TIP3   OH261480   0.927   5.028   3.810 -0.1623 -0.1179 -0.4256
13330TIP3    H161481   0.848   5.073   3.841  0.7433  0.9084  0.4350
13330TIP3    H261482   0.999   5.071   3.855  1.1145  0.4283 -2.8236
13331TIP3   OH261483   2.318   0.409  14.084 -0.2784  0.1093  0.0803
13331TIP3    H161484   2.276   0.323  14.083 -0.4680  0.1914  0.4653
13331TIP3    H261485   2.357   0.419  13.998 -1.1574  0.0787 -0.3318
13332TIP3   OH261486   2.249   5.352  15.247 -0.0539 -0.4929  0.1932
13332TIP3    H161487   2.248   5.269  15.200 -3.1723 -0.2551 -0.3458
13332TIP3    H261488   2.259   5.328  15.339  1.0729 -1.2787 -0.1074
13333TIP3   OH261489   1.206   3.475  12.286 -0.3239  0.1767  0.7665
13333TIP3    H161490   1.238   3.391  12.319 -0.7584 -0.4828 -0.4560
13333TIP3    H261491   1.201   3.464  12.191 -3.4365  0.4751  0.7970
13334TIP3   OH261492   6.621   2.130   3.232  0.0483  0.3797  0.2474
13334TIP3    H161493   6.645   2.136   3.140 -0.0793 -0.3251  0.1582
13334TIP3    H261494   6.589   2.040   3.242 -1.4661  0.9321  0.6071
13335TIP3   OH261495   6.251   4.153   2.273 -0.2024 -0.3852  0.3402
13335TIP3    H161496   6.235   4.180   2.182 -0.2282 -0.2522  0.3840
13335TIP3    H261497   6.346   4.151   2.281 -0.1705 -2.0398 -0.1799
13336TIP3   OH261498   6.189   1.241  15.457 -0.1365  0.1747 -0.3492
13336TIP3    H161499   6.256   1.206  15.399 -0.4887  0.3863 -0.8882
13336TIP3    H261500   6.230   1.319  15.497  0.4679 -0.5459  0.4773
13337TIP3   OH261501   3.601   0.708   0.785 -0.2896  0.0233  0.0417
13337TIP3    H161502   3.689   0.686   0.816  0.1221  0.2739 -0.9004
13337TIP3    H261503   3.596   0.804   0.794 -0.6114 -0.0326  0.4616
13338TIP3   OH261504   6.456   0.830   0.337 -0.3638  0.2694  0.1503
13338TIP3    H161505   6.383   0.772   0.356  0.0656 -0.3511 -0.0566
13338TIP3    H261506   6.533   0.772   0.335  0.1376  0.9108  0.3965
13339TIP3   OH261507   0.497   0.493   0.711  0.0007  0.2006  0.1555
13339TIP3    H161508   0.441   0.445   0.772  2.3268 -1.2712  1.2529
13339TIP3    H261509   0.485   0.585   0.734 -1.1043 -0.1483  1.0753
13340TIP3   OH261510   1.066   4.621  11.350  0.5378  0.1194  0.0151
13340TIP3    H161511   1.139   4.560  11.343  1.0396  0.8512 -2.1373
13340TIP3    H261512   1.063   4.645  11.442  4.1742  1.3780 -0.0432
13341TIP3   OH261513   2.245   3.585  15.123  0.0884  0.4152 -0.3004
13341TIP3    H161514   2.268   3.563  15.033 -0.2133 -0.1547 -0.2428
13341TIP3    H261515   2.152   3.564  15.130  0.6485 -2.0155  0.8630
13342TIP3   OH261516   2.162   6.826   0.291 -0.6578  0.0774 -0.6346
13342TIP3    H161517   2.156   6.886   0.217 -2.6700 -1.0995 -1.4943
13342TIP3    H261518   2.172   6.739   0.251 -1.8787 -0.5896  0.4339
13343TIP3   OH261519   5.960   1.281   1.446 -0.1273 -0.5447 -0.1810
13343TIP3    H161520   5.878   1.330   1.441  0.3676  0.2813 -0.5922
13343TIP3    H261521   5.992   1.298   1.535 -0.2143 -0.5457 -0.1494
13344TIP3   OH261522   6.472   6.191   6.413 -0.3719 -0.2372 -0.0670
13344TIP3    H161523   6.391   6.145   6.389  0.0023 -0.2100 -1.4050
13344TIP3    H261524   6.447   6.283   6.419 -0.2136 -0.0777 -1.6033
13345TIP3   OH261525   4.738   0.882   4.770 -0.0584  0.1317  0.2658
13345TIP3    H161526   4.723   0.791   4.798 -0.2697  0.3159  0.7559
13345TIP3    H261527   4.816   0.878   4.716  0.5640 -0.1736  1.1666
13346TIP3   OH261528   4.771   1.989  10.931  0.1164  0.0037  0.1929
13346TIP3    H161529   4.735   2.073  10.905 -1.1305 -0.7345 -0.5622
13346TIP3    H261530   4.701   1.926  10.913  0.5461 -1.0392  1.9659
13347TIP3   OH261531   2.749   5.419   4.685 -0.4980 -0.5811 -0.2158
13347TIP3    H161532   2.793   5.364   4.619 -0.1735  0.0650 -0.5439
13347TIP3    H261533   2.662   5.380   4.695 -0.0391 -1.5735  0.0620
13348TIP3   OH261534   4.621   5.669   5.836  0.7985  0.7418 -0.0680
13348TIP3    H161535   4.545   5.611   5.842 -0.2136  2.0343  0.0302
13348TIP3    H261536   4.688   5.627   5.890 -0.1176 -0.0258  0.4890
13349TIP3   OH261537   1.909   2.034  13.258  0.3760 -0.7007  0.5619
13349TIP3    H161538   1.833   2.049  13.203  1.1075  0.2014 -0.2240
13349TIP3    H261539   1.926   1.940  13.251 -1.8453 -1.3215  2.3484
13350TIP3   OH261540   5.461   3.407  15.261  0.0999 -0.3103  0.0330
13350TIP3    H161541   5.483   3.404  15.354  0.4754  1.4582  0.0417
13350TIP3    H261542   5.545   3.396  15.217 -0.2171 -2.3208 -0.1720
13351TIP3   OH261543   5.903   6.439  12.919 -0.1061  0.0102 -0.4757
13351TIP3    H161544   5.832   6.442  12.855 -0.9379 -0.9117  0.3906
13351TIP3    H261545   5.970   6.498  12.882 -1.5872  1.4821 -0.9553
13352TIP3   OH261546   5.947   4.780   1.301  0.0110 -0.6211 -0.0119
13352TIP3    H161547   5.946   4.686   1.320  0.8233 -0.7336 -0.4922
13352TIP3    H261548   5.917   4.786   1.210  0.1599 -0.4295 -0.0481
13353TIP3   OH261549   2.423   1.737   5.450  0.3289  0.0457 -0.4744
13353TIP3    H161550   2.341   1.687   5.448  1.2117 -1.8438  2.9694
13353TIP3    H261551   2.477   1.696   5.382 -0.1842 -1.4592 -0.0198
13354TIP3   OH261552   5.896   4.228   1.678  0.1661 -0.6636  0.1530
13354TIP3    H161553   5.839   4.262   1.609 -1.2898  0.1438  1.6642
13354TIP3    H261554   5.984   4.257   1.654 -0.3599 -0.0673 -1.1402
13355TIP3   OH261555   3.392   4.289   0.594  0.0744 -0.6522 -0.3322
13355TIP3    H161556   3.360   4.341   0.520 -0.1397 -0.9209 -0.4324
13355TIP3    H261557   3.437   4.214   0.553 -0.9707 -1.3725 -0.2097
13356TIP3   OH261558   6.334   0.742  15.445  0.2166 -0.0293 -0.4168
13356TIP3    H161559   6.268   0.766  15.509  1.1603 -2.2094  1.5092
13356TIP3    H261560   6.418   0.760  15.488  0.9705  1.7062 -2.4081
13357TIP3   OH261561   5.957   4.568  17.027 -0.4688 -0.3270 -0.4688
13357TIP3    H161562   5.968   4.502  17.094  1.3943 -0.6302 -1.0198
13357TIP3    H261563   5.960   4.651  17.074  2.1211 -0.4737 -0.2161
13358TIP3   OH261564   0.646   2.099   3.887  0.0194 -0.6291  0.0403
13358TIP3    H161565   0.668   2.153   3.811  2.2283  1.3960  1.9561
13358TIP3    H261566   0.678   2.011   3.865  1.7450  0.1968 -0.9270
13359TIP3   OH261567   5.045   5.327  13.609 -0.1317 -0.4341 -0.8349
13359TIP3    H161568   5.083   5.287  13.531  0.8731 -0.3544 -0.4016
13359TIP3    H261569   5.109   5.394  13.635  0.3068 -1.4876  0.9417
13360TIP3   OH261570   6.332   1.651   3.810  0.3998  0.1552  0.1861
13360TIP3    H161571   6.386   1.573   3.793 -0.2874 -0.4289  0.6227
13360TIP3    H261572   6.359   1.681   3.896 -1.4427 -1.4371  1.4049
13361TIP3   OH261573   4.962   4.095   4.000 -0.2971  0.8648  0.3405
13361TIP3    H161574   4.909   4.120   4.076 -2.3391 -1.7120 -0.0862
13361TIP3    H261575   4.985   4.004   4.015  1.7891  1.1211 -0.8198
13362TIP3   OH261576   2.602   5.365   6.170  0.6558  0.3498  0.4108
13362TIP3    H161577   2.644   5.292   6.215 -0.3071  0.3301  1.3127
13362TIP3    H261578   2.651   5.443   6.198 -0.9398  0.5542  2.8971
13363TIP3   OH261579   3.919   2.708   2.282 -0.0389 -0.2370  0.0075
13363TIP3    H161580   3.891   2.742   2.197 -0.7697  2.1854  1.1497
13363TIP3    H261581   3.847   2.728   2.341  1.1820 -0.2866  1.5603
13364TIP3   OH261582   5.509   2.498   0.051 -0.6420  0.5414  0.0294
13364TIP3    H161583   5.524   2.412   0.012  2.4325  1.6665 -1.7172
13364TIP3    H261584   5.596   2.525   0.082 -1.3867  3.1718  0.0669
13365TIP3   OH261585   4.876   2.696   5.280 -0.2430  0.3467 -0.5013
13365TIP3    H161586   4.863   2.773   5.335  0.7446  0.2417 -0.0960
13365TIP3    H261587   4.871   2.729   5.191  0.3077  0.9061 -0.3280
13366TIP3   OH261588   4.843   2.179  11.222  0.2725 -0.2883 -0.3504
13366TIP3    H161589   4.876   2.105  11.171  1.1067 -0.8283  0.8889
13366TIP3    H261590   4.755   2.195  11.188 -0.3705 -2.5776  0.0489
13367TIP3   OH261591   0.353   5.456   3.542  0.3532  0.6598 -0.4379
13367TIP3    H161592   0.447   5.474   3.539  0.1917  2.1343  1.1588
13367TIP3    H261593   0.329   5.474   3.633 -1.4215 -0.0040 -0.7382
13368TIP3   OH261594   1.638   1.090   0.707  0.2040 -0.3215  0.1980
13368TIP3    H161595   1.642   1.181   0.735 -0.7942 -0.2104  0.0119
13368TIP3    H261596   1.545   1.068   0.709  0.4589 -1.4406  0.5495
13369TIP3   OH261597   5.364   0.917  14.885  0.0079  0.4287 -0.5980
13369TIP3    H161598   5.311   0.965  14.821  0.3188 -0.8923 -1.9078
13369TIP3    H261599   5.313   0.922  14.966 -0.7132  1.6008 -1.0972
13370TIP3   OH261600   6.333   3.936  14.859 -0.2908  0.1086  0.3618
13370TIP3    H161601   6.371   3.849  14.847  1.4793  0.9226 -0.2263
13370TIP3    H261602   6.238   3.920  14.860 -0.1059 -1.6336 -1.5099
13371TIP3   OH261603   4.557   2.828   1.559  0.1473 -0.0695 -0.2668
13371TIP3    H161604   4.495   2.831   1.631 -0.9512  2.2114 -1.2075
13371TIP3    H261605   4.549   2.739   1.524 -5.0197  0.8372 -2.2955
13372TIP3   OH261606   3.219   1.322  11.350  0.1560 -0.4630  0.0846
13372TIP3    H161607   3.313   1.303  11.354  0.2170 -0.3607 -0.6827
13372TIP3    H261608   3.203   1.377  11.427  0.1375 -2.8151  1.8616
13373TIP3   OH261609   1.846   6.274  11.822  0.0230 -0.4052  0.3587
13373TIP3    H161610   1.902   6.202  11.853 -0.6500 -2.0527 -1.9125
13373TIP3    H261611   1.908   6.337  11.785  0.5412 -0.8447  0.4507
13374TIP3   OH261612   2.220   2.854  11.459 -0.6357 -0.0443 -0.1868
13374TIP3    H161613   2.163   2.783  11.430 -1.0212 -0.2950  1.1482
13374TIP3    H261614   2.292   2.855  11.395 -1.4169 -0.6120 -1.0942
13375TIP3   OH261615   5.128   0.044  13.095  0.1602  0.0608  0.1934
13375TIP3    H161616   5.093   0.133  13.094 -0.2925 -0.0837  1.3972
13375TIP3    H261617   5.073  -0.002  13.158  0.4557 -1.0526 -0.3373
13376TIP3   OH261618   1.572   1.260   4.185  0.4130 -0.3359 -0.5695
13376TIP3    H161619   1.610   1.232   4.102  0.3317 -1.7131 -0.1545
13376TIP3    H261620   1.648   1.279   4.240  0.4778 -0.5924 -0.5693
13377TIP3   OH261621   3.248   4.000  11.594  0.3194 -0.1292 -0.3132
13377TIP3    H161622   3.294   4.024  11.675  2.6267  2.1351 -2.1055
13377TIP3    H261623   3.155   4.001  11.617  0.8952  0.3312  2.2884
13378TIP3   OH261624   1.628   4.593   4.268  0.4461  0.7056 -0.7035
13378TIP3    H161625   1.636   4.510   4.222 -1.1168  0.4131 -0.5259
13378TIP3    H261626   1.605   4.656   4.200  0.1491  0.6860 -0.6227
13379TIP3   OH261627   3.441   1.918  13.696 -0.2439  1.1882  0.0949
13379TIP3    H161628   3.359   1.891  13.654 -0.2021  1.7389 -0.3606
13379TIP3    H261629   3.509   1.895  13.633 -0.2115  2.3601 -0.3254
13380TIP3   OH261630   1.571   1.951   6.243 -0.7298  0.1175 -0.5257
13380TIP3    H161631   1.491   1.943   6.294  0.4700 -1.0602  1.3038
13380TIP3    H261632   1.624   2.015   6.290 -0.8892  1.5829 -2.2131
13381TIP3   OH261633   6.637   4.688   3.232 -0.1492 -0.5281  0.5231
13381TIP3    H161634   6.720   4.686   3.280  1.1124 -1.1486 -1.5456
13381TIP3    H261635   6.590   4.610   3.262  1.3020 -1.7797 -0.2975
13382TIP3   OH261636   6.723   1.619  12.801 -0.1184 -0.4328  0.0273
13382TIP3    H161637   6.713   1.619  12.706  0.8169  0.4180 -0.0822
13382TIP3    H261638   6.813   1.648  12.816 -0.3315 -0.3157  1.1824
13383TIP3   OH261639   2.218   2.505   1.393 -0.4621 -0.4484  0.4529
13383TIP3    H161640   2.189   2.544   1.475 -2.0168  0.3624 -0.4274
13383TIP3    H261641   2.142   2.456   1.361  1.0987 -3.4489  1.0017
13384TIP3   OH261642   0.825   4.563  12.536  0.9116 -0.3769 -0.7509
13384TIP3    H161643   0.807   4.475  12.504  0.5188 -0.4358 -0.3725
13384TIP3    H261644   0.823   4.617  12.457  4.6323 -1.1617 -1.5710
13385TIP3   OH261645   2.155   1.699  16.840  0.2367 -0.0229 -0.7150
13385TIP3    H161646   2.136   1.793  16.833  1.6226  0.2426 -1.2688
13385TIP3    H261647   2.082   1.657  16.794  0.0805  0.8455 -1.3007
13386TIP3   OH261648   3.964   5.908   5.620 -0.4400 -0.7617  0.5503
13386TIP3    H161649   3.973   5.881   5.711  0.5735 -0.2137  0.6322
13386TIP3    H261650   4.050   5.890   5.581 -1.6756 -3.8504 -1.1401
13387TIP3   OH261651   5.567   2.903  16.487 -0.0787 -0.6445 -0.5351
13387TIP3    H161652   5.645   2.860  16.451  1.0445 -0.0496  1.0865
13387TIP3    H261653   5.571   2.992  16.453 -0.6109 -0.8840 -1.2471
13388TIP3   OH261654   3.656   0.785  14.067 -0.4673 -1.1339  0.2506
13388TIP3    H161655   3.642   0.837  13.988  0.9404 -1.3314 -0.1502
13388TIP3    H261656   3.619   0.838  14.137 -0.5138 -0.3291 -0.3653
13389TIP3   OH261657   4.412   4.574  17.010  0.2066 -0.2272 -0.0146
13389TIP3    H161658   4.392   4.558  17.102  1.3609  0.0481  0.3047
13389TIP3    H261659   4.469   4.502  16.984 -1.4621 -1.2720 -1.0409
13390TIP3   OH261660   1.187   1.768   2.538 -0.2006  0.3360 -0.5360
13390TIP3    H161661   1.193   1.843   2.598  1.4926 -1.3392  1.5360
13390TIP3    H261662   1.114   1.716   2.573 -0.5707  0.3866 -1.2225
13391TIP3   OH261663   4.059   3.077   1.280 -0.1960 -0.3264  0.0459
13391TIP3    H161664   4.047   3.165   1.244  0.6215  0.6906  2.0714
13391TIP3    H261665   3.983   3.064   1.337  0.1947 -0.4962  0.5380
13392TIP3   OH261666   1.542   3.985   4.837  0.4264  0.1086  0.1901
13392TIP3    H161667   1.634   3.964   4.851  0.3056 -1.0713 -0.6199
13392TIP3    H261668   1.498   3.952   4.915  0.7219  1.1078  0.8048
13393TIP3   OH261669   1.356   1.845  16.628  0.1987  0.2291 -0.1034
13393TIP3    H161670   1.433   1.860  16.573  0.5754  0.1869  0.3955
13393TIP3    H261671   1.282   1.866  16.572  0.5876  0.6078 -0.4922
13394TIP3   OH261672   6.470   4.822  11.697  0.0654  0.2506  0.1652
13394TIP3    H161673   6.497   4.874  11.621 -1.3496  0.3207 -0.3135
13394TIP3    H261674   6.442   4.886  11.762 -0.7791  0.1311 -0.0716
13395TIP3   OH261675   4.505   4.490   3.963 -0.2540  0.7164  0.3193
13395TIP3    H161676   4.589   4.529   3.941 -0.1051  0.2721  0.0906
13395TIP3    H261677   4.475   4.539   4.040  1.4680 -0.8557  2.0693
13396TIP3   OH261678   3.395   4.949   2.377  0.0837 -0.4982  0.1562
13396TIP3    H161679   3.305   4.920   2.392 -0.5969  0.7473 -1.1920
13396TIP3    H261680   3.439   4.871   2.342 -0.7540 -0.8690 -0.1255
13397TIP3   OH261681   4.435   3.677   4.365  0.1927 -0.3744  0.8691
13397TIP3    H161682   4.392   3.629   4.294 -0.3786 -0.9688  1.6007
13397TIP3    H261683   4.405   3.634   4.445  0.1199  0.8500  1.5275
13398TIP3   OH261684   4.994   1.231  16.062 -0.7078  0.1593  0.0243
13398TIP3    H161685   4.951   1.280  15.993  0.4547  0.8723 -0.2148
13398TIP3    H261686   4.923   1.193  16.113 -1.6015  1.0305 -0.5553
13399TIP3   OH261687   4.127   5.296   5.936  0.4273  0.3740 -0.1964
13399TIP3    H161688   4.066   5.347   5.989 -0.1312 -0.0012 -0.4669
13399TIP3    H261689   4.128   5.340   5.851  0.3431  0.2322 -0.2705
13400TIP3   OH261690   5.042   6.619  11.969 -0.5864 -0.0323 -0.1909
13400TIP3    H161691   5.131   6.584  11.970  0.2642  1.8408 -2.2454
13400TIP3    H261692   5.050   6.708  12.003 -0.9536  1.3865 -3.4321
13401TIP3   OH261693   3.801   2.083   2.350  0.3089  0.2532  0.4626
13401TIP3    H161694   3.772   2.165   2.389  1.2359  1.9967 -2.2360
13401TIP3    H261695   3.887   2.067   2.390 -1.2217 -1.3375  3.4664
13402TIP3   OH261696   1.751   4.351  12.710 -0.1983 -0.0399 -0.4188
13402TIP3    H161697   1.812   4.347  12.636 -0.6183  0.0612 -0.7766
13402TIP3    H261698   1.703   4.269  12.706 -0.1065 -0.1081 -0.1514
13403TIP3   OH261699   1.182   3.855  15.425 -0.1606  0.4728  0.1656
13403TIP3    H161700   1.273   3.860  15.453  0.9378 -1.2257 -2.6602
13403TIP3    H261701   1.145   3.784  15.478  0.3172  0.7581  0.8989
13404TIP3   OH261702   1.067   5.487   3.811 -0.6257 -0.5562 -0.0544
13404TIP3    H161703   1.077   5.493   3.716 -0.1971 -0.7137 -0.0238
13404TIP3    H261704   1.142   5.534   3.847 -0.8947 -0.3207  0.2108
13405TIP3   OH261705   3.657   5.392   2.844 -0.3641  0.1930  0.6396
13405TIP3    H161706   3.605   5.311   2.841 -0.7782  0.4352  1.1069
13405TIP3    H261707   3.629   5.441   2.766 -1.8532  0.9182  1.5692
13406TIP3   OH261708   0.322   5.889   1.129  0.0727 -0.4919  0.2250
13406TIP3    H161709   0.357   5.850   1.049  0.7953  0.4822  0.0569
13406TIP3    H261710   0.393   5.943   1.163 -1.2154  1.4731 -0.0758
13407TIP3   OH261711   1.331   6.262  11.943  0.0825 -0.1183 -0.3043
13407TIP3    H161712   1.398   6.215  11.993  1.3399  0.4474 -1.4041
13407TIP3    H261713   1.278   6.193  11.903  0.5372 -0.5891 -0.1065
13408TIP3   OH261714   2.722   1.929   5.245  0.1178 -0.2661  0.1950
13408TIP3    H161715   2.795   1.876   5.213 -0.1253 -0.6334  0.2403
13408TIP3    H261716   2.755   1.971   5.325  0.5142  0.1447 -0.1778
13409TIP3   OH261717   0.383   1.663  17.204  0.3119  0.5114  0.4207
13409TIP3    H161718   0.393   1.753  17.236 -0.2313  0.8051 -0.2068
13409TIP3    H261719   0.291   1.642  17.219  0.2194  0.3965 -0.2551
13410TIP3   OH261720   0.269   5.567   2.067  0.3479  0.0966  0.4439
13410TIP3    H161721   0.300   5.530   2.149  0.9173  1.9728  1.1228
13410TIP3    H261722   0.274   5.662   2.080  2.9371  0.5342 -2.6585
13411TIP3   OH261723   4.405   3.710  12.259  0.0665  0.0242 -0.2890
13411TIP3    H161724   4.380   3.620  12.237 -0.5180  0.2563 -0.5851
13411TIP3    H261725   4.475   3.700  12.324 -0.7058 -0.6563  0.4745
13412TIP3   OH261726   0.332   5.167  12.012  0.3158 -0.0968  0.0702
13412TIP3    H161727   0.369   5.102  12.072 -0.2043 -0.5748 -0.1080
13412TIP3    H261728   0.381   5.155  11.930 -0.0685 -0.5695 -0.0952
13413TIP3   OH261729   6.213   2.002  16.653  0.4265 -0.0699 -0.2380
13413TIP3    H161730   6.235   1.944  16.581  1.4238 -0.7649  0.5926
13413TIP3    H261731   6.142   2.056  16.620  1.5768  0.3816 -2.1195
13414TIP3   OH261732   1.250   3.752  13.107  0.1424  0.1449  0.5475
13414TIP3    H161733   1.343   3.774  13.110  0.3465 -0.4741 -0.6310
13414TIP3    H261734   1.214   3.789  13.188  1.1990  1.3108  0.5155
13415TIP3   OH261735   4.437   1.817  11.218  0.3403 -0.1067 -0.2370
13415TIP3    H161736   4.423   1.749  11.152  0.6708 -1.0506  0.6432
13415TIP3    H261737   4.358   1.872  11.212 -0.9758 -1.8237  0.4946
13416TIP3   OH261738   0.174   4.312  10.512 -0.3048  0.1317  0.3323
13416TIP3    H161739   0.202   4.371  10.581  2.6326  2.6040 -2.6273
13416TIP3    H261740   0.118   4.366  10.455  1.4905 -0.0960 -1.8166
13417TIP3   OH261741   5.646   2.129   0.258 -0.4791 -0.2942 -0.3777
13417TIP3    H161742   5.665   2.077   0.336  0.0658 -0.3029 -0.5114
13417TIP3    H261743   5.732   2.149   0.221 -0.7260 -0.1259 -0.8696
13418TIP3   OH261744   2.528   6.297   1.884 -0.5721 -0.5327  0.2956
13418TIP3    H161745   2.510   6.303   1.977  0.0903 -0.1938  0.4105
13418TIP3    H261746   2.449   6.258   1.846 -0.6926 -1.0483  1.0505
13419TIP3   OH261747   0.795   1.062  16.362 -0.3414 -0.3688 -0.2550
13419TIP3    H161748   0.709   1.060  16.320 -0.9100 -0.8548  0.8659
13419TIP3    H261749   0.839   0.983  16.330 -0.7095 -0.6513 -0.0850
13420TIP3   OH261750   3.337   0.710   0.711 -0.4446 -0.2289  0.0563
13420TIP3    H161751   3.305   0.711   0.620 -1.7331  0.4163  0.4950
13420TIP3    H261752   3.386   0.628   0.718  0.7243  0.2821 -1.5642
13421TIP3   OH261753   0.523   2.449   3.075 -0.2999 -0.2870  0.1657
13421TIP3    H161754   0.488   2.527   3.033 -0.4241  0.3965  1.4870
13421TIP3    H261755   0.472   2.440   3.156  1.0777 -0.5441  1.0459
13422TIP3   OH261756   5.796   4.474   5.555  0.1472 -0.3977  0.1233
13422TIP3    H161757   5.824   4.564   5.536 -2.0383  0.6595  1.5241
13422TIP3    H261758   5.781   4.435   5.469  1.0415  0.5743 -0.5024
13423TIP3   OH261759   2.970   0.142  16.063 -0.3702  0.4831  0.3067
13423TIP3    H161760   2.957   0.058  16.020 -0.2127  0.5114  0.2000
13423TIP3    H261761   3.059   0.137  16.099  1.2496  1.9619 -2.9392
13424TIP3   OH261762   4.537   1.265   0.535  0.1799 -0.0718 -0.0110
13424TIP3    H161763   4.632   1.265   0.527  0.1144 -0.2942 -0.9446
13424TIP3    H261764   4.506   1.234   0.450 -0.7908  2.2803 -0.6012
13425TIP3   OH261765   3.563   1.139  13.530  0.2333  0.1235 -0.0165
13425TIP3    H161766   3.636   1.085  13.559 -1.4657 -2.2509  0.1399
13425TIP3    H261767   3.486   1.084  13.542 -1.5912  2.4411 -0.3573
13426TIP3   OH261768   0.049   3.920   4.172 -0.0353 -0.0066  0.1747
13426TIP3    H161769   0.104   3.847   4.143  0.0689  0.3923 -0.6743
13426TIP3    H261770  -0.039   3.882   4.181  0.0252 -0.2494 -0.2282
13427TIP3   OH261771   2.909   0.051  14.215 -0.6886 -0.7457  0.1462
13427TIP3    H161772   2.999   0.022  14.196 -0.5256  0.2303 -0.6749
13427TIP3    H261773   2.880   0.092  14.134 -1.1792  0.6617  0.9899
13428TIP3   OH261774   4.045   3.434   3.472 -0.1150  0.8993 -0.3677
13428TIP3    H161775   3.977   3.376   3.438  0.0240  1.4381 -1.6244
13428TIP3    H261776   4.126   3.402   3.432  0.4868 -0.0397  1.4871
13429TIP3   OH261777   2.652   0.760  15.610  0.0466  0.0010  0.0852
13429TIP3    H161778   2.720   0.719  15.664  0.2072  1.0600  0.7225
13429TIP3    H261779   2.701   0.813  15.547 -0.1532  1.1151  0.8258
13430TIP3   OH261780   4.362   2.900  13.872 -0.7185  0.1236 -0.2595
13430TIP3    H161781   4.442   2.940  13.905 -0.5206 -0.0699 -0.5010
13430TIP3    H261782   4.331   2.959  13.804  0.1979 -0.6965 -1.4221
13431TIP3   OH261783   3.174   1.424   2.375  0.3968 -0.0169  0.3272
13431TIP3    H161784   3.203   1.515   2.376  0.0954  0.0928 -0.3257
13431TIP3    H261785   3.080   1.428   2.360  0.3642 -0.4301  0.3892
13432TIP3   OH261786   4.829   1.264  14.042 -0.6598 -0.1010 -0.7064
13432TIP3    H161787   4.768   1.337  14.031  0.2673  0.8387  0.1881
13432TIP3    H261788   4.840   1.255  14.137  1.2164  0.3252 -0.8292
13433TIP3   OH261789   4.915   6.722  11.610  0.1593 -0.1598 -0.1681
13433TIP3    H161790   5.007   6.717  11.584 -0.0571  0.8318 -1.1479
13433TIP3    H261791   4.903   6.645  11.667  1.4350 -0.6191 -0.4785
13434TIP3   OH261792   5.031   0.432   4.253 -0.6375 -0.4269  0.3958
13434TIP3    H161793   5.033   0.526   4.268  0.7125 -0.5405  1.0229
13434TIP3    H261794   5.122   0.406   4.242 -1.0442 -1.5461 -0.6041
13435TIP3   OH261795   4.618   5.829   4.366 -0.8382  0.2178 -0.2797
13435TIP3    H161796   4.634   5.761   4.432  0.7295  0.2734 -0.5495
13435TIP3    H261797   4.524   5.825   4.349 -1.5374  0.9446  2.7544
13436TIP3   OH261798   4.037   3.692   0.750 -0.5133 -0.4991 -0.2342
13436TIP3    H161799   4.026   3.784   0.775 -0.0413 -0.7550  1.0054
13436TIP3    H261800   4.090   3.654   0.821 -0.5683 -1.6888 -0.8040
13437TIP3   OH261801   3.254   4.231  16.216  0.2365 -0.3533  0.1451
13437TIP3    H161802   3.318   4.171  16.254  0.4286  0.1753  0.6676
13437TIP3    H261803   3.296   4.262  16.136 -0.7005 -2.4680 -1.2648
13438TIP3   OH261804   2.827   2.273  15.742 -0.3405 -0.1725 -0.3741
13438TIP3    H161805   2.768   2.311  15.807  0.6340  3.5652 -1.4449
13438TIP3    H261806   2.770   2.246  15.670 -1.0270  0.1217  0.0558
13439TIP3   OH261807   0.255   5.381   4.699  0.0104  0.2703  0.0177
13439TIP3    H161808   0.244   5.418   4.611 -1.1531 -2.0582 -0.9138
13439TIP3    H261809   0.179   5.414   4.748  1.3576  2.6752  0.6745
13440TIP3   OH261810   3.171   1.216  15.535 -0.5000  0.2375 -0.0013
13440TIP3    H161811   3.105   1.196  15.469 -1.8783  0.3484  1.2964
13440TIP3    H261812   3.157   1.152  15.604 -0.2643  1.2105  0.9890
13441TIP3   OH261813   4.948   5.718  15.225  0.7441 -0.2102 -0.6334
13441TIP3    H161814   4.948   5.634  15.181  1.0812 -1.0631  0.9128
13441TIP3    H261815   4.871   5.715  15.283  1.6085 -0.1129  0.5654
13442TIP3   OH261816   2.747   0.697   1.020  0.5793  0.1598  0.0013
13442TIP3    H161817   2.697   0.618   1.042  1.7357 -0.5454  0.1781
13442TIP3    H261818   2.745   0.750   1.099 -0.4812  0.4820 -0.2225
13443TIP3   OH261819   0.793   6.035  15.536  0.2382 -0.0516  0.0020
13443TIP3    H161820   0.867   6.096  15.536  0.9739 -0.8777 -1.6025
13443TIP3    H261821   0.761   6.035  15.446 -0.5892 -1.0398  0.2651
13444TIP3   OH261822   2.314   6.590  14.451 -0.3058 -0.2669  0.1890
13444TIP3    H161823   2.314   6.686  14.454 -1.8067 -0.2579  1.1081
13444TIP3    H261824   2.245   6.569  14.388 -0.1136 -0.7445  0.1396
13445TIP3   OH261825   1.044   2.734   4.672  0.2804  0.4886 -0.8074
13445TIP3    H161826   1.012   2.811   4.627 -0.0347  0.8879  0.0773
13445TIP3    H261827   0.965   2.688   4.701  0.4805  0.8149  0.2841
13446TIP3   OH261828   6.500   2.513   0.162 -0.4329 -0.1810  0.1940
13446TIP3    H161829   6.451   2.580   0.209 -0.2433  0.2677 -0.2305
13446TIP3    H261830   6.532   2.558   0.083 -2.6051 -1.4726 -1.5226
13447TIP3   OH261831   4.372   0.384  12.971  0.1586  0.0005 -0.4312
13447TIP3    H161832   4.354   0.415  12.882  2.2077 -0.2231 -0.9561
13447TIP3    H261833   4.378   0.464  13.023  1.0372  0.2643 -0.9218
13448TIP3   OH261834   1.054   1.298  12.524  0.0056 -0.0593  0.5282
13448TIP3    H161835   1.098   1.213  12.532  0.0517 -0.0555  0.3147
13448TIP3    H261836   1.028   1.319  12.614  0.0885 -0.2488  0.5994
13449TIP3   OH261837   1.856   3.240   1.272  0.0025  0.0775  0.4114
13449TIP3    H161838   1.786   3.289   1.229 -1.9782 -0.7460  2.4728
13449TIP3    H261839   1.851   3.152   1.235  0.1814  0.1055  0.3182
13450TIP3   OH261840   5.310   6.700  16.338  0.8554 -0.1423  0.3617
13450TIP3    H161841   5.303   6.788  16.376 -1.7351 -0.0607 -0.1318
13450TIP3    H261842   5.347   6.715  16.251  2.0572  0.2284  0.9143
13451TIP3   OH261843   0.142   5.834  14.948 -0.2666 -0.1992 -0.3124
13451TIP3    H161844   0.085   5.763  14.977 -1.5552  1.0674  0.3915
13451TIP3    H261845   0.134   5.900  15.016  0.0590  1.0650 -1.4615
13452TIP3   OH261846   2.699   3.027   2.418 -0.4578  0.7499 -0.0990
13452TIP3    H161847   2.659   3.101   2.373 -1.1508  0.2595 -0.3068
13452TIP3    H261848   2.685   2.953   2.359  1.1442  0.6424 -0.3697
13453TIP3   OH261849   5.159   1.305   4.463 -0.4159  0.2421 -0.4915
13453TIP3    H161850   5.168   1.216   4.429  1.0113  0.4195 -0.6839
13453TIP3    H261851   5.169   1.361   4.385  2.7920  0.6542  0.0550
13454TIP3   OH261852   0.947   5.733   1.238 -0.1497  0.0393 -0.0353
13454TIP3    H161853   1.024   5.788   1.253  0.4719 -0.5882 -0.8143
13454TIP3    H261854   0.873   5.786   1.268  0.7465 -0.2523  3.1174
13455TIP3   OH261855   4.881   4.563  14.692  0.2333 -0.3525 -0.6430
13455TIP3    H161856   4.915   4.652  14.686  1.3763 -0.8468 -1.8966
13455TIP3    H261857   4.885   4.543  14.786  1.4066  0.3790 -0.5045
13456TIP3   OH261858   4.133   4.797  13.014 -0.3073  0.1336 -0.5517
13456TIP3    H161859   4.216   4.817  12.970  0.6350 -0.4014  0.9170
13456TIP3    H261860   4.129   4.701  13.014 -0.8136  0.1519 -0.3830
13457TIP3   OH261861   4.468   6.064  11.296 -0.0611 -0.3972  0.3286
13457TIP3    H161862   4.413   6.110  11.233 -1.6893 -0.3504  1.7270
13457TIP3    H261863   4.536   6.127  11.320  0.8600 -0.5703 -1.6685
13458TIP3   OH261864   6.377   2.849   2.962  0.3554 -0.3396 -0.1098
13458TIP3    H161865   6.294   2.803   2.955  1.1989 -1.9890 -0.0136
13458TIP3    H261866   6.443   2.779   2.964  1.7685  0.9128 -0.5306
13459TIP3   OH261867   5.684   1.627   2.348 -0.6719 -0.9179  0.1713
13459TIP3    H161868   5.736   1.655   2.273 -2.6419  2.2566 -0.1965
13459TIP3    H261869   5.605   1.589   2.309 -1.0804 -0.5544  0.6326
13460TIP3   OH261870   3.335   2.711   1.962 -0.6464  0.1678 -0.1360
13460TIP3    H161871   3.259   2.762   1.992  0.2602  0.4377  1.9194
13460TIP3    H261872   3.343   2.641   2.027  1.1308  0.4203 -0.0434
13461TIP3   OH261873   3.787   4.128   5.564  0.4300 -0.1366  0.5132
13461TIP3    H161874   3.865   4.175   5.535  0.1933 -0.0195  0.0486
13461TIP3    H261875   3.735   4.194   5.610  0.7787 -0.3079  1.1585
13462TIP3   OH261876   3.081   2.749   1.057  0.0012  0.9263  0.0157
13462TIP3    H161877   3.068   2.726   1.149  1.3363 -0.4970 -0.1165
13462TIP3    H261878   3.040   2.677   1.008  1.8414  0.1267 -0.4378
13463TIP3   OH261879   1.203   1.854  17.112 -0.7527  0.0943 -0.0409
13463TIP3    H161880   1.238   1.941  17.132 -0.5154 -0.0077 -0.0065
13463TIP3    H261881   1.280   1.798  17.105 -0.9042 -0.1136 -0.0657
13464TIP3   OH261882   0.497   6.431  11.701 -0.9340  0.9543 -0.0791
13464TIP3    H161883   0.524   6.388  11.783 -2.3070  1.9507  0.9379
13464TIP3    H261884   0.564   6.405  11.638 -0.2117 -0.4173  1.1754
13465TIP3   OH261885   6.040   5.652   1.026 -0.2553 -0.5428  0.1594
13465TIP3    H161886   6.034   5.690   0.938 -2.3223 -1.3992 -0.1372
13465TIP3    H261887   6.126   5.610   1.028  0.8720  1.5912 -0.5278
13466TIP3   OH261888   3.358   5.621  12.123 -0.2546  0.1679 -0.1445
13466TIP3    H161889   3.432   5.574  12.085  0.0403  0.3985  0.1429
13466TIP3    H261890   3.281   5.587  12.076  0.0079 -0.2298 -0.2888
13467TIP3   OH261891   3.321   1.504  14.888 -0.2660  0.9106 -0.5251
13467TIP3    H161892   3.408   1.526  14.922  0.5326  0.1997 -2.0434
13467TIP3    H261893   3.309   1.563  14.813 -0.6830  0.3547 -0.9052
13468TIP3   OH261894   5.397   0.782  11.923 -0.0897 -0.7175 -0.3256
13468TIP3    H161895   5.459   0.710  11.915  1.6948  0.6437  0.3368
13468TIP3    H261896   5.323   0.746  11.971  2.0920 -1.4168  2.8097
13469TIP3   OH261897   3.966   5.899   4.619 -0.8126  0.3208  0.0608
13469TIP3    H161898   4.034   5.887   4.686  0.8918  0.9307 -1.4758
13469TIP3    H261899   4.003   5.964   4.559 -1.1826 -1.8950 -2.7957
13470TIP3   OH261900   3.355   1.186   3.909  0.0097  0.1632 -0.1375
13470TIP3    H161901   3.266   1.184   3.944 -0.2857 -0.4879 -0.8728
13470TIP3    H261902   3.360   1.108   3.853  0.9354  0.3699 -0.3602
13471TIP3   OH261903   5.988   5.131   1.682  0.0578 -0.0775 -0.6677
13471TIP3    H161904   5.914   5.082   1.719 -1.1818  1.7329 -0.6290
13471TIP3    H261905   6.053   5.133   1.752 -0.2851 -0.7721 -0.3158
13472TIP3   OH261906   1.520   2.820  14.640  0.1802 -0.1211  0.5682
13472TIP3    H161907   1.465   2.761  14.691 -0.9461 -1.2115 -1.7124
13472TIP3    H261908   1.580   2.858  14.703 -3.2551  1.3017  3.3276
13473TIP3   OH261909   3.318   5.668   4.642 -0.5289 -0.5961 -0.0769
13473TIP3    H161910   3.228   5.669   4.676  0.0745 -0.6866  1.6244
13473TIP3    H261911   3.364   5.735   4.693  0.8782 -2.0316  0.6138
13474TIP3   OH261912   5.800   2.208   2.322  0.3560 -0.0337  0.4590
13474TIP3    H161913   5.830   2.230   2.234  2.3599  0.1918  1.1461
13474TIP3    H261914   5.870   2.153   2.358 -1.2274 -1.5917  1.3271
13475TIP3   OH261915   4.395   5.527   5.907  0.0126 -0.3371  0.0840
13475TIP3    H161916   4.395   5.451   5.848 -0.3197 -1.6216  1.6865
13475TIP3    H261917   4.307   5.529   5.944  0.0114  0.8695  0.0392
13476TIP3   OH261918   1.233   0.286  12.002  0.1745 -0.0637  0.1780
13476TIP3    H161919   1.233   0.215  11.937  1.1270 -0.5749  0.7220
13476TIP3    H261920   1.325   0.310  12.012 -0.1480  1.3437 -0.0791
13477TIP3   OH261921   6.084   1.332  13.504 -0.0468  0.9753 -0.1227
13477TIP3    H161922   6.076   1.249  13.550 -1.6207  0.5110 -1.1487
13477TIP3    H261923   6.098   1.397  13.574  2.0804 -0.2011  0.6247
13478TIP3   OH261924   3.855   6.631  14.677  0.0101  1.0017 -0.0987
13478TIP3    H161925   3.761   6.645  14.686  0.0160  0.5257  0.7255
13478TIP3    H261926   3.864   6.536  14.665  0.5954  0.5590  3.1147
13479TIP3   OH261927   5.240   2.721   3.741 -0.8040 -0.3033 -0.3513
13479TIP3    H161928   5.158   2.701   3.696  0.1441 -0.5458 -2.0784
13479TIP3    H261929   5.228   2.810   3.775 -1.6983 -0.2439 -0.8041
13480TIP3   OH261930   0.847   4.308   0.347 -0.3056 -0.2391 -0.4934
13480TIP3    H161931   0.760   4.298   0.309  0.2264 -0.6720 -1.6402
13480TIP3    H261932   0.885   4.382   0.301  0.7190 -1.3843 -1.5737
13481TIP3   OH261933   1.702   3.792  13.067 -0.0650  0.6868 -0.3254
13481TIP3    H161934   1.721   3.840  12.986  1.7888 -2.1103 -1.7124
13481TIP3    H261935   1.784   3.794  13.116 -0.3498  0.0384  0.1948
13482TIP3   OH261936   2.101   0.297   4.827  0.4590 -0.3295 -0.3329
13482TIP3    H161937   2.168   0.228   4.823 -0.3580 -1.1814  0.3146
13482TIP3    H261938   2.018   0.250   4.823 -0.1206  0.5874  0.6279
13483TIP3   OH261939   0.733   1.260  15.618  0.6819  0.4059 -0.1423
13483TIP3    H161940   0.722   1.318  15.694  1.3960 -1.8751  1.8083
13483TIP3    H261941   0.735   1.320  15.543 -1.0536  2.7068  1.4766
13484TIP3   OH261942   6.421   4.544  14.153 -0.2992  0.7956  0.3717
13484TIP3    H161943   6.399   4.526  14.062 -0.4974  2.3938  0.0724
13484TIP3    H261944   6.352   4.603  14.183  0.3038  1.0780  1.2532
13485TIP3   OH261945   0.474   5.720  16.821  0.4065  0.0638 -0.3428
13485TIP3    H161946   0.387   5.728  16.781 -0.8150 -0.8904  1.9204
13485TIP3    H261947   0.498   5.628  16.808  0.9298  0.2355 -0.6317
13486TIP3   OH261948   4.065   6.777  13.044  0.0132 -0.7531  0.3241
13486TIP3    H161949   4.061   6.703  12.983  2.2345 -0.0500 -0.7656
13486TIP3    H261950   4.048   6.854  12.989 -1.5770 -0.3418  1.3206
13487TIP3   OH261951   5.587   0.674   1.625  0.2512 -0.3837  0.5181
13487TIP3    H161952   5.528   0.734   1.579 -0.6020  0.2317  2.3280
13487TIP3    H261953   5.529   0.607   1.661  0.8058 -0.4577  1.2893
13488TIP3   OH261954   2.034   1.728   6.583  0.4829  0.1526  0.0062
13488TIP3    H161955   1.953   1.737   6.532  0.4557 -0.8104 -0.1284
13488TIP3    H261956   2.005   1.700   6.669  0.6550  0.0794  0.0407
13489TIP3   OH261957   4.286   0.135   1.315 -0.2907 -0.1927  0.2743
13489TIP3    H161958   4.344   0.209   1.295 -1.0144  0.3725  0.2091
13489TIP3    H261959   4.324   0.096   1.393 -0.7056  1.1761  1.2077
13490TIP3   OH261960   2.295   4.197  16.288  0.6370 -0.0468 -0.4116
13490TIP3    H161961   2.311   4.113  16.245  1.0563 -0.9597  1.4023
13490TIP3    H261962   2.244   4.247  16.225  0.0489 -1.8048 -1.4149
13491TIP3   OH261963   5.845   0.236   2.271  0.1575  0.9457  0.6638
13491TIP3    H161964   5.822   0.296   2.200 -1.2910 -1.2519 -0.8102
13491TIP3    H261965   5.941   0.232   2.268  0.4521  4.2029  1.7724
13492TIP3   OH261966   6.435   0.528  12.673  0.2368 -0.7566 -0.4689
13492TIP3    H161967   6.515   0.528  12.619  1.5829  2.2057  1.2754
13492TIP3    H261968   6.365   0.549  12.612  1.4716  0.8566 -1.4147
13493TIP3   OH261969   0.632   5.906  12.125  0.1106  0.5154 -0.0701
13493TIP3    H161970   0.566   5.843  12.153 -0.5962  1.1274 -0.3258
13493TIP3    H261971   0.627   5.977  12.189 -0.6933  1.3609 -1.0254
13494TIP3   OH261972   4.444   5.555   0.032  0.3834  0.1730  0.5228
13494TIP3    H161973   4.471   5.473   0.073 -1.4293 -0.4071  0.6392
13494TIP3    H261974   4.366   5.532  -0.019  1.8222  1.1298 -2.2679
13495TIP3   OH261975   0.629   5.789  14.092 -0.0309  0.0713  0.8220
13495TIP3    H161976   0.571   5.840  14.036 -1.3601 -0.3600  1.7745
13495TIP3    H261977   0.572   5.753  14.160  1.2805 -0.7138  1.5449
13496TIP3   OH261978   6.461   6.113   1.516 -0.0329 -0.0279  0.1242
13496TIP3    H161979   6.396   6.061   1.564 -0.2625  0.3030  0.1705
13496TIP3    H261980   6.414   6.191   1.489 -0.7446 -1.3990 -3.0657
13497TIP3   OH261981   6.048   4.739  13.084  0.1559 -0.0660 -0.3718
13497TIP3    H161982   6.109   4.744  13.158  2.1725 -0.0414 -1.9332
13497TIP3    H261983   6.105   4.733  13.007 -1.8134  1.5591 -2.0746
13498TIP3   OH261984   5.432   4.893   3.835  0.2947 -0.2403 -0.2244
13498TIP3    H161985   5.493   4.966   3.824 -0.7506  0.3282 -3.1313
13498TIP3    H261986   5.390   4.910   3.920  1.3279  1.5439 -0.0074
13499TIP3   OH261987   5.849   3.279   4.757  0.3901 -0.0233  0.0724
13499TIP3    H161988   5.899   3.202   4.782  1.3489  0.2668 -0.8657
13499TIP3    H261989   5.801   3.304   4.836 -0.6801 -2.1030  0.1290
13500TIP3   OH261990   5.664   0.813  13.702  0.0195  0.2181 -0.0446
13500TIP3    H161991   5.693   0.763  13.778  0.4523 -0.3234 -0.5469
13500TIP3    H261992   5.717   0.778  13.630 -0.0318  1.0602 -0.4986
13501TIP3   OH261993   0.962   0.315   6.238  0.1654  0.3355 -0.6481
13501TIP3    H161994   0.985   0.375   6.310 -0.7070 -0.6991  0.5321
13501TIP3    H261995   0.998   0.231   6.265 -0.8638 -0.2414 -1.0370
13502TIP3   OH261996   5.837   1.513  12.069 -0.0224 -0.0973 -0.0383
13502TIP3    H161997   5.755   1.489  12.026  0.0760 -0.4550 -0.0282
13502TIP3    H261998   5.812   1.538  12.158  0.2528 -4.0943  1.3775
13503TIP3   OH261999   2.098   2.889   4.192 -0.3476  0.2433 -0.7205
13503TIP3    H162000   2.028   2.849   4.244 -0.0726 -0.6840 -1.0506
13503TIP3    H262001   2.058   2.969   4.156 -0.2932  1.3430  1.5291
13504TIP3   OH262002   4.705   6.366   5.708  0.3683  0.2577 -0.2019
13504TIP3    H162003   4.689   6.438   5.768 -0.4217  0.1140 -0.2319
13504TIP3    H262004   4.799   6.369   5.691  0.2330  1.7924 -0.8532
13505TIP3   OH262005   4.738   0.989   5.476  0.0384  0.0749  0.4302
13505TIP3    H162006   4.724   1.083   5.485 -1.1218 -0.1035  0.5916
13505TIP3    H262007   4.809   0.982   5.412  0.2062  1.0581  0.4884
13506TIP3   OH262008   6.064   0.872   5.117 -0.2807  0.1090  0.3545
13506TIP3    H162009   6.099   0.877   5.028  0.0254 -1.2057  0.3870
13506TIP3    H262010   6.140   0.878   5.174 -0.3579 -0.1787  0.4922
13507TIP3   OH262011   2.134   6.660   2.139  0.3102 -0.0847 -0.1013
13507TIP3    H162012   2.043   6.644   2.163  0.4608 -2.8760 -1.0792
13507TIP3    H262013   2.184   6.638   2.218  0.2790 -0.6010 -0.2286
13508TIP3   OH262014   0.706   0.751   1.748 -0.0567 -0.3685  0.5427
13508TIP3    H162015   0.667   0.703   1.675  1.1219 -0.7550  0.1290
13508TIP3    H262016   0.637   0.758   1.813 -1.6713  1.3496 -1.1998
13509TIP3   OH262017   2.400   3.848   2.123  0.3352  0.6209 -0.0485
13509TIP3    H162018   2.467   3.790   2.158 -2.1911 -1.2547  2.0802
13509TIP3    H262019   2.397   3.921   2.184 -1.6500 -0.9212  1.8676
13510TIP3   OH262020   4.290   5.835  10.699 -0.5029 -0.3474  0.3486
13510TIP3    H162021   4.233   5.894  10.650 -1.3675 -1.1709  0.3381
13510TIP3    H262022   4.372   5.883  10.708 -0.3404 -0.1465 -1.8170
13511TIP3   OH262023   2.190   5.158   1.464  0.0479  0.5458  0.1742
13511TIP3    H162024   2.125   5.208   1.513 -1.7290  0.4924 -1.9630
13511TIP3    H262025   2.159   5.162   1.374  2.1046 -0.9824 -0.6563
13512TIP3   OH262026   1.381   0.903   5.157 -0.1382  0.2618 -0.5677
13512TIP3    H162027   1.314   0.922   5.092  0.5558 -0.7174 -1.6211
13512TIP3    H262028   1.406   0.988   5.192 -1.5000  0.6849 -0.5761
13513TIP3   OH262029   5.879   0.473   4.165  0.9402 -0.0239  0.4517
13513TIP3    H162030   5.832   0.464   4.248  1.5033 -0.1090  0.7672
13513TIP3    H262031   5.971   0.478   4.190  1.2668 -1.7335 -0.2702
13514TIP3   OH262032   3.412   5.067   3.156  0.4060 -0.1365 -0.1174
13514TIP3    H162033   3.383   5.016   3.231 -1.1673 -0.4838 -0.9185
13514TIP3    H262034   3.503   5.090   3.176  0.5511 -1.6282  1.1118
13515TIP3   OH262035   5.249   6.233   0.684  0.4921 -0.2025  0.1052
13515TIP3    H162036   5.342   6.252   0.691  0.7698 -1.7519  1.2253
13515TIP3    H262037   5.244   6.150   0.637 -0.3321 -0.0995 -0.0192
13516TIP3   OH262038   0.395   4.432  11.932  0.5679 -0.4593  0.1756
13516TIP3    H162039   0.426   4.510  11.887  1.1904 -0.4068  0.6822
13516TIP3    H262040   0.405   4.361  11.868  0.3361 -0.1882 -0.1636
13517TIP3   OH262041   2.131   1.642  16.482 -0.0926  0.5935  0.0679
13517TIP3    H162042   2.070   1.664  16.552 -0.1945 -0.7857  0.4277
13517TIP3    H262043   2.089   1.569  16.435  1.0088  0.0053 -0.0289
13518TIP3   OH262044   1.631   3.448  14.321  0.4930 -0.0392  0.7129
13518TIP3    H162045   1.640   3.470  14.228  0.1726 -1.0472  0.4271
13518TIP3    H262046   1.546   3.403  14.326  0.6570 -0.2785  1.4311
13519TIP3   OH262047   5.229   2.165  15.453  0.7773  0.1541 -0.3044
13519TIP3    H162048   5.231   2.236  15.518  1.8413  0.0403 -0.1813
13519TIP3    H262049   5.155   2.186  15.397  0.6386  0.9816  0.1618
13520TIP3   OH262050   2.566   3.891   2.732 -0.0899 -0.1091 -0.1791
13520TIP3    H162051   2.584   3.983   2.754  0.8919 -0.3616  0.1050
13520TIP3    H262052   2.482   3.894   2.686  0.8545  1.2015 -1.9754
13521TIP3   OH262053   1.328   3.733   3.125 -0.1490  0.1330 -0.2622
13521TIP3    H162054   1.397   3.766   3.068  0.4687 -0.1623  0.3097
13521TIP3    H262055   1.264   3.695   3.064 -0.1356  0.9936 -0.8313
13522TIP3   OH262056   0.754   3.747   2.211  0.6178 -0.0969 -0.4953
13522TIP3    H162057   0.733   3.841   2.216  0.9669 -0.0507  0.3212
13522TIP3    H262058   0.825   3.736   2.274 -1.0194 -1.3717  1.1887
13523TIP3   OH262059   4.925   0.303  15.796  0.5133  0.1007  0.1721
13523TIP3    H162060   4.907   0.336  15.708  1.4679  0.2068  0.0022
13523TIP3    H262061   4.872   0.224  15.804  1.8826 -1.0174 -1.2433
13524TIP3   OH262062   4.395   6.175  11.695  0.3433 -0.0413  0.2657
13524TIP3    H162063   4.461   6.106  11.705 -0.7262 -1.0754  0.4186
13524TIP3    H262064   4.324   6.132  11.646 -1.0226  0.4746  1.7336
13525TIP3   OH262065   4.854   1.497   2.580  0.1242  0.3495 -0.8752
13525TIP3    H162066   4.899   1.492   2.664 -0.3657 -0.5133 -0.6555
13525TIP3    H262067   4.762   1.482   2.600 -0.3148  2.2033 -1.3104
13526TIP3   OH262068   0.212   5.556   0.955 -0.4059 -0.1898  0.0760
13526TIP3    H162069   0.307   5.558   0.945 -0.6116  0.5747 -2.3666
13526TIP3    H262070   0.195   5.476   1.005  1.4262 -1.3250 -0.9922
13527TIP3   OH262071   0.450   5.424  16.940 -0.1182 -0.4969 -0.6169
13527TIP3    H162072   0.426   5.350  16.884 -0.0087 -1.3616  0.4590
13527TIP3    H262073   0.414   5.402  17.026  1.0535  0.0786  0.0400
13528TIP3   OH262074   6.778   6.289   5.919 -0.5624 -0.2176 -0.3288
13528TIP3    H162075   6.845   6.357   5.926  0.1503 -0.8641 -0.7142
13528TIP3    H262076   6.801   6.225   5.987  0.2787 -1.3263 -1.6135
13529TIP3   OH262077   3.536   0.218   6.665 -0.2658 -0.4526  0.6995
13529TIP3    H162078   3.522   0.124   6.653 -1.3503 -0.4090  1.4817
13529TIP3    H262079   3.449   0.257   6.657  0.1497  0.4761  0.5283
13530TIP3   OH262080   3.115   5.374   4.435 -0.1683  0.1492 -0.0513
13530TIP3    H162081   3.190   5.419   4.395  2.3246 -3.1400  0.4872
13530TIP3    H262082   3.128   5.386   4.529  0.0888 -0.9647  0.0679
13531TIP3   OH262083   2.630   1.346  15.190 -0.8818 -0.0268  0.4018
13531TIP3    H162084   2.636   1.358  15.096  1.0073  0.0431  0.4923
13531TIP3    H262085   2.573   1.416  15.220 -1.6782 -0.1822 -0.7052
13532TIP3   OH262086   3.153   3.095  13.261 -0.5423 -0.9456  0.1868
13532TIP3    H162087   3.187   3.074  13.348 -0.6644 -1.9792  0.0062
13532TIP3    H262088   3.064   3.127  13.277 -0.6154 -1.2678  0.4437
13533TIP3   OH262089   4.541   1.368   6.020  0.3480  0.3104 -0.5006
13533TIP3    H162090   4.516   1.280   5.992 -0.8323 -1.0055  3.9274
13533TIP3    H262091   4.457   1.414   6.031  0.7386  0.8182  0.4472
13534TIP3   OH262092   5.671   2.806  14.563  0.3738 -0.1964 -0.4078
13534TIP3    H162093   5.664   2.898  14.585  0.6762 -0.4074  0.6513
13534TIP3    H262094   5.684   2.804  14.468  1.8439  0.9411 -0.2714
13535TIP3   OH262095   5.548   3.167   4.782  0.2110 -0.3358 -0.3271
13535TIP3    H162096   5.578   3.109   4.712  2.6859  1.4930 -0.8907
13535TIP3    H262097   5.587   3.130   4.861 -0.0397 -0.6521 -0.3464
13536TIP3   OH262098   1.677   5.051   0.686 -0.1182  0.6892  0.2465
13536TIP3    H162099   1.700   5.024   0.775  0.5067  1.5296  0.3532
13536TIP3    H262100   1.754   5.100   0.655 -0.8230  1.4750 -0.2944
13537TIP3   OH262101   4.722   0.215   3.579  0.3991  0.7300  0.0833
13537TIP3    H162102   4.681   0.136   3.542  2.5685 -0.0834 -0.7389
13537TIP3    H262103   4.723   0.199   3.674  0.7585 -0.2230 -0.0703
13538TIP3   OH262104   2.576   6.553  12.561 -0.1619 -0.1532 -0.4345
13538TIP3    H162105   2.558   6.488  12.492  0.7142 -0.1589 -0.6700
13538TIP3    H262106   2.671   6.561  12.561  0.1278 -2.1208  2.5800
13539TIP3   OH262107   4.294   1.497   6.012 -0.1519 -0.1842 -0.1204
13539TIP3    H162108   4.242   1.451   6.078  1.4088 -1.2880  0.4144
13539TIP3    H262109   4.230   1.540   5.956 -1.5691 -0.4708  1.2219
13540TIP3   OH262110   0.392   0.142  12.881  0.1483  0.2929  0.4993
13540TIP3    H162111   0.398   0.170  12.790 -0.2992  1.4300  0.8026
13540TIP3    H262112   0.481   0.111  12.903 -0.1949 -1.8675 -0.8678
13541TIP3   OH262113   1.247   2.242  11.946  0.3657 -0.5290 -0.3620
13541TIP3    H162114   1.239   2.204  11.858 -0.1494 -1.2455 -0.0213
13541TIP3    H262115   1.225   2.170  12.005  1.1074 -0.1664  0.3747
13542TIP3   OH262116   0.751   4.050  16.459 -0.1909 -0.0938 -0.1087
13542TIP3    H162117   0.689   4.116  16.489 -0.2231  0.0125 -0.4104
13542TIP3    H262118   0.722   4.027  16.371  0.1122 -0.1452 -0.1982
13543TIP3   OH262119   2.393   6.597   1.146 -0.3235 -0.2762  0.5835
13543TIP3    H162120   2.427   6.627   1.230 -3.7214 -0.3687  2.1930
13543TIP3    H262121   2.381   6.677   1.095  0.1073 -0.0149  0.8862
13544TIP3   OH262122   3.208   2.762  14.837 -0.2972  0.3680  0.0423
13544TIP3    H162123   3.268   2.687  14.846  1.1562  1.6163  1.3763
13544TIP3    H262124   3.213   2.785  14.745 -0.5977 -1.0123 -0.3481
13545TIP3   OH262125   5.018   6.618  10.996 -0.2552 -0.0878  0.4299
13545TIP3    H162126   5.024   6.704  10.955 -2.1936 -0.5995 -1.0618
13545TIP3    H262127   5.052   6.557  10.931  4.4373 -0.3503  2.6852
13546TIP3   OH262128   2.092   0.624   6.053 -0.3767  0.2488 -0.1183
13546TIP3    H162129   2.152   0.573   6.107 -0.6432 -0.6796 -0.6692
13546TIP3    H262130   2.005   0.587   6.071 -0.6704  0.9552 -0.0256
13547TIP3   OH262131   5.669   6.338   5.014 -0.0517 -0.5788  0.0948
13547TIP3    H162132   5.720   6.416   4.993  0.8588 -0.7775  1.4784
13547TIP3    H262133   5.727   6.284   5.067 -1.0364 -1.7235  0.0680
13548TIP3   OH262134   2.557   5.301   2.890 -0.1088 -0.4295 -0.0335
13548TIP3    H162135   2.643   5.267   2.867 -0.0771 -0.1227 -0.3778
13548TIP3    H262136   2.496   5.252   2.835 -0.2163 -1.0628  0.6289
13549TIP3   OH262137   0.710   2.614  16.190  0.3703  0.2972  0.3164
13549TIP3    H162138   0.627   2.661  16.190 -0.2318 -0.7313 -0.0220
13549TIP3    H262139   0.687   2.525  16.217  0.9084 -0.7149 -2.2793
13550TIP3   OH262140   3.711   6.069  13.997  0.5024 -0.2868 -0.2716
13550TIP3    H162141   3.685   6.101  13.910  1.6079  0.7672 -0.2516
13550TIP3    H262142   3.805   6.085  14.001  0.5173 -0.5589  1.0310
13551TIP3   OH262143   3.172   3.921   0.524  0.8013 -0.1800  0.3457
13551TIP3    H162144   3.103   3.920   0.458  0.3796  1.0605  0.7347
13551TIP3    H262145   3.253   3.910   0.475  0.5108  0.9017 -0.4280
13552TIP3   OH262146   5.826   2.082  15.779 -0.1494  0.1659 -0.5585
13552TIP3    H162147   5.900   2.102  15.722 -0.3213  0.3700 -0.7149
13552TIP3    H262148   5.865   2.047  15.859  0.1434  0.7174 -0.4542
13553TIP3   OH262149   0.860   5.411  15.195 -0.0064  0.3012  0.2267
13553TIP3    H162150   0.852   5.479  15.262 -1.0531  0.1792  0.2453
13553TIP3    H262151   0.822   5.451  15.116 -1.5026 -0.5562  0.4707
13554TIP3   OH262152   3.859   5.623   1.020 -0.5542 -0.3364  0.6764
13554TIP3    H162153   3.841   5.666   1.104 -1.4801 -0.7676  0.7113
13554TIP3    H262154   3.773   5.599   0.986 -0.3882  1.8953 -1.5448
13555TIP3   OH262155   5.722   2.926   1.231 -0.1410 -0.5667  0.3597
13555TIP3    H162156   5.788   2.936   1.164 -0.4200 -0.2635  0.1309
13555TIP3    H262157   5.713   2.831   1.241 -1.4471 -0.6785 -1.3834
13556TIP3   OH262158   3.002   4.644   1.174  0.0552  0.4747 -0.2781
13556TIP3    H162159   3.025   4.690   1.255 -0.0273 -0.1728  0.1134
13556TIP3    H262160   2.911   4.616   1.186  0.1581  0.0595 -0.4483
13557TIP3   OH262161   1.714   1.710  16.301 -0.2419  0.2039  0.3220
13557TIP3    H162162   1.737   1.623  16.333 -2.0982 -1.0096 -1.3705
13557TIP3    H262163   1.798   1.753  16.284  0.7233 -0.7888  2.2380
13558TIP3   OH262164   3.582   3.475  13.660  0.4878  0.5420 -0.1073
13558TIP3    H162165   3.523   3.408  13.694  0.7110  0.9210  1.0426
13558TIP3    H262166   3.640   3.428  13.600 -0.8681  0.1380 -1.1605
13559TIP3   OH262167   5.873   6.460   1.428 -0.0166  0.4753 -0.0436
13559TIP3    H162168   5.943   6.514   1.392  1.0979  0.4913  2.0366
13559TIP3    H262169   5.810   6.522   1.463  0.1132  0.4534  0.2318
13560TIP3   OH262170   5.523   3.357  16.194 -0.2300 -0.1130 -0.4278
13560TIP3    H162171   5.561   3.285  16.143  1.1649  0.5063 -0.3068
13560TIP3    H262172   5.530   3.433  16.137 -0.9986  0.0863 -0.2633
13561TIP3   OH262173   6.781   3.165   5.137  0.3761 -0.2223  0.1051
13561TIP3    H162174   6.718   3.236   5.124 -0.1661 -0.3952  1.6003
13561TIP3    H262175   6.864   3.202   5.107 -0.4124 -0.0570 -2.1039
13562TIP3   OH262176   2.762   4.996   2.390  0.3258 -0.4323  0.3654
13562TIP3    H162177   2.744   5.055   2.317  3.1427  0.6710  0.4472
13562TIP3    H262178   2.763   5.053   2.468 -1.3090 -1.3748  1.1357
13563TIP3   OH262179   2.280   2.041  17.030 -0.4414 -0.3628  0.4500
13563TIP3    H162180   2.193   2.079  17.039  0.1058  0.6956  1.5340
13563TIP3    H262181   2.268   1.949  17.053 -1.8135 -0.9945 -2.3498
13564TIP3   OH262182   5.746   3.087  14.440  0.2212  0.2830 -0.0011
13564TIP3    H162183   5.699   3.140  14.375 -0.0136 -0.3786 -0.3725
13564TIP3    H262184   5.779   3.012  14.391 -1.3167 -1.0671  0.9390
13565TIP3   OH262185   2.233   6.104  15.500  0.7745  0.1173 -0.5122
13565TIP3    H162186   2.142   6.083  15.480  0.2905  1.9144 -0.3470
13565TIP3    H262187   2.277   6.019  15.504 -1.1882 -0.9073  0.9122
13566TIP3   OH262188   6.573   5.043   2.021  0.3009 -0.2230 -0.0148
13566TIP3    H162189   6.576   5.126   2.069 -2.1153  0.9277 -1.6382
13566TIP3    H262190   6.583   4.976   2.088 -2.5931  1.3035  2.1617
13567TIP3   OH262191   3.453   6.425  12.637 -0.1968  0.7472  0.5754
13567TIP3    H162192   3.500   6.418  12.554 -0.7732  1.1482  0.2022
13567TIP3    H262193   3.521   6.432  12.703  0.3216 -1.1859  0.3197
13568TIP3   OH262194   4.521   0.221   5.642  0.1752  0.0652 -0.6895
13568TIP3    H162195   4.561   0.159   5.702 -0.8497 -2.5506 -2.5414
13568TIP3    H262196   4.490   0.293   5.698  0.1146 -1.7521  1.7443
13569TIP3   OH262197   3.136   0.719   5.597  0.4986 -0.0523 -1.2497
13569TIP3    H162198   3.166   0.636   5.636  0.9482  1.3700  1.7219
13569TIP3    H262199   3.217   0.767   5.580  0.1937  1.1175  0.3898
13570TIP3   OH262200   0.293   5.411  11.402 -0.4449 -0.1802 -0.8513
13570TIP3    H162201   0.383   5.380  11.397 -0.5085 -0.3074 -1.2145
13570TIP3    H262202   0.271   5.434  11.312 -0.7887 -0.1854 -0.7675
13571TIP3   OH262203   5.837   4.177  15.680 -0.0793 -0.6839  0.4631
13571TIP3    H162204   5.834   4.186  15.775 -1.6708 -0.3830  0.4107
13571TIP3    H262205   5.930   4.174  15.659  0.6431  4.6053  1.5519
13572TIP3   OH262206   5.175   6.619   3.219  0.3712  0.7423  0.1836
13572TIP3    H162207   5.171   6.629   3.124  1.0014  0.8209  0.1566
13572TIP3    H262208   5.202   6.705   3.252  1.2768  0.4189  0.3301
13573TIP3   OH262209   3.105   3.669   1.795  0.0548  0.0093  0.0805
13573TIP3    H162210   3.138   3.632   1.878  1.1596 -0.5597 -0.5849
13573TIP3    H262211   3.084   3.760   1.817  0.1000 -0.1937  1.0477
13574TIP3   OH262212   2.986   1.483   2.684  0.2931  0.0689 -0.1342
13574TIP3    H162213   2.995   1.425   2.760 -1.9731 -1.2851 -0.8116
13574TIP3    H262214   2.897   1.466   2.651  1.5708 -0.2593 -3.8076
13575TIP3   OH262215   1.239   0.367  12.611 -0.5178 -0.4399 -0.3049
13575TIP3    H162216   1.163   0.356  12.553 -1.2131 -0.3510  0.5613
13575TIP3    H262217   1.294   0.431  12.567 -1.5304  0.4013 -0.3902
13576TIP3   OH262218   3.259   6.102   0.816  0.2261  0.0269 -0.5448
13576TIP3    H162219   3.175   6.072   0.784 -0.4541  0.7359  0.5051
13576TIP3    H262220   3.267   6.192   0.784  0.3351  0.1463 -0.1867
13577TIP3   OH262221   1.333   5.759  14.876 -0.7979 -0.4091 -0.1833
13577TIP3    H162222   1.307   5.830  14.936  1.0104  0.0001  0.1760
13577TIP3    H262223   1.343   5.803  14.792 -1.0020 -0.5162 -0.2634
13578TIP3   OH262224   3.138   3.994  13.892 -0.0568  0.1627  0.0888
13578TIP3    H162225   3.100   3.979  13.978 -0.5305 -0.1360 -0.1646
13578TIP3    H262226   3.132   3.908  13.848 -0.5339  0.4890 -0.5079
13579TIP3   OH262227   0.766   4.702   3.131 -0.2079  0.1521  0.4199
13579TIP3    H162228   0.683   4.730   3.093 -0.7126 -1.9807 -0.1695
13579TIP3    H262229   0.830   4.716   3.061 -0.7848 -1.8315 -0.5755
13580TIP3   OH262230   0.262   4.359  15.570  0.4420  0.0268 -0.0625
13580TIP3    H162231   0.350   4.335  15.540  0.9949  0.2934  1.2638
13580TIP3    H262232   0.272   4.370  15.665 -1.7569 -3.2199  0.6854
13581TIP3   OH262233   0.904   5.620  17.104 -0.0310  0.7538  0.4278
13581TIP3    H162234   0.822   5.575  17.089 -0.1116  1.6853 -2.6157
13581TIP3    H262235   0.972   5.556  17.084 -0.0574  0.6188  0.7725
13582TIP3   OH262236   5.214   5.997   1.124  0.5215 -0.1111  0.1475
13582TIP3    H162237   5.276   5.981   1.053  0.8904 -0.8159  0.6203
13582TIP3    H262238   5.246   6.077   1.165 -0.7149  1.3406 -1.5594
13583TIP3   OH262239   3.935   1.409   5.473  0.7857  0.6829 -0.2604
13583TIP3    H162240   3.989   1.352   5.527 -0.4077  1.0441  1.3725
13583TIP3    H262241   3.946   1.496   5.511 -0.5629  0.8444 -0.1881
13584TIP3   OH262242   0.902   3.313  13.849  0.6272 -0.1694  0.0957
13584TIP3    H162243   0.830   3.259  13.879  0.0856  0.9696  0.9204
13584TIP3    H262244   0.977   3.285  13.901  0.0619  0.6891  1.4199
13585TIP3   OH262245   6.773   2.705  16.815 -0.0754 -0.3845  0.1218
13585TIP3    H162246   6.845   2.646  16.791  0.1877 -0.6172  1.4054
13585TIP3    H262247   6.694   2.659  16.788  0.1386 -1.2406  0.9104
13586TIP3   OH262248   0.851   2.038   1.344  0.0478  0.3885 -0.3426
13586TIP3    H162249   0.787   2.109   1.339  0.1728  0.4379 -1.9762
13586TIP3    H262250   0.805   1.963   1.306 -0.0945 -0.4496  1.4019
13587TIP3   OH262251   1.231   1.032   2.824  0.0529 -0.5503 -0.1070
13587TIP3    H162252   1.276   1.052   2.906 -0.5312 -0.0672  0.0993
13587TIP3    H262253   1.269   1.093   2.760 -1.6890  1.2660  0.5077
13588TIP3   OH262254   6.433   4.061  14.271 -0.3160  0.0470 -0.3695
13588TIP3    H162255   6.436   4.014  14.354  0.7461 -0.6378 -0.7679
13588TIP3    H262256   6.487   4.139  14.285  1.0249 -0.7724 -0.8051
13589TIP3   OH262257   3.472   1.273  10.570  0.3056 -0.1552 -0.4777
13589TIP3    H162258   3.565   1.292  10.582  0.4903 -1.3499  0.1746
13589TIP3    H262259   3.469   1.179  10.552 -0.9010 -0.5326  1.3904
13590TIP3   OH262260   0.779   0.670   0.423  0.7747 -0.1790 -0.5216
13590TIP3    H162261   0.823   0.733   0.480  1.7724  0.1187 -1.5828
13590TIP3    H262262   0.845   0.644   0.359  0.4890 -2.5863  0.0704
13591TIP3   OH262263   1.414   2.415  17.167 -0.0567 -0.3346  0.8284
13591TIP3    H162264   1.418   2.380  17.256  0.3725 -0.5443  0.7302
13591TIP3    H262265   1.352   2.488  17.173  0.4785  0.0847  1.4490
13592TIP3   OH262266   2.912   4.487  13.175  0.2871  0.1636 -0.2056
13592TIP3    H162267   2.845   4.433  13.217  0.4870  1.0070  1.2834
13592TIP3    H262268   2.970   4.425  13.132 -1.9769 -0.5775 -2.4731
13593TIP3   OH262269   1.647   4.413   6.106  0.1667  0.4157  0.6768
13593TIP3    H162270   1.726   4.467   6.111  0.3770  0.1883 -0.0338
13593TIP3    H262271   1.657   4.348   6.175  1.0218 -0.1572  0.0303
13594TIP3   OH262272   1.695   4.676   3.632  0.4486 -0.0261  0.3598
13594TIP3    H162273   1.719   4.616   3.561  0.1792 -0.2253  0.4359
13594TIP3    H262274   1.763   4.744   3.629  0.3583  0.0476 -0.1809
13595TIP3   OH262275   0.040   0.620  15.709  0.1453 -0.1165  0.4258
13595TIP3    H162276  -0.030   0.580  15.761  0.1327  1.3381  1.5846
13595TIP3    H262277   0.083   0.680  15.769 -0.6547  2.6355 -1.5517
13596TIP3   OH262278   0.601   5.693   5.294  0.2739 -0.4814 -0.0902
13596TIP3    H162279   0.627   5.695   5.202  0.7843 -0.4482  0.0552
13596TIP3    H262280   0.595   5.785   5.319 -1.4780 -0.4291 -0.5320
13597TIP3   OH262281   0.415   1.912  13.621 -0.2781  0.8222  0.5704
13597TIP3    H162282   0.402   1.860  13.700  0.0729  0.7694  0.5932
13597TIP3    H262283   0.455   1.994  13.652 -0.0207  0.7488  0.4336
13598TIP3   OH262284   2.135   6.337   1.230 -0.1696  0.3243 -0.3701
13598TIP3    H162285   2.130   6.432   1.240  1.2799  0.8078 -3.1690
13598TIP3    H262286   2.228   6.317   1.243 -0.4551 -0.7285  0.1342
13599TIP3   OH262287   0.118   3.567   0.450 -0.7241 -0.1561 -0.0381
13599TIP3    H162288   0.096   3.659   0.465 -3.0855 -0.4247 -1.3895
13599TIP3    H262289   0.195   3.570   0.393 -0.3957  0.9476  0.4263
13600TIP3   OH262290   3.606   1.328   4.675  0.2725  0.5136 -0.0257
13600TIP3    H162291   3.624   1.234   4.670  0.9054  0.5623  0.9424
13600TIP3    H262292   3.512   1.336   4.665  0.2408 -0.2054 -0.3099
13601TIP3   OH262293   0.940   1.014   1.347 -0.0899 -0.2456 -0.4911
13601TIP3    H162294   0.946   0.931   1.299  0.0033  0.0645 -1.0293
13601TIP3    H262295   0.962   1.081   1.282  3.0111  0.0146  0.6748
13602TIP3   OH262296   3.002   6.370   1.062  0.5527 -0.3656  0.3134
13602TIP3    H162297   2.963   6.446   1.019  1.3985 -0.2353 -0.2619
13602TIP3    H262298   3.094   6.394   1.075  0.1633 -0.0773  2.9994
13603TIP3   OH262299   1.354   6.604  14.621 -0.4651 -0.4746  0.0682
13603TIP3    H162300   1.416   6.597  14.548 -1.0292  0.0653 -0.4837
13603TIP3    H262301   1.332   6.698  14.624  1.0663 -0.1075  2.2286
13604TIP3   OH262302   1.363   6.773   2.591 -0.3845  0.3085 -0.5123
13604TIP3    H162303   1.281   6.731   2.564  0.3461 -0.7891 -1.0532
13604TIP3    H262304   1.423   6.701   2.610  0.6642  1.1007 -0.7374
13605TIP3   OH262305   4.390   2.721   0.996 -0.5371 -0.0939 -0.1454
13605TIP3    H162306   4.413   2.630   1.014  1.3703  0.5174  0.7737
13605TIP3    H262307   4.381   2.725   0.901 -1.0933 -1.3198 -0.1621
13606TIP3   OH262308   3.651   5.761  13.424 -0.0745  0.1448  0.6525
13606TIP3    H162309   3.564   5.762  13.464 -0.8663  1.0649 -0.9808
13606TIP3    H262310   3.683   5.851  13.434  0.7919 -0.2368  1.4223
13607TIP3   OH262311   4.335   5.371   6.227 -0.2252 -0.1683 -0.5874
13607TIP3    H162312   4.293   5.329   6.302 -0.6759 -0.9518 -1.2734
13607TIP3    H262313   4.341   5.464   6.252  0.1741 -0.5066  0.6579
13608TIP3   OH262314   5.413   2.667  12.154 -0.6355  0.3695 -0.0199
13608TIP3    H162315   5.441   2.657  12.062  0.6422  2.4830  0.0489
13608TIP3    H262316   5.443   2.755  12.177 -1.9825  0.3248  2.0902
13609TIP3   OH262317   0.883   0.128   3.122  0.7115 -0.2589  0.6641
13609TIP3    H162318   0.906   0.136   3.214 -1.9505 -1.9083  1.5783
13609TIP3    H262319   0.809   0.187   3.110 -0.5892 -1.8949  0.2861
13610TIP3   OH262320   4.090   6.505  13.235 -0.1842 -0.0366  0.2599
13610TIP3    H162321   4.059   6.568  13.299 -0.3335 -1.3788  1.5799
13610TIP3    H262322   4.103   6.424  13.286 -2.0114 -1.6892 -1.6867
13611TIP3   OH262323   5.106   5.640  14.970 -0.6433 -0.5594 -0.2600
13611TIP3    H162324   5.115   5.677  15.058  0.1941 -0.8612 -0.2097
13611TIP3    H262325   5.145   5.706  14.913 -1.6166 -0.1494 -0.4626
13612TIP3   OH262326   5.546   4.335  10.961  0.1308 -0.0492 -0.3316
13612TIP3    H162327   5.544   4.336  11.057  1.2510 -0.9103 -0.2775
13612TIP3    H262328   5.561   4.244  10.938 -1.2263 -0.0281 -1.3822
13613TIP3   OH262329   3.274   6.571   0.368  0.5641  0.5242  0.2876
13613TIP3    H162330   3.303   6.587   0.278 -0.1250 -0.8310 -0.1957
13613TIP3    H262331   3.333   6.625   0.421  1.3379  0.9331 -0.9285
13614TIP3   OH262332   2.749   0.517  14.259  0.1764  0.3060 -1.0687
13614TIP3    H162333   2.795   0.440  14.292 -2.1145 -1.0956 -0.9228
13614TIP3    H262334   2.657   0.502  14.282 -0.4428  2.8252 -1.5642
13615TIP3   OH262335   2.545   5.811   0.911 -0.8326  0.0033 -0.1129
13615TIP3    H162336   2.625   5.767   0.882 -1.0340 -0.1163 -0.4943
13615TIP3    H262337   2.485   5.740   0.932 -0.9186  0.0942 -0.0507
13616TIP3   OH262338   5.987   0.419  16.129 -0.3964  0.2033 -0.2102
13616TIP3    H162339   5.920   0.385  16.070 -0.3543 -0.6693  0.2229
13616TIP3    H262340   6.047   0.346  16.142  1.8933  1.5359 -2.2687
13617TIP3   OH262341   3.258   5.682   4.982  0.4283 -0.3576 -0.3238
13617TIP3    H162342   3.241   5.604   5.034 -0.0937 -0.3907 -0.5414
13617TIP3    H262343   3.321   5.732   5.034 -1.2570  0.3655  1.0904
13618TIP3   OH262344   3.068   3.763  15.263  0.3656 -0.3880  0.3230
13618TIP3    H162345   3.008   3.707  15.312 -0.1661  0.1260  0.2595
13618TIP3    H262346   3.015   3.838  15.236  0.4257 -1.0320 -1.7350
13619TIP3   OH262347   3.394   3.229  11.664  0.0674 -0.4574 -0.7524
13619TIP3    H162348   3.437   3.280  11.596  0.3056 -0.4645 -0.6071
13619TIP3    H262349   3.342   3.164  11.616 -0.7403  0.3218 -0.9484
13620TIP3   OH262350   6.398   6.507  13.961  0.8357 -0.3349  0.6181
13620TIP3    H162351   6.309   6.526  13.993  1.1884  0.7307  1.0150
13620TIP3    H262352   6.388   6.503  13.866 -0.0781 -2.7164  0.7595
13621TIP3   OH262353   0.444   5.956   2.050  0.2388 -0.5486  0.0942
13621TIP3    H162354   0.469   5.901   1.976  0.7229 -0.1572 -0.0369
13621TIP3    H262355   0.512   5.941   2.115  0.8501  0.5308 -0.2675
13622TIP3   OH262356   5.907   0.446  16.730 -0.2091 -0.0706 -0.0216
13622TIP3    H162357   5.874   0.477  16.815  0.7992  0.0357  0.3472
13622TIP3    H262358   5.909   0.351  16.738 -2.3727 -0.2507 -0.8048
13623TIP3   OH262359   5.824   6.763   2.847  0.2089 -0.0301  0.5957
13623TIP3    H162360   5.749   6.772   2.787 -0.2858 -0.9324  1.0592
13623TIP3    H262361   5.787   6.777   2.934  0.2085 -2.1473  0.9862
13624TIP3   OH262362   2.604   6.283   0.640  0.0310  0.8181  0.4068
13624TIP3    H162363   2.636   6.218   0.702 -0.0080  0.0838 -0.3251
13624TIP3    H262364   2.640   6.366   0.671  1.3362  0.2393  0.4959
13625TIP3   OH262365   3.969   2.695   0.055  0.1032 -0.2988 -0.0865
13625TIP3    H162366   3.993   2.711  -0.036  0.7088 -0.0317  0.1113
13625TIP3    H262367   3.899   2.757   0.074  0.5542  0.2306 -0.1299
13626TIP3   OH262368   0.783   0.731  13.400 -0.1119  0.0738 -0.1267
13626TIP3    H162369   0.818   0.819  13.414  1.7329 -0.7415  0.6164
13626TIP3    H262370   0.768   0.726  13.305 -0.2924  1.1965 -0.1658
13627TIP3   OH262371   1.836   3.100  12.559  0.5377 -0.7316 -0.2953
13627TIP3    H162372   1.899   3.107  12.630 -1.6475 -3.1066  2.1092
13627TIP3    H262373   1.780   3.178  12.568  0.0265 -1.2223  0.9117
13628TIP3   OH262374   6.177   0.259   5.368 -0.0423 -0.8005 -0.0511
13628TIP3    H162375   6.134   0.244   5.452 -1.9077  2.5258 -0.2035
13628TIP3    H262376   6.112   0.230   5.303 -0.3292  0.2915 -0.2803
13629TIP3   OH262377   6.206   3.889  12.566 -0.0849  0.0762  0.4968
13629TIP3    H162378   6.287   3.914  12.611 -0.0700  0.1830  0.4110
13629TIP3    H262379   6.205   3.794  12.569  0.7986  0.0043 -0.8457
13630TIP3   OH262380   1.574   6.713   6.068  0.3608 -0.5129 -0.2454
13630TIP3    H162381   1.602   6.657   5.995 -1.7993 -1.1898 -0.6343
13630TIP3    H262382   1.480   6.727   6.052 -0.3158 -1.0898  2.6532
13631TIP3   OH262383   2.984   6.552   0.156 -0.5912 -0.2674 -0.0969
13631TIP3    H162384   2.992   6.531   0.062 -0.2295  0.4891 -0.2400
13631TIP3    H262385   3.048   6.495   0.198 -0.2499 -0.1049 -0.3894
13632TIP3   OH262386   1.324   3.285   1.518  0.0098  0.0291  0.1737
13632TIP3    H162387   1.364   3.297   1.432 -0.2825  1.8547  0.2662
13632TIP3    H262388   1.291   3.195   1.516  2.6325 -1.0124 -0.4825
13633TIP3   OH262389   1.967   3.056   0.201 -0.1070 -0.0413  0.0328
13633TIP3    H162390   1.967   2.964   0.176  0.1687 -0.1865  0.5662
13633TIP3    H262391   2.029   3.062   0.273  0.9914  0.8145 -0.9275
13634TIP3   OH262392   2.595   2.392   4.266 -0.0504  0.0679 -0.5178
13634TIP3    H162393   2.591   2.435   4.351 -1.1098  0.4445 -0.7371
13634TIP3    H262394   2.546   2.451   4.208  0.5506 -0.2430 -1.3630
13635TIP3   OH262395   0.875   3.606  15.100 -0.0973  0.3776  0.1127
13635TIP3    H162396   0.953   3.551  15.106 -0.4585 -0.1712 -0.1180
13635TIP3    H262397   0.898   3.673  15.036 -0.0093 -0.1156 -0.3839
13636TIP3   OH262398   4.943   2.716   2.069  0.0679  0.3868 -0.0904
13636TIP3    H162399   4.937   2.661   1.991 -0.9080  1.0747 -0.5160
13636TIP3    H262400   4.927   2.655   2.142 -1.2212  0.1248 -0.5642
13637TIP3   OH262401   5.520   4.369  11.253 -0.7091  0.3490  0.4999
13637TIP3    H162402   5.539   4.276  11.264 -0.5483  0.4899  1.5474
13637TIP3    H262403   5.600   4.413  11.284 -0.0198  0.8194 -1.7754
13638TIP3   OH262404   1.951   3.137  14.634 -0.0059  0.2245  0.0217
13638TIP3    H162405   1.979   3.172  14.550  0.1829 -0.7564 -0.3467
13638TIP3    H262406   1.937   3.043  14.617  1.9032 -0.4048  1.5314
13639TIP3   OH262407   1.010   2.173   2.774  0.8226 -0.3394  0.7037
13639TIP3    H162408   1.038   2.260   2.802 -0.6328  0.4523 -0.1338
13639TIP3    H262409   0.945   2.146   2.839 -2.0723  1.2213 -1.2737
13640TIP3   OH262410   6.119   2.684   0.671 -0.1948  0.2470  0.0057
13640TIP3    H162411   6.133   2.618   0.739 -2.3156  2.0356  2.3858
13640TIP3    H262412   6.024   2.688   0.660  0.0671 -0.3974 -3.6524
13641TIP3   OH262413   3.110   2.706   6.610  0.2313 -0.5065  0.2096
13641TIP3    H162414   3.106   2.639   6.541 -0.0091 -0.7251  0.4317
13641TIP3    H262415   3.047   2.676   6.676  0.5062 -0.3321  0.5552
13642TIP3   OH262416   3.005   5.718  15.129  0.4917 -1.2252 -0.0190
13642TIP3    H162417   2.931   5.777  15.119  2.1753  1.4600  1.8436
13642TIP3    H262418   3.071   5.752  15.068  1.8588 -0.4577  1.8134
13643TIP3   OH262419   4.372   1.072  11.684 -0.3048  0.7292 -0.0059
13643TIP3    H162420   4.437   1.026  11.737  2.3729  0.6872 -3.0065
13643TIP3    H262421   4.293   1.019  11.691  0.3786 -0.0845  2.5977
13644TIP3   OH262422   4.174   5.407  13.228 -0.0499 -0.4287 -0.1475
13644TIP3    H162423   4.142   5.375  13.312 -1.1291  0.0737 -0.3478
13644TIP3    H262424   4.260   5.367  13.218  0.4671  0.1782  1.5880
13645TIP3   OH262425   1.520   2.625   4.602  0.5813  0.2368  0.5538
13645TIP3    H162426   1.498   2.553   4.543  0.3896 -0.3686  1.3336
13645TIP3    H262427   1.441   2.638   4.655  1.1667 -0.1419  1.5611
13646TIP3   OH262428   2.799   6.311  16.758  0.0043  0.1091  0.0615
13646TIP3    H162429   2.767   6.332  16.846  1.5463 -0.8367  0.8834
13646TIP3    H262430   2.867   6.245  16.772  0.4067  0.0674 -1.8341
13647TIP3   OH262431   1.346   1.346   4.079  0.4940 -0.1436  0.0566
13647TIP3    H162432   1.434   1.323   4.108 -0.3351 -0.5187  2.4696
13647TIP3    H262433   1.295   1.266   4.088 -0.1437  0.0597 -1.3416
13648TIP3   OH262434   2.996   3.245  15.884  0.6499  0.3444  0.0043
13648TIP3    H162435   3.049   3.314  15.844 -0.6331  1.8564  0.7613
13648TIP3    H262436   2.927   3.293  15.930 -1.6449 -1.5314 -1.3104
13649TIP3   OH262437   3.622   3.344   2.360 -0.2538 -0.2396 -0.1411
13649TIP3    H162438   3.596   3.424   2.406  1.1064  0.5548 -0.6877
13649TIP3    H262439   3.543   3.317   2.313 -1.1156  0.0035  1.1262
13650TIP3   OH262440   2.404   6.430   0.925 -0.0735 -0.4293  0.5160
13650TIP3    H162441   2.385   6.475   1.007  0.7095  0.2804  0.3195
13650TIP3    H262442   2.363   6.344   0.935  0.0784 -0.3843  1.6825
13651TIP3   OH262443   3.134   0.807   4.726  0.2716  0.6382  1.3878
13651TIP3    H162444   3.053   0.775   4.686 -0.1448  1.4032  1.6044
13651TIP3    H262445   3.203   0.763   4.677 -0.2808 -0.9520  1.9823
13652TIP3   OH262446   4.051   0.946  14.562  0.5762 -0.3038  0.0354
13652TIP3    H162447   4.029   0.895  14.639  0.4480 -2.5053 -1.3762
13652TIP3    H262448   4.146   0.957  14.566  1.4340 -4.9079 -1.9245
13653TIP3   OH262449   3.996   0.676  13.840 -0.0458  0.4159 -0.0492
13653TIP3    H162450   4.011   0.604  13.779  1.6080 -0.0527  0.8642
13653TIP3    H262451   3.931   0.642  13.902 -0.6542  0.3895 -0.6883
13654TIP3   OH262452   3.619   4.851   0.605 -0.1823 -0.4378 -0.3096
13654TIP3    H162453   3.638   4.819   0.517  1.2520  0.9350 -0.5435
13654TIP3    H262454   3.672   4.796   0.663 -0.3065 -0.6545 -0.4022
13655TIP3   OH262455   5.721   0.548   0.101  0.3457 -0.1319 -0.1957
13655TIP3    H162456   5.715   0.469   0.155  1.4231 -0.7441 -0.9334
13655TIP3    H262457   5.782   0.605   0.147 -0.1925  0.1563  0.1771
13656TIP3   OH262458   5.957   5.359  12.635  0.9495 -0.2109  0.3079
13656TIP3    H162459   5.945   5.406  12.718 -1.7144 -0.3900  0.0970
13656TIP3    H262460   5.974   5.269  12.661  2.8738  0.1981  0.6474
13657TIP3   OH262461   3.663   3.217  11.309 -0.4392  0.1523  0.1703
13657TIP3    H162462   3.750   3.249  11.286 -1.1323  2.7378  0.7896
13657TIP3    H262463   3.647   3.146  11.248  0.5694  2.1550 -2.6696
13658TIP3   OH262464   4.468   3.263  14.609 -0.9976 -0.0899  0.0972
13658TIP3    H162465   4.502   3.193  14.552 -1.0788  0.9467 -1.2764
13658TIP3    H262466   4.454   3.337  14.550 -0.9083  1.1063  1.5194
13659TIP3   OH262467   5.959   1.221   1.060  0.0861 -0.0880 -0.0493
13659TIP3    H162468   5.900   1.171   1.116  0.0270 -0.2918 -0.2917
13659TIP3    H262469   5.963   1.171   0.978 -0.3729  0.5752 -0.4867
13660TIP3   OH262470   4.045   4.974  15.266  0.0282  0.3844  0.0009
13660TIP3    H162471   3.981   5.033  15.307 -0.4811 -0.3713  0.3189
13660TIP3    H262472   4.083   4.926  15.340  0.6978  0.5652 -0.2241
13661TIP3   OH262473   5.312   3.965   0.227  0.1019  0.2399 -0.1450
13661TIP3    H162474   5.352   3.882   0.255 -0.5777  0.3071  1.1079
13661TIP3    H262475   5.356   4.031   0.281 -1.2889  0.3730  0.8652
13662TIP3   OH262476   0.597   4.661  15.121  0.0234  0.1368  0.4685
13662TIP3    H162477   0.624   4.683  15.210 -0.2682 -0.6987  0.7799
13662TIP3    H262478   0.502   4.666  15.123  0.0081  4.4087 -0.9790
13663TIP3   OH262479   6.111   2.123  16.011 -0.4706 -0.0298 -0.0259
13663TIP3    H162480   6.060   2.198  16.042  1.5758  0.4354  2.5574
13663TIP3    H262481   6.135   2.146  15.921 -1.2407  1.6811  0.1619
13664TIP3   OH262482   3.627   2.683   0.490  0.5663 -0.1036 -0.0722
13664TIP3    H162483   3.595   2.643   0.409  0.0640 -0.9444  0.5311
13664TIP3    H262484   3.548   2.702   0.541  0.9441 -1.0242  0.8835
13665TIP3   OH262485   6.099   6.021   3.673 -0.6590 -0.6737  0.2835
13665TIP3    H162486   6.023   6.028   3.615  1.5857 -2.2135 -3.1333
13665TIP3    H262487   6.118   5.928   3.677  0.3909 -0.4343  2.0983
13666TIP3   OH262488   1.292   2.894  11.803 -0.2135 -0.1929 -0.1076
13666TIP3    H162489   1.271   2.932  11.718  0.7616 -1.6799 -1.0794
13666TIP3    H262490   1.385   2.870  11.796 -0.4469 -1.5121  0.8837
13667TIP3   OH262491   5.225   1.027  12.153 -0.2804  0.5117 -0.5979
13667TIP3    H162492   5.290   1.040  12.083 -0.4868  0.5133 -0.7886
13667TIP3    H262493   5.270   1.055  12.233  0.6075 -1.1732 -0.4497
13668TIP3   OH262494   6.690   3.585   0.658  0.3634  0.3719  0.7008
13668TIP3    H162495   6.690   3.507   0.714  0.0999  0.3226  0.6350
13668TIP3    H262496   6.677   3.550   0.569 -0.8710  0.5663  0.7866
13669TIP3   OH262497   5.634   6.110  12.469  0.2780 -0.1833  0.1078
13669TIP3    H162498   5.697   6.162  12.420  0.5890 -1.3280 -0.7251
13669TIP3    H262499   5.628   6.154  12.554  0.1294  1.5152 -0.7486
13670TIP3   OH262500   6.533   0.903  16.905  0.0224 -0.2257 -0.4339
13670TIP3    H162501   6.618   0.909  16.948 -0.6142  0.3589  0.7973
13670TIP3    H262502   6.499   0.992  16.906 -0.2016 -0.2846 -1.7821
13671TIP3   OH262503   2.636   6.698   4.713  0.6155 -0.1007  0.1423
13671TIP3    H162504   2.729   6.696   4.692  0.3569  0.8087 -1.3124
13671TIP3    H262505   2.632   6.709   4.808  1.9430 -1.9724  0.4482
13672TIP3   OH262506   4.014   5.909   2.562  0.0138 -0.4145 -0.0557
13672TIP3    H162507   4.052   5.890   2.476  1.0773  1.6036 -0.0937
13672TIP3    H262508   3.932   5.860   2.564  0.5797 -1.4941 -1.7088
13673TIP3   OH262509   2.713   6.419   4.404  0.8862  0.2855 -0.3621
13673TIP3    H162510   2.744   6.366   4.477  0.6429 -0.5058 -0.8210
13673TIP3    H262511   2.659   6.359   4.352 -2.6457  1.9009  1.1042
13674TIP3   OH262512   0.087   2.468   2.364 -0.1785  0.0497 -0.8302
13674TIP3    H162513   0.024   2.539   2.356 -1.1230 -0.7728 -0.8057
13674TIP3    H262514   0.141   2.475   2.286 -1.1158 -0.0215 -1.4994
13675TIP3   OH262515   2.754   6.152  13.904  0.6365 -1.2457 -0.1982
13675TIP3    H162516   2.843   6.162  13.935  0.4579 -0.3123  0.0456
13675TIP3    H262517   2.706   6.114  13.978  0.7515 -1.4099 -0.2076
13676TIP3   OH262518   2.497   2.317  12.568  0.0621  0.8711 -0.0263
13676TIP3    H162519   2.456   2.383  12.512 -1.1437  0.2593  0.0954
13676TIP3    H262520   2.588   2.314  12.539  0.0477  2.2961 -0.2949
13677TIP3   OH262521   0.820   1.616   3.718  0.4490 -0.2849  0.0977
13677TIP3    H162522   0.894   1.641   3.774  1.9874 -2.8655 -0.6013
13677TIP3    H262523   0.797   1.697   3.672  0.5585  1.4041  2.7573
13678TIP3   OH262524   0.326   2.681  12.235  0.1111 -0.0356  0.6694
13678TIP3    H162525   0.297   2.663  12.324 -0.4805 -1.3662  0.2359
13678TIP3    H262526   0.422   2.681  12.240  0.1656  3.0520  1.8629
13679TIP3   OH262527   0.621   5.857   2.231 -0.2167 -0.3103 -0.3325
13679TIP3    H162528   0.619   5.871   2.326  1.7478  1.1412 -0.4568
13679TIP3    H262529   0.693   5.796   2.218 -1.4047 -1.6690 -0.8230
13680TIP3   OH262530   0.057   0.451   4.048 -0.0923  0.5781  0.0138
13680TIP3    H162531   0.060   0.542   4.020 -0.3238  0.8282  0.7856
13680TIP3    H262532   0.099   0.403   3.977 -0.3612  1.2338 -0.5946
13681TIP3   OH262533   4.680   3.656   4.626 -0.2384  0.0481 -0.0252
13681TIP3    H162534   4.620   3.584   4.644  0.4904  0.1286  3.2497
13681TIP3    H262535   4.644   3.730   4.675  1.2273  0.7740 -0.0106
13682TIP3   OH262536   2.823   4.559   6.461  0.4552 -0.6104  0.2116
13682TIP3    H162537   2.866   4.494   6.406  0.2579 -1.1739  0.7233
13682TIP3    H262538   2.848   4.643   6.422 -0.5580 -1.0115 -1.4169
13683TIP3   OH262539   5.318   1.465   0.737  0.4313 -0.4763  0.2144
13683TIP3    H162540   5.332   1.527   0.809  0.2997  0.6144 -0.6718
13683TIP3    H262541   5.406   1.440   0.709  0.4948 -0.2143  0.1778
13684TIP3   OH262542   4.570   1.313   2.436 -0.1973 -0.4440 -0.7671
13684TIP3    H162543   4.497   1.263   2.474  1.0161 -2.3187 -0.7826
13684TIP3    H262544   4.531   1.360   2.362 -1.5347 -0.8571 -0.3469
13685TIP3   OH262545   6.834   0.810   3.677 -0.9037 -0.1392 -0.4959
13685TIP3    H162546   6.876   0.756   3.609  0.9102  0.0661  0.4107
13685TIP3    H262547   6.833   0.898   3.639 -1.9427 -0.3974 -1.1223
13686TIP3   OH262548   0.715   4.949   0.539  0.1992  0.1521  0.0952
13686TIP3    H162549   0.673   4.946   0.454  0.3672 -1.9757  0.0459
13686TIP3    H262550   0.802   4.985   0.521 -0.3227  1.2644 -0.3358
13687TIP3   OH262551   6.574   5.297  11.727  0.1203 -0.1274 -0.4013
13687TIP3    H162552   6.593   5.210  11.763 -0.8504 -0.7716 -1.3529
13687TIP3    H262553   6.657   5.327  11.690  0.7909 -0.0452  1.1018
13688TIP3   OH262554   6.477   0.770  12.838  0.4820 -0.0288  0.5407
13688TIP3    H162555   6.508   0.689  12.796  0.2895  0.5465 -0.7522
13688TIP3    H262556   6.512   0.840  12.783  0.6363  0.7808  1.6410
13689TIP3   OH262557   1.511   2.062  13.552  0.1688 -0.2478 -0.0059
13689TIP3    H162558   1.483   1.997  13.487  0.4047  0.4113 -0.7918
13689TIP3    H262559   1.533   2.139  13.500  0.8805  0.1218  0.8192
13690TIP3   OH262560   1.987   3.476  14.313 -0.5613 -0.5480  0.2569
13690TIP3    H162561   1.936   3.396  14.330 -1.4446  0.3443  2.0820
13690TIP3    H262562   1.989   3.521  14.397  1.5146  0.4704 -0.2857
13691TIP3   OH262563   5.796   4.448   0.137  0.4289  0.0263 -0.7246
13691TIP3    H162564   5.792   4.537   0.103  1.5826  0.2010 -0.4454
13691TIP3    H262565   5.877   4.411   0.099  1.9273  0.3188  1.9305
13692TIP3   OH262566   5.973   5.545  16.305  0.1213  0.2817 -0.4561
13692TIP3    H162567   5.955   5.526  16.213  0.1764  1.7521 -0.7816
13692TIP3    H262568   6.004   5.635  16.306 -1.1295  0.7380  1.1456
13693TIP3   OH262569   4.254   0.436   3.447  0.4250 -0.1411 -0.5391
13693TIP3    H162570   4.298   0.360   3.486  0.3389  0.5887  1.0627
13693TIP3    H262571   4.322   0.478   3.394  0.5830 -1.0953 -1.1181
13694TIP3   OH262572   4.360   1.780   1.829 -0.3254 -0.0913  0.2141
13694TIP3    H162573   4.329   1.715   1.892 -0.1414 -0.4066 -0.0215
13694TIP3    H262574   4.284   1.799   1.774  0.1319 -1.6180 -1.0164
13695TIP3   OH262575   4.171   2.089  13.243 -0.1042  0.4809 -0.1218
13695TIP3    H162576   4.209   2.175  13.260 -0.5863  1.2837 -2.7053
13695TIP3    H262577   4.094   2.107  13.189  0.0133 -1.5882 -1.0788
13696TIP3   OH262578   2.259   1.601   3.943 -0.0871  0.3457  0.0194
13696TIP3    H162579   2.226   1.560   4.023  0.4760 -0.2309 -0.0316
13696TIP3    H262580   2.211   1.683   3.936 -2.5173 -1.0437 -0.7791
13697TIP3   OH262581   4.025   0.539   0.404  0.3914 -0.1568  0.0293
13697TIP3    H162582   4.008   0.577   0.491 -0.9601  1.0759 -0.7262
13697TIP3    H262583   4.069   0.456   0.422  0.0604  0.0311  1.8963
13698TIP3   OH262584   2.667   6.817  13.184  0.5130 -0.4718 -0.4444
13698TIP3    H162585   2.726   6.836  13.257  0.1534 -1.1286  0.0198
13698TIP3    H262586   2.581   6.845  13.215  0.6236  0.8786 -1.2750
13699TIP3   OH262587   1.225   5.785  17.208  0.0424  0.6577 -0.1847
13699TIP3    H162588   1.147   5.773  17.263 -0.3624 -1.3420 -1.1044
13699TIP3    H262589   1.190   5.824  17.127 -0.4951 -2.2459 -1.4964
13700TIP3   OH262590   4.804   3.605   0.310 -0.4516  0.2113 -0.2769
13700TIP3    H162591   4.741   3.669   0.343 -0.2120  0.0245  0.5546
13700TIP3    H262592   4.774   3.588   0.220 -0.8619  1.0393 -0.3170
13701TIP3   OH262593   6.327   5.805   2.096 -0.3354  0.3621 -0.0942
13701TIP3    H162594   6.306   5.819   2.189  0.3667 -0.0991  0.1426
13701TIP3    H262595   6.337   5.710   2.088 -0.6464  0.3757 -0.7042
13702TIP3   OH262596   2.511   1.990   0.348 -0.6238  0.3617 -0.0625
13702TIP3    H162597   2.421   2.007   0.319 -1.1979 -0.6866  1.0057
13702TIP3    H262598   2.503   1.979   0.443  0.5175 -0.4354 -0.0477
13703TIP3   OH262599   0.506   4.041  16.783  0.3575 -0.5686  0.1153
13703TIP3    H162600   0.527   4.129  16.751  0.2232 -0.7748 -0.5630
13703TIP3    H262601   0.550   3.982  16.722 -1.0347 -0.9857 -0.5300
13704TIP3   OH262602   6.623   4.527  16.732 -0.5583  0.1390  0.3973
13704TIP3    H162603   6.592   4.491  16.815 -1.4539  4.3940  2.1912
13704TIP3    H262604   6.682   4.598  16.757 -0.2694  1.0976 -2.6143
13705TIP3   OH262605   4.411   2.102  12.344  0.4036  0.2767  0.2822
13705TIP3    H162606   4.454   2.166  12.401 -1.2951  3.1804 -1.4513
13705TIP3    H262607   4.407   2.144  12.258 -2.9299 -1.1449 -0.4224
13706TIP3   OH262608   2.934   0.068   4.311  0.0398  0.1456 -0.2773
13706TIP3    H162609   2.884  -0.013   4.302 -2.8569  2.0028 -2.5669
13706TIP3    H262610   2.980   0.077   4.227 -0.0599  1.0803 -0.2429
13707TIP3   OH262611   1.177   4.429   1.370  0.6096  0.4047  0.0736
13707TIP3    H162612   1.193   4.400   1.280  2.0591  0.1318  0.3995
13707TIP3    H262613   1.085   4.408   1.386  0.5759 -0.3723 -1.0368
13708TIP3   OH262614   4.987   3.577   1.468 -0.2652 -0.1996 -0.1738
13708TIP3    H162615   5.060   3.522   1.497 -0.0140 -0.3476 -1.0691
13708TIP3    H262616   4.973   3.553   1.377 -0.1382  1.2389 -0.5923
13709TIP3   OH262617   2.387   5.370  11.564 -0.1429 -0.2783  0.2809
13709TIP3    H162618   2.384   5.348  11.471 -1.0309 -0.2863  0.3035
13709TIP3    H262619   2.306   5.418  11.580  0.9865  1.5919  0.6002
13710TIP3   OH262620   4.212   4.699  15.264  0.2235  0.0150  0.2541
13710TIP3    H162621   4.304   4.718  15.248  0.5402 -0.7317  1.1250
13710TIP3    H262622   4.191   4.747  15.344  0.1909 -0.7929  0.7329
13711TIP3   OH262623   2.843   5.826   4.955 -0.1023 -0.2417  0.5759
13711TIP3    H162624   2.927   5.845   4.997  0.2672  0.0149 -0.2576
13711TIP3    H262625   2.861   5.751   4.899 -0.1350  0.5066 -0.4603
13712TIP3   OH262626   4.256   5.752   4.001 -0.0280  0.4896  0.3725
13712TIP3    H162627   4.350   5.764   4.013  0.1254  0.6617 -0.8485
13712TIP3    H262628   4.220   5.840   4.001  0.3014  0.7271 -2.5655
13713TIP3   OH262629   0.194   2.678   1.214 -0.3177  0.1674  0.7535
13713TIP3    H162630   0.154   2.618   1.277 -2.5605  1.1262  0.3310
13713TIP3    H262631   0.134   2.752   1.209  2.2546  2.4798  1.1609
13714TIP3   OH262632   2.422   6.565   5.472  0.0352 -0.1538 -0.4351
13714TIP3    H162633   2.410   6.510   5.394  1.7510 -0.9248 -0.2071
13714TIP3    H262634   2.419   6.504   5.545 -1.6347  0.5757  0.1681
13715TIP3   OH262635   3.389   3.549   6.340 -0.4743  0.0483  0.1380
13715TIP3    H162636   3.422   3.638   6.346  1.2107 -0.6030  1.4743
13715TIP3    H262637   3.389   3.517   6.431 -1.1152 -1.2871 -0.2995
13716TIP3   OH262638   0.119   5.345  17.189  0.2394 -0.1271  0.3549
13716TIP3    H162639   0.159   5.260  17.171 -0.6211 -0.7085  1.0753
13716TIP3    H262640   0.186   5.393  17.239 -0.5295 -1.7797  3.1976
13717TIP3   OH262641   0.436   1.453  16.683  0.3765 -0.1973 -0.2020
13717TIP3    H162642   0.478   1.399  16.751 -0.0497  0.8301  0.9077
13717TIP3    H262643   0.421   1.392  16.610  1.1880 -1.2414  0.4755
13718TIP3   OH262644   3.828   1.269  11.846 -0.6727  0.1477 -0.1878
13718TIP3    H162645   3.762   1.295  11.911 -0.5288 -2.2673  1.0792
13718TIP3    H262646   3.910   1.308  11.878 -1.2880  2.5600 -1.3728
13719TIP3   OH262647   5.964   0.885   4.347  0.4294 -0.1174 -0.1784
13719TIP3    H162648   5.993   0.837   4.269 -0.7811 -2.3862  0.6867
13719TIP3    H262649   5.955   0.818   4.415 -1.4519  1.2944  1.0737
13720TIP3   OH262650   3.932   5.218  15.436 -0.0337  0.5370  0.2351
13720TIP3    H162651   3.858   5.279  15.441  1.9154  2.9784  1.0154
13720TIP3    H262652   3.937   5.179  15.523  1.2481  2.5066  1.0934
13721TIP3   OH262653   2.791   3.248  16.902 -0.4019 -0.2794 -0.0728
13721TIP3    H162654   2.857   3.191  16.864 -0.5079  0.7550 -1.8940
13721TIP3    H262655   2.744   3.192  16.964 -0.6863 -2.2912 -1.9803
13722TIP3   OH262656   0.025   0.936   3.999  0.3310  0.3065 -0.2387
13722TIP3    H162657  -0.004   0.996   3.931  0.9095  0.8008 -0.0584
13722TIP3    H262658   0.093   0.883   3.956  1.5459  1.4068  0.2527
13723TIP3   OH262659   5.641   0.300   0.566 -0.8554 -0.2384 -0.4484
13723TIP3    H162660   5.690   0.382   0.564  2.1923 -1.8631 -0.3677
13723TIP3    H262661   5.567   0.317   0.623 -0.4792  2.5044 -0.6627
13724TIP3   OH262662   3.210   0.692   6.035  0.1846  0.3702 -0.1899
13724TIP3    H162663   3.251   0.633   6.098  1.1299 -0.0624 -1.1826
13724TIP3    H262664   3.159   0.635   5.978 -1.8313  0.8915  0.9867
13725TIP3   OH262665   2.148   0.942  16.700  0.3393 -0.2924 -0.4494
13725TIP3    H162666   2.123   0.883  16.629  0.9841 -1.8958  0.6060
13725TIP3    H262667   2.066   0.987  16.724 -0.3128 -1.2528 -0.8350
13726TIP3   OH262668   3.123   5.606   1.444  0.0809  0.4449 -0.7718
13726TIP3    H162669   3.217   5.608   1.423  0.3004 -0.6539  0.0483
13726TIP3    H262670   3.080   5.590   1.360  0.7208 -0.5106 -0.9275
13727TIP3   OH262671   6.121   2.790   3.500  0.1702 -0.2066  0.2075
13727TIP3    H162672   6.117   2.696   3.518  0.8019 -0.0395  1.3464
13727TIP3    H262673   6.081   2.800   3.414 -2.2322 -1.2006  1.1310
13728TIP3   OH262674   2.469   5.815  16.548 -0.2019  0.3160  0.2686
13728TIP3    H162675   2.486   5.721  16.543  0.5039  0.4539  0.0173
13728TIP3    H262676   2.437   5.838  16.461  0.2559  0.4264  0.1260
13729TIP3   OH262677   1.210   1.646   2.041  0.4746 -0.2308 -0.0380
13729TIP3    H162678   1.161   1.568   2.069 -1.5861  0.0126 -2.5927
13729TIP3    H262679   1.158   1.720   2.072  0.8065  0.0828 -0.2160
13730TIP3   OH262680   0.245   1.209  15.002  0.4278 -0.4557 -0.0701
13730TIP3    H162681   0.217   1.301  15.005  0.6227 -0.4128  0.5139
13730TIP3    H262682   0.340   1.212  15.015  0.5964 -0.6673 -1.1719
13731TIP3   OH262683   1.628   4.603   2.141  0.3608  0.0468  0.3051
13731TIP3    H162684   1.666   4.628   2.226  0.7576 -0.3508  0.2471
13731TIP3    H262685   1.674   4.523   2.117  0.3756  0.2496 -0.3688
13732TIP3   OH262686   3.549   3.729   5.703  0.0866 -0.0512 -0.2690
13732TIP3    H162687   3.598   3.749   5.783 -1.3445  1.5123  0.2841
13732TIP3    H262688   3.569   3.801   5.643 -1.1002  0.3422 -0.2175
13733TIP3   OH262689   5.245   0.935   3.125  0.4506 -0.5216  0.0129
13733TIP3    H162690   5.164   0.962   3.167  1.3241  1.7770  0.3851
13733TIP3    H262691   5.260   0.845   3.156 -1.2876 -0.5312  0.9081
13734TIP3   OH262692   2.545   2.273   2.783 -0.3925  0.4266  0.1290
13734TIP3    H162693   2.499   2.278   2.700  0.6732 -2.2302 -0.7244
13734TIP3    H262694   2.565   2.364   2.805 -2.0596  1.3101 -1.6871
13735TIP3   OH262695   5.191   1.384  16.568 -0.3794 -0.6400 -0.1225
13735TIP3    H162696   5.242   1.445  16.514 -0.8319 -0.2050 -0.0616
13735TIP3    H262697   5.107   1.428  16.580  0.3754  0.2484  2.6720
13736TIP3   OH262698   3.673   3.715  16.090  0.0459  0.3839 -0.2447
13736TIP3    H162699   3.676   3.635  16.143 -2.8086  1.3747  1.6534
13736TIP3    H262700   3.746   3.768  16.121 -0.9301  0.4803  2.0791
13737TIP3   OH262701   6.484   1.466   5.855  0.0834  0.1915 -0.2570
13737TIP3    H162702   6.411   1.410   5.883  0.4014 -0.2808 -0.3704
13737TIP3    H262703   6.547   1.461   5.927  0.7496 -0.7500 -0.8664
13738TIP3   OH262704   0.128   0.268  16.463  0.1666  0.3378 -0.2557
13738TIP3    H162705   0.060   0.224  16.515  0.2232  0.1339 -0.3547
13738TIP3    H262706   0.193   0.296  16.528 -0.7870  1.9846  0.0494
13739TIP3   OH262707   6.480   6.112   2.685 -0.0686 -0.3477 -0.0588
13739TIP3    H162708   6.395   6.134   2.724 -0.0137 -1.4925  0.7397
13739TIP3    H262709   6.519   6.197   2.666 -1.6421  0.2055 -1.0257
13740TIP3   OH262710   0.396   4.732  12.128 -0.0362  0.2170 -0.3472
13740TIP3    H162711   0.364   4.645  12.151 -0.6330  0.3919 -0.5182
13740TIP3    H262712   0.466   4.749  12.192 -0.2685 -0.1676  0.0159
13741TIP3   OH262713   0.668   2.836   5.262  0.7338  0.0375  0.5623
13741TIP3    H162714   0.758   2.848   5.231  0.1815  0.3313 -1.0550
13741TIP3    H262715   0.635   2.764   5.209 -0.7054  1.4914 -0.6233
13742TIP3   OH262716   4.525   1.145  12.087 -0.0553  0.1343 -0.1437
13742TIP3    H162717   4.490   1.227  12.052  0.5290  0.5695  0.2608
13742TIP3    H262718   4.509   1.081  12.018 -0.7708  0.5289 -0.3512
13743TIP3   OH262719   4.639   2.768  13.074  0.3159 -0.1020  0.1163
13743TIP3    H162720   4.698   2.843  13.075 -1.2142  1.1801 -0.5038
13743TIP3    H262721   4.649   2.729  13.161  0.6922  1.2144  0.6970
13744TIP3   OH262722   5.474   3.735   4.855 -0.4900  0.2014 -0.7972
13744TIP3    H162723   5.490   3.821   4.816 -0.8133 -0.3953 -2.3063
13744TIP3    H262724   5.447   3.754   4.945 -0.8027  1.6861 -1.1823
13745TIP3   OH262725   1.615   5.801  13.418  0.0407 -0.0367  0.5241
13745TIP3    H162726   1.550   5.856  13.375 -1.5593 -1.8380  0.5075
13745TIP3    H262727   1.601   5.816  13.512 -0.5457 -0.5458  0.5250
13746TIP3   OH262728   5.753   4.195   4.029 -0.6968  0.1043 -0.1870
13746TIP3    H162729   5.780   4.211   4.119  1.2152  1.5681 -0.9542
13746TIP3    H262730   5.768   4.278   3.984 -0.4720 -0.9195 -2.1071
13747TIP3   OH262731   1.575   6.176   4.045 -0.8988 -0.4850 -0.2709
13747TIP3    H162732   1.594   6.258   4.090  1.0158  1.1004 -3.5808
13747TIP3    H262733   1.508   6.200   3.980  1.3446 -0.7690 -2.8787
13748TIP3   OH262734   4.521   0.701   4.933 -0.0472  0.3798 -0.1635
13748TIP3    H162735   4.520   0.610   4.902 -0.3634  0.4682 -0.4205
13748TIP3    H262736   4.593   0.704   4.996 -1.6932 -0.7378  1.8943
13749TIP3   OH262737   3.637   6.071  16.932 -0.2106  0.1156 -0.2381
13749TIP3    H162738   3.624   6.008  17.003  2.9898  0.9499  1.2340
13749TIP3    H262739   3.718   6.043  16.889  0.0932  1.9594 -0.9547
13750TIP3   OH262740   3.864   6.521  17.162 -0.2639  0.5433 -0.2849
13750TIP3    H162741   3.820   6.448  17.118 -0.9376  0.7821 -0.0228
13750TIP3    H262742   3.838   6.598  17.111 -1.0903  0.8303  0.5299
13751TIP3   OH262743   5.719   6.407   0.484 -0.3990 -0.1588  0.3483
13751TIP3    H162744   5.625   6.425   0.488 -0.6898 -1.1791 -1.2360
13751TIP3    H262745   5.728   6.319   0.520 -0.1768 -0.4229 -0.3425
13752TIP3   OH262746   1.174   2.956   3.792 -0.3148 -0.2092 -0.3514
13752TIP3    H162747   1.144   3.046   3.784 -1.2838 -0.3794  0.9624
13752TIP3    H262748   1.100   2.903   3.760  0.2068 -0.5450 -1.0193
13753TIP3   OH262749   3.752   1.708  13.099 -0.1539  0.2663  0.3888
13753TIP3    H162750   3.696   1.718  13.022  0.4662 -0.7744 -0.2227
13753TIP3    H262751   3.690   1.695  13.172 -0.7525  1.5269  0.1294
13754TIP3   OH262752   1.913   4.700   0.720 -0.4268  0.3115 -0.0699
13754TIP3    H162753   1.968   4.669   0.792 -3.9699  1.7022  3.6482
13754TIP3    H262754   1.847   4.631   0.709 -1.2607  1.1165 -0.3129
13755TIP3   OH262755   0.549   6.039   3.735  0.2693 -0.8462 -0.5701
13755TIP3    H162756   0.481   6.083   3.785  1.7496  2.6775 -1.3737
13755TIP3    H262757   0.600   5.992   3.801  0.3032  1.0536  0.8559
13756TIP3   OH262758   2.207   1.103  14.310  0.3676  0.0188 -0.6565
13756TIP3    H162759   2.119   1.122  14.341  1.0288  1.2052  0.5781
13756TIP3    H262760   2.252   1.187  14.310  2.0580 -0.8171  0.5826
13757TIP3   OH262761   2.965   2.632  14.927 -0.3447  0.5053  0.6282
13757TIP3    H162762   3.038   2.691  14.904 -0.2921 -0.5238 -2.2353
13757TIP3    H262763   2.981   2.553  14.876 -4.1162  0.6846 -1.1434
13758TIP3   OH262764   5.121   2.443   4.095 -0.5256  0.0246 -0.3119
13758TIP3    H162765   5.042   2.408   4.054 -0.4694 -0.1082 -0.3044
13758TIP3    H262766   5.189   2.380   4.075 -0.3320  0.3408 -0.6627
13759TIP3   OH262767   1.220   1.003  14.386  0.6421 -0.4995  0.4288
13759TIP3    H162768   1.147   0.995  14.448  0.4227  1.9393  0.5693
13759TIP3    H262769   1.183   0.975  14.303 -0.1676 -0.2516  0.6945
13760TIP3   OH262770   2.276   2.773  12.154 -0.0722  0.3202  0.2058
13760TIP3    H162771   2.304   2.686  12.180  3.4329  1.0807 -0.3912
13760TIP3    H262772   2.200   2.759  12.098 -1.1219 -2.0917  2.0911
13761TIP3   OH262773   3.903   4.894  13.708 -0.0777 -0.2620 -0.5136
13761TIP3    H162774   3.810   4.913  13.701  0.0877  0.5051 -0.7249
13761TIP3    H262775   3.942   4.975  13.740  0.3879 -0.9005  0.6208
13762TIP3   OH262776   6.301   5.899  16.709  0.3090  0.2998  0.2968
13762TIP3    H162777   6.320   5.841  16.782  1.3841  0.7370  0.3967
13762TIP3    H262778   6.361   5.870  16.639 -2.2309 -1.5818 -1.2766
13763TIP3   OH262779   4.034   1.228  13.867  0.2630  0.4655 -0.2142
13763TIP3    H162780   4.062   1.150  13.818  0.6079  0.1777  0.4299
13763TIP3    H262781   3.950   1.251  13.829 -1.1454 -1.7972  1.2742
13764TIP3   OH262782   1.548   1.316  12.947 -0.4449 -0.6981  0.1923
13764TIP3    H162783   1.614   1.340  13.012 -0.3611 -1.0251  0.2331
13764TIP3    H262784   1.590   1.330  12.863 -0.2286 -1.1478  0.2205
13765TIP3   OH262785   6.231   3.074   2.574 -0.5002  0.4957  0.1132
13765TIP3    H162786   6.233   3.012   2.500 -0.6081  0.6832 -0.0472
13765TIP3    H262787   6.298   3.138   2.553  0.7556 -0.4549  1.0664
13766TIP3   OH262788   2.163   4.401  14.569 -0.5717 -0.7579  0.0493
13766TIP3    H162789   2.069   4.386  14.557 -0.4872 -2.9067  1.4782
13766TIP3    H262790   2.170   4.443  14.655 -0.3255  2.0420 -1.2171
13767TIP3   OH262791   5.080   6.027  12.853  0.1573  0.0846  0.9253
13767TIP3    H162792   5.032   6.109  12.841 -1.8275 -1.3075 -1.7328
13767TIP3    H262793   5.018   5.969  12.897  1.2263 -0.2794  1.9899
13768TIP3   OH262794   3.702   2.846   0.775 -0.8224  0.2239 -0.1355
13768TIP3    H162795   3.793   2.833   0.803 -0.7515  1.1917  0.1229
13768TIP3    H262796   3.663   2.759   0.780  0.0638 -0.1857 -0.1566
13769TIP3   OH262797   2.077   0.385  16.589  0.2696 -0.0682  0.3522
13769TIP3    H162798   2.032   0.345  16.515 -0.6293 -1.0521  1.4043
13769TIP3    H262799   2.008   0.421  16.643  0.9321  0.8316  0.6204
13770TIP3   OH262800   1.882   3.596  15.159  0.1782 -0.1131 -0.1775
13770TIP3    H162801   1.901   3.677  15.207 -1.2307  0.2306 -0.1599
13770TIP3    H262802   1.803   3.562  15.202  0.4427 -1.2004 -0.5492
13771TIP3   OH262803   6.201   4.073   3.186 -0.1745  0.4992 -0.1610
13771TIP3    H162804   6.134   4.125   3.142  0.8674 -0.5218 -3.2482
13771TIP3    H262805   6.157   3.992   3.211 -0.2501 -0.0971 -2.0217
13772TIP3   OH262806   5.176   6.116   3.157 -0.4713 -0.0803 -0.3699
13772TIP3    H162807   5.266   6.084   3.152 -0.7084 -0.7326 -0.5163
13772TIP3    H262808   5.184   6.211   3.147  0.2389 -0.0841  0.0865
13773TIP3   OH262809   1.422   5.669  11.701 -0.3042  0.2170 -0.1668
13773TIP3    H162810   1.434   5.763  11.693 -2.5313  0.5623 -0.0930
13773TIP3    H262811   1.508   5.636  11.728  0.1247  2.4204  1.4121
13774TIP3   OH262812   6.063   5.778   0.476 -0.9636  0.1229  0.0696
13774TIP3    H162813   6.120   5.705   0.455 -1.1880 -0.3576  1.0616
13774TIP3    H262814   6.093   5.849   0.419 -0.5855 -0.6569 -0.7327
13775TIP3   OH262815   1.682   5.572   1.409 -0.4342  0.5438 -0.2240
13775TIP3    H162816   1.640   5.572   1.496 -0.4440  0.1464 -0.2250
13775TIP3    H262817   1.766   5.615   1.423 -0.2327  0.0605  0.0882
13776TIP3   OH262818   0.050   6.098   4.733 -0.0581  0.1582  0.1341
13776TIP3    H162819  -0.013   6.169   4.715 -2.2662 -1.6732  0.1873
13776TIP3    H262820   0.082   6.073   4.646 -0.8572 -0.1131 -0.0980
13777TIP3   OH262821   2.917   2.531  12.475 -0.0334 -1.0584  0.0676
13777TIP3    H162822   2.947   2.555  12.387 -0.3235 -1.6588 -0.1979
13777TIP3    H262823   2.994   2.495  12.518  0.6134  0.9521  0.7224
13778TIP3   OH262824   1.177   4.559   5.427 -0.4845 -0.0444  0.0753
13778TIP3    H162825   1.239   4.486   5.423 -0.9548 -0.4345 -0.1673
13778TIP3    H262826   1.173   4.582   5.520  1.7039  1.4535 -0.1188
13779TIP3   OH262827   4.619   0.980  13.009 -0.1583 -0.0987  1.2246
13779TIP3    H162828   4.647   0.890  13.024 -0.1581 -0.6340 -1.5255
13779TIP3    H262829   4.644   0.998  12.919 -3.6766  1.3100  0.3714
13780TIP3   OH262830   6.142   2.390   5.987 -0.3329 -0.0602 -0.0331
13780TIP3    H162831   6.205   2.460   5.971 -0.1536 -0.5713 -1.6991
13780TIP3    H262832   6.057   2.430   5.971 -0.1488 -0.6355 -2.8429
13781TIP3   OH262833   0.243   6.394   0.857 -0.6331 -0.2216 -0.7449
13781TIP3    H162834   0.205   6.475   0.892  2.3913  1.3066 -0.6398
13781TIP3    H262835   0.291   6.423   0.779  3.4237 -1.1108  1.1617
13782TIP3   OH262836   4.047   3.620   3.708 -0.0651  0.2450  0.0214
13782TIP3    H162837   4.039   3.547   3.647  0.3125  0.5267 -0.3704
13782TIP3    H262838   3.990   3.596   3.781 -0.0209 -0.3963 -0.1437
13783TIP3   OH262839   3.737   1.004  14.786  0.4391 -0.3834  0.3092
13783TIP3    H162840   3.673   0.934  14.798 -0.8405  0.4068 -1.3931
13783TIP3    H262841   3.684   1.084  14.784  1.6048  0.4130 -0.0209
13784TIP3   OH262842   3.284   5.075  17.187 -0.0285  0.1830  0.5828
13784TIP3    H162843   3.222   5.003  17.172 -1.1380  1.6862 -3.2828
13784TIP3    H262844   3.229   5.153  17.193  1.2475  1.5110 -2.5265
13785TIP3   OH262845   1.387   3.984   5.510 -0.2178  0.1573  0.2447
13785TIP3    H162846   1.379   3.890   5.527 -2.0053  0.1048 -0.7159
13785TIP3    H262847   1.467   4.009   5.555  0.0061 -1.7199  0.9831
13786TIP3   OH262848   6.233   2.639  14.914  0.2080  0.1216 -0.0362
13786TIP3    H162849   6.322   2.649  14.948  1.1186 -1.1642 -1.9337
13786TIP3    H262850   6.202   2.729  14.902  0.5270  0.6094  2.3092
13787TIP3   OH262851   2.034   4.746   5.366 -0.2705  1.0209 -0.7871
13787TIP3    H162852   2.022   4.813   5.299  0.6597  0.4084 -1.5886
13787TIP3    H262853   2.030   4.663   5.318 -0.4807  0.5350  0.0504
13788TIP3   OH262854   2.475   2.036   6.722 -0.2425 -0.0542 -0.2277
13788TIP3    H162855   2.505   2.038   6.631  0.4625  0.2187  0.0055
13788TIP3    H262856   2.553   2.013   6.772 -0.4878  0.4117  0.3669
13789TIP3   OH262857   4.055   2.328   2.498  0.1968 -0.8561  0.0534
13789TIP3    H162858   4.134   2.343   2.551 -0.0040 -0.7469  0.3294
13789TIP3    H262859   4.020   2.246   2.531  0.0273 -0.7474  0.1436
13790TIP3   OH262860   2.084   0.732  12.122 -0.0275  0.0836 -0.4227
13790TIP3    H162861   2.012   0.714  12.182 -0.7275 -0.7875 -1.4863
13790TIP3    H262862   2.105   0.824  12.137  0.7280 -0.4109  2.0756
13791TIP3   OH262863   4.926   5.718   1.665  0.1077  0.9960 -0.3675
13791TIP3    H162864   4.979   5.714   1.585 -1.1496  0.1747 -1.2003
13791TIP3    H262865   4.948   5.637   1.712  0.4191  1.1952 -0.1742
13792TIP3   OH262866   5.277   5.280   0.478  0.5942  0.5162  0.2106
13792TIP3    H162867   5.196   5.302   0.433  0.1160  0.3479  0.9764
13792TIP3    H262868   5.346   5.309   0.418 -0.0049 -0.7792 -1.1634
13793TIP3   OH262869   1.409   5.466   0.588 -0.2174  0.7164  0.2017
13793TIP3    H162870   1.439   5.496   0.503  0.1800  0.6027  0.3020
13793TIP3    H262871   1.379   5.546   0.632 -0.0877  0.8260  0.0928
13794TIP3   OH262872   4.626   0.753  16.896 -0.2399  0.3105  0.0250
13794TIP3    H162873   4.663   0.757  16.807  0.2922 -0.2367  0.2185
13794TIP3    H262874   4.597   0.843  16.913 -0.0955  0.4846 -0.5934
13795TIP3   OH262875   5.421   1.303   3.592  0.0172  0.0519  0.0350
13795TIP3    H162876   5.422   1.222   3.539 -3.2830  0.3403 -0.6685
13795TIP3    H262877   5.506   1.344   3.574  0.6244 -1.8552 -1.8656
13796TIP3   OH262878   0.794   4.690   0.913 -0.3945  0.0559 -0.0082
13796TIP3    H162879   0.719   4.727   0.867 -0.7059 -1.6009 -0.8957
13796TIP3    H262880   0.868   4.706   0.854 -0.2876  0.4172  0.2176
13797TIP3   OH262881   2.097   0.606   4.312  0.4014 -0.5126  0.6349
13797TIP3    H162882   2.071   0.546   4.243 -1.3363  4.2127 -3.4889
13797TIP3    H262883   2.187   0.583   4.333  0.6582 -2.8966 -2.5223
13798TIP3   OH262884   2.124   2.336  11.674  0.6537  0.1428 -0.1449
13798TIP3    H162885   2.170   2.291  11.603 -0.3612 -1.6809  0.3132
13798TIP3    H262886   2.034   2.342  11.644  0.6421  1.3936  0.0705
13799TIP3   OH262887   6.203   5.016  15.010 -0.3755  0.2757 -0.4465
13799TIP3    H162888   6.154   5.004  15.092 -0.6262 -0.0332 -0.6415
13799TIP3    H262889   6.143   4.988  14.942 -0.0405  0.1981 -0.7133
13800TIP3   OH262890   3.881   0.734   6.076  0.5667 -0.5381 -0.0905
13800TIP3    H162891   3.893   0.829   6.075 -1.0015 -0.2978  0.6006
13800TIP3    H262892   3.970   0.699   6.075  1.1705  0.9176 -0.8330
13801TIP3   OH262893   5.777   1.299   2.543 -0.0408  0.4867  0.2955
13801TIP3    H162894   5.850   1.349   2.580  0.7636  0.3463 -1.0393
13801TIP3    H262895   5.711   1.364   2.521  1.1718  1.1105 -1.8478
13802TIP3   OH262896   2.081   6.192   2.075  0.2986 -0.0949  0.0077
13802TIP3    H162897   2.009   6.138   2.107  0.4795 -1.2019 -1.3749
13802TIP3    H262898   2.140   6.200   2.149 -0.8194  0.0975  0.8990
13803TIP3   OH262899   0.800   2.334  14.310  0.1863  0.4045 -0.2620
13803TIP3    H162900   0.817   2.363  14.400  0.8186  2.7067 -1.0506
13803TIP3    H262901   0.838   2.246  14.306  0.3783  0.3525  1.6436
13804TIP3   OH262902   2.913   5.629   3.963 -0.4709  0.7793  0.4913
13804TIP3    H162903   2.901   5.628   4.058 -0.7257  1.8240  0.4769
13804TIP3    H262904   2.940   5.718   3.943 -1.0041  0.7307 -0.4867
13805TIP3   OH262905   5.830   0.214   5.869 -0.2047 -0.1794  0.5466
13805TIP3    H162906   5.807   0.189   5.959  1.9941 -0.5195  1.0874
13805TIP3    H262907   5.772   0.286   5.849 -0.2026  0.4686  2.5897
13806TIP3   OH262908   2.635   1.592   5.954 -0.9670 -0.0156 -0.2847
13806TIP3    H162909   2.577   1.619   5.884  1.0416 -0.2398 -2.1580
13806TIP3    H262910   2.680   1.515   5.920  0.1353 -0.0975  1.2218
13807TIP3   OH262911   3.860   1.859   5.197  0.0096  0.3772 -0.4244
13807TIP3    H162912   3.941   1.808   5.202 -0.6075 -0.6091 -0.2110
13807TIP3    H262913   3.829   1.864   5.287 -1.5141 -1.5343 -0.7817
13808TIP3   OH262914   4.985   5.814  11.182  0.5282 -0.5610 -0.0899
13808TIP3    H162915   4.955   5.818  11.091 -1.3008 -0.5662  0.4719
13808TIP3    H262916   5.031   5.897  11.195 -0.6436  0.1831 -0.5523
13809TIP3   OH262917   3.242   0.293  12.672 -0.5221  0.3252 -0.5992
13809TIP3    H162918   3.183   0.261  12.604 -2.3327  0.2403  0.9240
13809TIP3    H262919   3.270   0.214  12.719  1.6254  0.2628 -1.8619
13810TIP3   OH262920   2.473   6.295   2.150  0.0615  0.1013 -0.0330
13810TIP3    H162921   2.493   6.325   2.239  1.4612 -0.4903 -0.1274
13810TIP3    H262922   2.461   6.201   2.159 -2.5877  0.3797 -0.0336
13811TIP3   OH262923   0.319   2.424  14.179  0.9482 -0.4867  0.1900
13811TIP3    H162924   0.316   2.508  14.225 -0.9940 -0.5718  0.2954
13811TIP3    H262925   0.408   2.392  14.193  2.4396  2.4495 -1.5235
13812TIP3   OH262926   0.611   3.909  14.650 -0.4140 -0.3194  0.2398
13812TIP3    H162927   0.567   3.832  14.612 -1.3918  0.3948 -0.1257
13812TIP3    H262928   0.540   3.960  14.687 -0.1781  1.8001 -1.9655
13813TIP3   OH262929   5.584   5.033  12.586  0.2957  0.4899  0.0855
13813TIP3    H162930   5.602   5.022  12.679  0.3044  1.1121  0.1616
13813TIP3    H262931   5.646   5.099  12.557  2.1557 -1.5945 -0.9807
13814TIP3   OH262932   2.622   5.849  15.559  0.2615  0.1323 -0.0264
13814TIP3    H162933   2.606   5.887  15.473  1.6229  1.4235  0.2480
13814TIP3    H262934   2.710   5.810  15.552  0.0591 -0.4598  0.5603
13815TIP3   OH262935   3.715   4.676   4.012 -0.2147 -0.5319  0.0285
13815TIP3    H162936   3.771   4.651   3.938 -0.7578 -1.1874 -0.1751
13815TIP3    H262937   3.692   4.767   3.995 -1.0035 -0.9084 -1.0596
13816TIP3   OH262938   4.286   5.434   0.783  0.3534 -0.1065  0.0733
13816TIP3    H162939   4.220   5.375   0.746  0.6379 -1.0320  1.0159
13816TIP3    H262940   4.240   5.481   0.853  0.1960  0.6424 -0.5130
13817TIP3   OH262941   4.417   5.566  16.356  0.0226 -0.2122  0.4544
13817TIP3    H162942   4.483   5.634  16.343  2.1862 -1.8947  1.9273
13817TIP3    H262943   4.387   5.544  16.268  2.3491 -0.2290 -0.3763
13818TIP3   OH262944   2.651   0.387   0.480  0.2977  0.3142 -0.0435
13818TIP3    H162945   2.656   0.353   0.569 -0.5068 -0.0267 -0.1176
13818TIP3    H262946   2.571   0.440   0.479 -0.8377 -1.3322 -1.0894
13819TIP3   OH262947   6.765   4.942  15.978  0.4335  0.1803  0.0470
13819TIP3    H162948   6.847   4.892  15.986 -0.1875 -0.6828  1.4500
13819TIP3    H262949   6.755   4.956  15.884  1.2522 -1.3215 -0.3006
13820TIP3   OH262950   3.733   6.272   0.474 -0.4600 -0.2356 -0.2352
13820TIP3    H162951   3.764   6.279   0.384 -2.6089 -1.4181 -1.1558
13820TIP3    H262952   3.767   6.188   0.505  2.4648  1.3011  1.0772
13821TIP3   OH262953   5.320   2.557  13.145  0.0610 -0.7872  0.3527
13821TIP3    H162954   5.233   2.586  13.172  0.4443 -1.0087  1.9046
13821TIP3    H262955   5.312   2.542  13.051 -1.0943  0.9178  0.1327
13822TIP3   OH262956   6.526   1.735   4.958 -0.0224 -0.0784 -0.0584
13822TIP3    H162957   6.477   1.656   4.983 -1.9917  0.3225 -2.2346
13822TIP3    H262958   6.498   1.802   5.020 -0.4846 -0.4488  0.1398
13823TIP3   OH262959   1.669   0.102   4.838 -0.2722 -0.2342 -0.6597
13823TIP3    H162960   1.658   0.044   4.913  0.2642  0.1182 -0.3025
13823TIP3    H262961   1.723   0.053   4.776 -0.8879 -0.6065 -0.9186
13824TIP3   OH262962   6.609   5.504  11.142  0.2553 -0.0444 -0.1168
13824TIP3    H162963   6.577   5.511  11.052  0.5858 -1.5410 -0.3787
13824TIP3    H262964   6.547   5.556  11.194 -0.1096  0.5877 -1.1601
13825TIP3   OH262965   1.494   4.025   2.288  0.5995  0.0406 -0.3663
13825TIP3    H162966   1.574   3.976   2.306  0.7176 -0.2801 -1.6684
13825TIP3    H262967   1.516   4.081   2.214  0.5003  2.1980  1.1506
13826TIP3   OH262968   1.575   2.899   1.177  0.0460 -0.5894 -0.1118
13826TIP3    H162969   1.504   2.960   1.199  0.6232  0.4421 -1.0521
13826TIP3    H262970   1.572   2.834   1.248 -1.3911 -0.1934  0.2370
13827TIP3   OH262971   3.968   0.835   4.887  0.1591  0.2747  0.4348
13827TIP3    H162972   3.994   0.800   4.972 -2.3729 -0.6841  0.9081
13827TIP3    H262973   3.894   0.893   4.907  0.0239  0.6292 -1.0243
13828TIP3   OH262974   2.974   5.232   6.121  0.4365  0.2273 -0.8236
13828TIP3    H162975   2.961   5.150   6.170  1.6269  0.3995 -0.1727
13828TIP3    H262976   2.953   5.300   6.184  0.3821  0.4340 -1.0666
13829TIP3   OH262977   4.836   6.118  13.690 -0.1726 -0.4602  0.2556
13829TIP3    H162978   4.893   6.112  13.767  0.3911 -1.5539 -0.2243
13829TIP3    H262979   4.835   6.212  13.668  0.6538 -0.2970  0.8551
13830TIP3   OH262980   0.993   0.647   2.790 -0.0888 -0.4181  0.4527
13830TIP3    H162981   0.991   0.721   2.849  1.4668  0.1424 -0.1393
13830TIP3    H262982   1.085   0.622   2.785  0.2430  0.8530 -3.2161
13831TIP3   OH262983   6.745   1.326  10.965 -0.1009 -0.2227 -0.6838
13831TIP3    H162984   6.651   1.346  10.965 -0.0846 -0.1400 -0.2906
13831TIP3    H262985   6.753   1.248  11.021  0.4085  1.4511  1.7170
13832TIP3   OH262986   4.799   1.910  13.779  0.2062 -0.1675  0.0467
13832TIP3    H162987   4.778   1.905  13.873 -1.1325  1.0809 -0.1607
13832TIP3    H262988   4.878   1.857  13.770  0.5607 -0.0372  1.9425
13833TIP3   OH262989   6.661   5.895   2.790  0.4385 -0.0782  0.1978
13833TIP3    H162990   6.749   5.929   2.810 -0.0709  1.1133  0.5283
13833TIP3    H262991   6.614   5.970   2.754  0.7528 -1.6518 -4.0433
13834TIP3   OH262992   5.937   5.023  15.641  0.3919 -0.1545  0.0681
13834TIP3    H162993   5.865   5.028  15.578  2.2685  0.1027 -2.2166
13834TIP3    H262994   5.910   5.079  15.714 -1.6046  0.0843 -0.7835
13835TIP3   OH262995   1.176   0.608   6.179 -0.2242  0.0945  0.3688
13835TIP3    H162996   1.094   0.614   6.130  0.3066  0.1840 -0.5307
13835TIP3    H262997   1.155   0.553   6.255 -1.5872  1.6732  1.1896
13836TIP3   OH262998   0.710   5.339  14.027 -0.0350 -0.1324 -0.2416
13836TIP3    H162999   0.733   5.358  13.936  0.4634  0.2429 -0.0439
13836TIP3    H263000   0.619   5.309  14.023 -0.6722  1.7419 -0.6429
13837TIP3   OH263001   2.379   1.882   1.404 -0.3299  0.3633  0.1708
13837TIP3    H163002   2.471   1.906   1.392  0.1542 -1.6046 -0.4596
13837TIP3    H263003   2.369   1.871   1.498 -0.2905  1.8633  0.3706
13838TIP3   OH263004   3.005   3.653  14.311  0.1972 -0.2330 -0.6987
13838TIP3    H163005   2.928   3.628  14.260 -0.4520 -1.2160  0.6800
13838TIP3    H263006   2.972   3.662  14.401  1.6327 -0.3784 -0.1271
13839TIP3   OH263007   5.846   5.322  13.893 -0.1691  0.0162  0.1911
13839TIP3    H163008   5.911   5.272  13.843 -0.5033 -1.9573  1.6307
13839TIP3    H263009   5.762   5.286  13.867 -0.3613 -0.9653  1.9876
13840TIP3   OH263010   3.970   0.493  13.473  0.6376 -0.5073 -0.0455
13840TIP3    H163011   3.928   0.556  13.414  0.8002  1.3752  1.7211
13840TIP3    H263012   4.045   0.459  13.423 -0.3154 -0.4537 -1.5773
13841TIP3   OH263013   4.973   3.488   4.895  0.1941 -0.2788  0.2407
13841TIP3    H163014   4.931   3.563   4.936 -1.2846 -0.9531  0.0025
13841TIP3    H263015   4.984   3.425   4.966 -2.3065 -1.4201 -0.2872
13842TIP3   OH263016   1.087   0.754   3.951 -0.5344  0.1053  0.2533
13842TIP3    H163017   1.085   0.777   4.044 -0.5407  1.5915 -0.0914
13842TIP3    H263018   1.145   0.819   3.911  0.7657 -1.4704 -0.5579
13843TIP3   OH263019   4.561   5.207  12.006  0.6499 -0.3629  0.2396
13843TIP3    H163020   4.520   5.124  11.979 -0.6491  0.4840 -0.4691
13843TIP3    H263021   4.559   5.204  12.102  1.8935 -1.7410  0.2674
13844TIP3   OH263022   6.387   5.608  16.570 -0.1836  0.2357 -0.8324
13844TIP3    H163023   6.415   5.570  16.652 -0.9483 -0.4107 -0.8538
13844TIP3    H263024   6.407   5.542  16.504  0.4783  0.7731 -1.1739
13845TIP3   OH263025   0.049   3.865   5.652 -0.6797 -0.4047  0.0200
13845TIP3    H163026   0.002   3.947   5.669 -0.6878 -0.0172 -1.7033
13845TIP3    H263027   0.136   3.879   5.690 -1.6282 -0.8569  2.5951
13846TIP3   OH263028   6.549   5.322  14.434  0.2885  0.4541  0.5234
13846TIP3    H163029   6.464   5.365  14.443 -1.4876 -2.4597 -0.9618
13846TIP3    H263030   6.569   5.328  14.341 -0.2179 -2.1028  0.1849
13847TIP3   OH263031   0.873   1.000   0.439  0.4840 -0.0587  0.3266
13847TIP3    H163032   0.858   1.087   0.476  1.3483  0.2813 -0.0840
13847TIP3    H263033   0.966   0.984   0.453  0.6453 -0.2916 -0.8933
13848TIP3   OH263034   2.543   0.114  14.225 -0.5732 -0.0739 -0.1091
13848TIP3    H163035   2.479   0.046  14.202 -0.6713 -0.2599  0.6683
13848TIP3    H263036   2.537   0.121  14.320  0.2849  0.1929 -0.0656
13849TIP3   OH263037   6.590   4.058  14.691  0.4189 -0.2252 -0.0117
13849TIP3    H163038   6.631   4.139  14.660 -0.3164  0.5601  1.0047
13849TIP3    H263039   6.535   4.086  14.764 -0.2105 -1.5850  0.0531
13850TIP3   OH263040   2.996   1.852   0.275 -0.1812 -0.0920 -0.1063
13850TIP3    H163041   2.954   1.797   0.209  0.5227  0.4836 -1.0698
13850TIP3    H263042   2.923   1.886   0.328 -0.6866 -1.1928 -0.0824
13851TIP3   OH263043   3.851   1.271  16.029  0.6118 -0.0772 -0.1786
13851TIP3    H163044   3.940   1.286  16.060  0.7483  0.2329 -0.7093
13851TIP3    H263045   3.860   1.206  15.959  1.0437  3.1000 -3.3635
13852TIP3   OH263046   3.963   3.459  12.928  0.0123 -0.4183  0.9173
13852TIP3    H163047   4.048   3.417  12.932 -0.0074 -0.5084  0.4723
13852TIP3    H263048   3.922   3.424  12.849  0.2677  0.9299  0.1508
13853TIP3   OH263049   4.842   1.511   0.511 -0.0194 -0.3354  0.5421
13853TIP3    H163050   4.792   1.571   0.566  0.8451  0.8003  0.1302
13853TIP3    H263051   4.924   1.557   0.494  1.8541 -2.7516  2.4633
13854TIP3   OH263052   0.056   5.055  16.873 -0.7565 -0.1783  0.6712
13854TIP3    H163053  -0.038   5.071  16.884 -0.8809 -1.3819  1.5511
13854TIP3    H263054   0.098   5.123  16.926 -1.0656  1.2022 -0.7866
13855TIP3   OH263055   4.902   3.831   0.687  0.3115  0.1890  0.1660
13855TIP3    H163056   4.822   3.809   0.734  0.3145 -2.5879 -0.9774
13855TIP3    H263057   4.940   3.747   0.662  2.9460  1.4409 -0.4317
13856TIP3   OH263058   3.267   0.654   3.833 -0.4723 -0.4209 -0.3313
13856TIP3    H163059   3.359   0.631   3.849 -0.4586  0.5115  1.1915
13856TIP3    H263060   3.234   0.584   3.778  0.8137 -1.4605  0.1593
13857TIP3   OH263061   6.631   3.004   3.369  0.0413 -0.2084 -0.1000
13857TIP3    H163062   6.697   2.954   3.418 -0.2537  2.0696  2.9087
13857TIP3    H263063   6.550   2.955   3.382 -0.0284  0.3219  1.8464
13858TIP3   OH263064   6.656   3.534   3.418  0.5043 -0.2140 -0.2164
13858TIP3    H163065   6.633   3.546   3.510  1.1440 -1.8349  0.1903
13858TIP3    H263066   6.703   3.451   3.415  1.5647  0.3781 -1.8244
13859TIP3   OH263067   1.168   1.684  12.494 -0.7092 -0.3091 -0.0747
13859TIP3    H163068   1.106   1.678  12.421  0.2376  1.5544 -1.1070
13859TIP3    H263069   1.251   1.651  12.459 -0.7612 -1.5703  0.9021
13860TIP3   OH263070   3.861   2.637  11.590 -0.3145 -0.8132  0.2095
13860TIP3    H163071   3.895   2.553  11.621  1.5048  0.1776  1.0104
13860TIP3    H263072   3.876   2.697  11.662 -0.1277  0.5692 -0.9431
13861TIP3   OH263073   5.776   6.611  13.080  0.0261  0.0349 -0.8148
13861TIP3    H163074   5.828   6.544  13.035  0.7424 -0.5257  0.7587
13861TIP3    H263075   5.686   6.592  13.056  0.2315 -1.4136 -0.5244
13862TIP3   OH263076   1.080   0.225  14.538 -0.5813 -0.3319  0.2934
13862TIP3    H163077   1.107   0.251  14.626 -0.0113 -0.7581  0.2507
13862TIP3    H263078   1.138   0.274  14.479 -1.4506  0.5226  0.1216
13863TIP3   OH263079   0.562   3.792   6.286  0.7704 -0.4959  0.2974
13863TIP3    H163080   0.479   3.746   6.270  0.8677 -0.6104  0.1220
13863TIP3    H263081   0.580   3.837   6.203  0.5404  0.0716  0.5536
13864TIP3   OH263082   3.709   5.019  13.171 -0.0498 -0.1699 -0.1185
13864TIP3    H163083   3.650   4.944  13.158  0.1940 -0.6483  1.3418
13864TIP3    H263084   3.785   4.998  13.117 -0.2394 -0.7038 -0.1917
13865TIP3   OH263085   1.101   5.346   3.006  0.2022  0.2628 -0.6254
13865TIP3    H163086   1.127   5.424   2.957  0.8325  0.8045  0.5430
13865TIP3    H263087   1.052   5.381   3.081 -0.2233 -0.5205 -0.5321
13866TIP3   OH263088   3.943   2.497  15.747  0.4839  0.0417 -0.2729
13866TIP3    H163089   3.989   2.578  15.768  1.6766 -0.5598 -0.5349
13866TIP3    H263090   3.967   2.436  15.816 -1.9810  0.4468  1.0631
13867TIP3   OH263091   6.650   4.960   2.287 -0.3207 -0.0217 -0.4320
13867TIP3    H163092   6.708   5.032   2.312  0.6529 -0.7701 -0.4612
13867TIP3    H263093   6.581   4.961   2.353 -1.0206  1.6978 -1.1318
13868TIP3   OH263094   5.333   4.774   2.515  1.0205  0.0643 -0.4412
13868TIP3    H163095   5.398   4.810   2.455 -0.0041  0.2563 -1.4761
13868TIP3    H263096   5.300   4.696   2.470  1.1556 -0.5217  0.4669
13869TIP3   OH263097   0.480   0.012   4.630 -0.2679  0.2707 -0.1490
13869TIP3    H163098   0.482  -0.082   4.644 -0.0780  0.2306 -0.4505
13869TIP3    H263099   0.565   0.033   4.591  0.3472  0.8014  1.3773
13870TIP3   OH263100   4.454   5.216  15.144  0.4980  0.0894  0.4544
13870TIP3    H163101   4.477   5.186  15.232  0.5016 -0.9432  0.1087
13870TIP3    H263102   4.478   5.144  15.087  0.8967  0.9193 -0.4555
13871TIP3   OH263103   6.390   1.855  14.175 -0.4256  0.3746 -0.1169
13871TIP3    H163104   6.466   1.889  14.221 -0.1138  0.5610 -0.7555
13871TIP3    H263105   6.384   1.763  14.201  0.7780  0.0167 -1.0394
13872TIP3   OH263106   4.598   6.824  15.298 -0.0005  0.0017 -0.3420
13872TIP3    H163107   4.685   6.804  15.264  0.6285 -0.5697  1.4527
13872TIP3    H263108   4.556   6.739  15.310 -0.3292  0.2000 -0.0509
13873TIP3   OH263109   0.582   5.005  11.931  0.0701 -0.5780  0.0090
13873TIP3    H163110   0.583   5.098  11.907 -1.9539 -0.3151  0.7223
13873TIP3    H263111   0.542   5.004  12.018  1.4813 -2.0192  0.6864
13874TIP3   OH263112   4.043   1.107  12.268  0.2222 -0.4083 -0.5567
13874TIP3    H163113   4.069   1.020  12.299  0.3394 -0.1914 -0.0228
13874TIP3    H263114   4.010   1.151  12.347  1.3835  0.4807 -0.5388
13875TIP3   OH263115   0.237   1.887   2.422  0.0670 -0.2535 -0.1939
13875TIP3    H163116   0.204   1.903   2.334  1.9130  0.3041 -0.8220
13875TIP3    H263117   0.225   1.971   2.467  1.2127  0.1860 -0.6522
13876TIP3   OH263118   2.575   1.191  16.259  0.5059 -0.2384 -0.0794
13876TIP3    H163119   2.502   1.216  16.316  0.6246  1.5368 -0.6440
13876TIP3    H263120   2.648   1.175  16.319  0.4622  0.9828  0.3312
13877TIP3   OH263121   5.911   6.789   6.010  0.0616  0.7618  0.3255
13877TIP3    H163122   5.930   6.740   6.090 -0.3078  2.2979  1.4022
13877TIP3    H263123   5.826   6.828   6.025 -0.7440 -0.1633 -1.4886
13878TIP3   OH263124   2.739   5.664  16.193  0.1599  0.0129  0.3785
13878TIP3    H163125   2.668   5.706  16.145  2.7690  0.5818 -3.4205
13878TIP3    H263126   2.818   5.688  16.145  2.7555 -2.3847  3.0248
13879TIP3   OH263127   4.354   4.951  13.737 -0.2413 -0.2669  0.7863
13879TIP3    H163128   4.382   4.860  13.737  1.2360  0.1109 -1.5018
13879TIP3    H263129   4.284   4.954  13.671  0.4334  0.4236  0.0861
13880TIP3   OH263130   5.284   2.071   2.745 -0.1087  0.3151  0.1204
13880TIP3    H163131   5.364   2.053   2.795  0.1213  0.6317 -0.1316
13880TIP3    H263132   5.236   2.134   2.798  0.6128  1.4394 -0.5253
13881TIP3   OH263133   2.754   2.948  13.247 -0.6841  0.2463 -0.0181
13881TIP3    H163134   2.699   2.874  13.222  1.2005 -1.9145  1.7563
13881TIP3    H263135   2.831   2.941  13.191  0.9391 -1.1557  2.2324
13882TIP3   OH263136   3.378   0.526  13.453  0.3775 -0.2190 -0.9156
13882TIP3    H163137   3.403   0.496  13.366  2.1347  1.3632 -1.0080
13882TIP3    H263138   3.447   0.494  13.511 -0.5823 -0.9435 -0.1286
13883TIP3   OH263139   2.988   6.709  13.104 -0.2656  0.1669  0.8623
13883TIP3    H163140   2.964   6.617  13.092  0.9202 -0.1283  0.6922
13883TIP3    H263141   3.007   6.716  13.198 -1.7364  0.6009  1.1665
13884TIP3   OH263142   0.651   2.948  16.016 -0.2375  0.3204  0.4018
13884TIP3    H163143   0.597   3.005  16.071  0.8151  2.5843 -0.7579
13884TIP3    H263144   0.590   2.905  15.957 -0.9729  1.1354  0.5583
13885TIP3   OH263145   1.823   2.648  16.787 -0.3648 -0.1007  0.4086
13885TIP3    H163146   1.917   2.648  16.768 -0.0504 -3.0587  1.4562
13885TIP3    H263147   1.791   2.567  16.748 -2.2167  0.1887  1.2250
13886TIP3   OH263148   2.997   0.057  11.039  0.5099  0.0152 -0.0849
13886TIP3    H163149   3.064   0.116  11.073  1.1235 -0.1948 -0.8913
13886TIP3    H263150   2.990   0.080  10.946 -1.1454  0.5954  0.1531
13887TIP3   OH263151   2.023   4.552  17.124 -0.2377 -0.1788 -0.2547
13887TIP3    H163152   2.014   4.578  17.215  0.2033  1.4962 -0.6552
13887TIP3    H263153   2.036   4.458  17.127  0.2903 -0.0869  1.4423
13888TIP3   OH263154   3.009   4.928   1.030 -0.0225 -0.2578  0.3235
13888TIP3    H163155   3.035   5.017   1.053 -1.2116  0.8275 -2.2128
13888TIP3    H263156   3.091   4.878   1.032  0.8115  1.0816  0.8648
13889TIP3   OH263157   0.325   1.822  11.645  0.0464  0.2650 -0.4225
13889TIP3    H163158   0.385   1.840  11.573  2.5438 -3.8637  0.3144
13889TIP3    H263159   0.242   1.800  11.602  0.4426  1.2574 -1.7595
13890TIP3   OH263160   1.962   6.808   4.173 -0.0626  0.7051 -0.0426
13890TIP3    H163161   1.903   6.880   4.149  0.5212  1.0579 -0.4781
13890TIP3    H263162   1.924   6.731   4.132 -1.5383  0.4415  1.6861
13891TIP3   OH263163   6.291   5.434   3.155 -0.3507  0.0857  0.3870
13891TIP3    H163164   6.386   5.437   3.149 -0.3265 -0.2582  0.5875
13891TIP3    H263165   6.270   5.341   3.168 -0.7883  0.0067 -0.8124
13892TIP3   OH263166   1.308   5.122  12.485 -0.3727 -0.1570  0.0273
13892TIP3    H163167   1.222   5.102  12.522 -0.1619 -1.4717 -0.1428
13892TIP3    H263168   1.367   5.118  12.560 -0.0984 -1.8216 -0.2328
13893TIP3   OH263169   5.224   4.215   2.145 -0.3752 -0.2017  0.2230
13893TIP3    H163170   5.177   4.217   2.062 -0.2567  0.1809  0.1642
13893TIP3    H263171   5.215   4.125   2.175  0.0306 -0.4720 -0.4558
13894TIP3   OH263172   0.088   3.484   2.225 -0.9739 -0.1577  0.6743
13894TIP3    H163173   0.024   3.418   2.197 -0.7827  0.6278 -1.9005
13894TIP3    H263174   0.116   3.526   2.144  0.7939  1.3968  1.9947
13895TIP3   OH263175   4.803   6.621   5.149 -0.5011  0.2051 -0.0089
13895TIP3    H163176   4.859   6.544   5.144  1.5232  1.6172 -0.5085
13895TIP3    H263177   4.809   6.661   5.062  1.7055  2.9536  1.2456
13896TIP3   OH263178   3.099   0.484   1.039  0.0082  0.1301 -0.0048
13896TIP3    H163179   3.106   0.439   1.123 -0.2806 -0.8083 -0.4728
13896TIP3    H263180   3.025   0.443   0.995  1.1063 -0.4821 -1.3647
13897TIP3   OH263181   4.268   5.344  10.585  0.2799 -0.0266 -0.1486
13897TIP3    H163182   4.275   5.434  10.619  1.4641  0.4559 -1.5560
13897TIP3    H263183   4.359   5.315  10.577 -0.0936 -2.1506  2.1925
13898TIP3   OH263184   1.842   0.047  15.612  0.0862 -0.3134 -0.1481
13898TIP3    H163185   1.790   0.028  15.689 -1.5986  0.8501 -0.9379
13898TIP3    H263186   1.904   0.114  15.640  0.1630 -0.6239  0.4330
13899TIP3   OH263187   0.306   0.186   5.505 -0.1356  0.2612 -0.5609
13899TIP3    H163188   0.345   0.268   5.478  1.0711  0.0435  0.4215
13899TIP3    H263189   0.267   0.205   5.591 -1.1833  0.1710 -0.9960
13900TIP3   OH263190   5.140   1.199   5.429 -0.7939  0.2280 -0.4884
13900TIP3    H163191   5.208   1.133   5.423 -1.7911 -0.7093 -2.6379
13900TIP3    H263192   5.106   1.190   5.518  1.3479  0.2283  0.3826
13901TIP3   OH263193   5.114   1.891  14.465 -0.7781 -0.1841 -0.3131
13901TIP3    H163194   5.124   1.803  14.430  0.4867 -1.1422  2.1817
13901TIP3    H263195   5.162   1.889  14.549 -1.5750  2.5732  0.3156
13902TIP3   OH263196   4.799   4.450  10.231  0.5920 -0.1412 -0.3796
13902TIP3    H163197   4.893   4.459  10.217  0.5417  1.3569  0.1091
13902TIP3    H263198   4.783   4.356  10.227  2.3491 -0.5554  1.0707
13903TIP3   OH263199   1.526   2.783  11.717  0.4083 -0.5316  0.3785
13903TIP3    H163200   1.546   2.690  11.718 -0.7750 -0.8018  0.4445
13903TIP3    H263201   1.611   2.826  11.722  0.9464 -1.6038  0.6925
13904TIP3   OH263202   1.771   0.712  13.718 -0.2407 -0.4471 -0.2975
13904TIP3    H163203   1.840   0.704  13.784  0.1630 -2.3560 -0.8876
13904TIP3    H263204   1.698   0.752  13.765  0.6093 -0.1478  0.8401
13905TIP3   OH263205   4.972   1.549   4.069  0.1694 -0.2935  0.4466
13905TIP3    H163206   4.904   1.594   4.119 -1.1465 -0.6545 -0.9302
13905TIP3    H263207   5.030   1.618   4.038 -0.1403  0.1329  0.8054
13906TIP3   OH263208   2.204   4.643   1.747 -0.2287  0.5997  0.5802
13906TIP3    H163209   2.200   4.691   1.665  1.3081 -0.8474 -0.4272
13906TIP3    H263210   2.138   4.574   1.738  1.3669 -0.8843 -0.4372
13907TIP3   OH263211   3.976   5.916  13.012  0.2856 -0.3381 -0.3136
13907TIP3    H163212   3.945   6.001  13.043  0.9940 -0.5220  0.9618
13907TIP3    H263213   4.017   5.936  12.927 -1.1024  0.2792 -0.8691
13908TIP3   OH263214   6.440   4.820  12.599  0.2446  0.0332  0.2917
13908TIP3    H163215   6.485   4.761  12.660  1.0555  0.1137 -0.2170
13908TIP3    H263216   6.421   4.898  12.652  1.1557  0.2005  0.4030
13909TIP3   OH263217   2.906   2.449   4.789  0.1321  0.1220  0.5031
13909TIP3    H163218   2.914   2.532   4.835  0.0783  0.0805  0.5875
13909TIP3    H263219   2.905   2.473   4.696 -2.3066  0.4387  0.5607
13910TIP3   OH263220   2.601   3.132   3.329  0.2783 -0.1224 -0.4497
13910TIP3    H163221   2.635   3.119   3.241  0.6118  0.5816 -0.4288
13910TIP3    H263222   2.507   3.145   3.317  0.5971  2.0615 -0.9220
13911TIP3   OH263223   5.322   3.059  11.699  0.0133 -0.4230 -0.0507
13911TIP3    H163224   5.255   2.991  11.703 -0.9867  0.5264 -0.1850
13911TIP3    H263225   5.280   3.135  11.738  1.8907 -0.4714  2.2174
13912TIP3   OH263226   6.496   0.899  12.146  0.8309  0.2043 -0.2771
13912TIP3    H163227   6.532   0.872  12.230 -0.1234 -1.6052 -0.4088
13912TIP3    H263228   6.551   0.856  12.081  2.2644  2.4598 -0.6977
13913TIP3   OH263229   2.399   3.111   5.472 -0.0891  0.5318  0.1645
13913TIP3    H163230   2.390   3.134   5.379 -0.2948 -1.1434 -0.2689
13913TIP3    H263231   2.317   3.141   5.511 -0.8637 -0.4730 -0.6153
13914TIP3   OH263232   4.423   5.803  12.625 -0.5298 -0.5410 -0.3229
13914TIP3    H163233   4.458   5.716  12.644  1.4649 -0.2560 -2.2552
13914TIP3    H263234   4.348   5.787  12.568 -1.3013 -1.0180  0.7842
13915TIP3   OH263235   3.865   2.727  16.961 -0.3308  0.0913  0.8800
13915TIP3    H163236   3.848   2.633  16.973  0.6619 -0.2143  0.0256
13915TIP3    H263237   3.874   2.738  16.867 -0.6392  1.0941  0.9581
13916TIP3   OH263238   5.127   2.254  10.710  0.3560  0.3519  0.3996
13916TIP3    H163239   5.036   2.263  10.739  0.4108 -0.9131  1.0447
13916TIP3    H263240   5.142   2.159  10.709  1.7973  0.5611  0.6955
13917TIP3   OH263241   6.762   0.904  14.042 -0.1406  0.2218  0.1938
13917TIP3    H163242   6.706   0.955  13.983  0.3134  0.0995 -0.3526
13917TIP3    H263243   6.725   0.919  14.129  1.0520  3.0493  0.3366
13918TIP3   OH263244   5.128   2.009   2.071  0.1282 -0.2785  0.0801
13918TIP3    H163245   5.067   1.937   2.082 -1.0561  0.0833 -3.0281
13918TIP3    H263246   5.210   1.967   2.044  0.4595 -0.6011  1.5213
13919TIP3   OH263247   3.264   3.573   1.292 -0.2260 -0.0445 -0.5077
13919TIP3    H163248   3.229   3.484   1.282  0.2223 -0.4218  0.9559
13919TIP3    H263249   3.189   3.624   1.323  0.2776 -0.7549  2.1855
13920TIP3   OH263250   4.708   4.552  11.506  0.8627 -0.1161  0.3878
13920TIP3    H163251   4.769   4.578  11.574  0.9894 -1.1233  0.6814
13920TIP3    H263252   4.763   4.532  11.430  1.1012 -2.4694  1.0950
13921TIP3   OH263253   0.119   4.350  12.344  0.3991 -0.0191  0.0950
13921TIP3    H163254   0.120   4.398  12.427 -0.0068 -3.5968  2.4300
13921TIP3    H263255   0.187   4.391  12.291  0.5812  2.5228  2.1315
13922TIP3   OH263256   6.162   4.037  12.317 -0.4810  0.3849  0.3246
13922TIP3    H163257   6.235   4.017  12.259 -0.1153  1.9270  0.2049
13922TIP3    H263258   6.176   3.981  12.394  0.7655  0.5682  0.2531
13923TIP3   OH263259   1.727   4.330  16.714 -0.0874 -0.2125 -0.3609
13923TIP3    H163260   1.668   4.260  16.686  0.2810 -0.8419  0.4140
13923TIP3    H263261   1.726   4.392  16.641 -2.5320  0.3472  0.0468
13924TIP3   OH263262   3.352   3.587   6.590  0.4968  0.0635 -0.1687
13924TIP3    H163263   3.293   3.512   6.592  0.5777  0.0115  0.7629
13924TIP3    H263264   3.320   3.644   6.661  1.5830  0.0064  0.3882
13925TIP3   OH263265   6.107   1.061  14.140  0.0456 -0.5015 -0.0337
13925TIP3    H163266   6.042   1.118  14.099 -1.2155 -1.3477  0.7392
13925TIP3    H263267   6.173   1.121  14.175 -0.8306  0.4284  0.0582
13926TIP3   OH263268   4.159   3.132  13.918 -0.0225  0.4288  0.3620
13926TIP3    H163269   4.085   3.172  13.963 -0.6396  0.5904 -0.7813
13926TIP3    H263270   4.161   3.174  13.832  0.5064 -0.6250 -0.1558
13927TIP3   OH263271   2.203   5.729   4.107  0.0877 -0.2189  0.3786
13927TIP3    H163272   2.289   5.765   4.130 -0.8315  1.3057  1.5938
13927TIP3    H263273   2.156   5.723   4.190 -1.1456 -0.6183 -0.3249
13928TIP3   OH263274   5.298   0.508   4.684  0.7223 -0.3506 -0.5155
13928TIP3    H163275   5.252   0.429   4.659 -0.7723  0.0274  0.8774
13928TIP3    H263276   5.264   0.576   4.626  0.8124 -0.4101 -0.6378
13929TIP3   OH263277   6.565   3.614   4.546 -0.4075  0.4031  0.4594
13929TIP3    H163278   6.582   3.575   4.631 -0.2582 -0.6339 -0.0376
13929TIP3    H263279   6.488   3.568   4.513  2.0710 -2.4689 -1.8921
13930TIP3   OH263280   5.005   3.755   3.718  0.0310 -0.2104 -0.0828
13930TIP3    H163281   5.081   3.697   3.721  1.5558  1.5390 -1.7018
13930TIP3    H263282   4.981   3.758   3.625 -2.3447 -1.0352  0.4379
13931TIP3   OH263283   5.829   2.540  16.474  0.2340  0.1564  0.3928
13931TIP3    H163284   5.808   2.632  16.457  0.8547  0.1865 -0.2838
13931TIP3    H263285   5.906   2.523  16.420 -0.1525 -0.8896  0.1385
13932TIP3   OH263286   5.339   4.406  13.108 -0.2418  1.2683  0.3423
13932TIP3    H163287   5.273   4.340  13.131 -1.8512  2.8086  0.3294
13932TIP3    H263288   5.423   4.358  13.112 -1.3645 -0.8938 -0.1749
13933TIP3   OH263289   5.966   4.313   5.049  0.2354  0.6653  0.1930
13933TIP3    H163290   5.939   4.374   4.980  0.5661  0.9530  0.3158
13933TIP3    H263291   6.061   4.306   5.040  0.1443 -0.2704 -0.1731
13934TIP3   OH263292   0.058   5.893  15.867 -0.2709  0.3000 -0.4879
13934TIP3    H163293   0.101   5.807  15.861  1.8599  1.3100 -0.7407
13934TIP3    H263294   0.129   5.956  15.853 -1.2383  2.2130  2.3939
13935TIP3   OH263295   3.439   0.436   1.232  0.1519 -0.1653 -0.3845
13935TIP3    H163296   3.479   0.379   1.298 -1.2656  0.2307  0.8804
13935TIP3    H263297   3.487   0.519   1.239  1.6504 -0.8743 -1.6331
13936TIP3   OH263298   3.268   2.311  12.832  0.3018 -0.0710  0.8615
13936TIP3    H163299   3.364   2.312  12.826  0.4139  0.4798  2.3256
13936TIP3    H263300   3.241   2.396  12.799  0.3689  0.0188  1.0359
13937TIP3   OH263301   2.040   3.685   3.666  0.1600 -0.1264  0.1659
13937TIP3    H163302   1.981   3.739   3.613 -0.2919 -1.0653 -0.2975
13937TIP3    H263303   2.046   3.732   3.750  0.3416  1.0149 -0.4602
13938TIP3   OH263304   4.443   3.532   1.477 -1.0243  0.9193 -0.1806
13938TIP3    H163305   4.382   3.467   1.512 -1.1382  1.0392 -0.1522
13938TIP3    H263306   4.512   3.537   1.543  0.0136 -0.5910 -1.0842
13939TIP3   OH263307   1.828   4.218   1.855 -0.8849  0.0777  0.2119
13939TIP3    H163308   1.838   4.138   1.802 -0.7364 -0.7601  1.4628
13939TIP3    H263309   1.877   4.200   1.935 -2.5688  0.5704  1.4192
13940TIP3   OH263310   5.231   6.815   4.382 -0.1390 -0.4631  0.7004
13940TIP3    H163311   5.152   6.796   4.332  2.0406 -3.0555 -2.1942
13940TIP3    H263312   5.262   6.898   4.346 -0.4226 -0.5370  0.2796
13941TIP3   OH263313   2.514   0.668  12.909  0.1781  0.3227  0.3541
13941TIP3    H163314   2.429   0.711  12.895 -0.4584  0.0275  2.8349
13941TIP3    H263315   2.574   0.715  12.852 -1.4474  1.2635 -0.6665
13942TIP3   OH263316   2.297   1.025  16.917  0.1339 -0.0220  0.0027
13942TIP3    H163317   2.310   0.935  16.888 -3.0440 -1.1883  1.7707
13942TIP3    H263318   2.243   1.064  16.848  2.3513  1.0013 -1.2895
13943TIP3   OH263319   0.012   4.129   1.837 -0.2080  0.0464 -0.1041
13943TIP3    H163320   0.086   4.128   1.897 -0.2153  0.0328 -0.0956
13943TIP3    H263321   0.006   4.221   1.808 -0.4549  0.1338  0.2250
13944TIP3   OH263322   3.493   6.186  16.032  0.3408  0.1084 -0.3108
13944TIP3    H163323   3.586   6.199  16.013 -0.0501 -0.0406 -2.5638
13944TIP3    H263324   3.447   6.235  15.963 -1.2169 -1.4649 -0.4650
13945TIP3   OH263325   5.660   1.754   4.875 -0.0548  0.5507  0.2060
13945TIP3    H163326   5.680   1.836   4.831  0.7782  1.0575  1.4792
13945TIP3    H263327   5.598   1.779   4.944  0.1932  0.1016  0.5927
13946TIP3   OH263328   6.019   1.720  12.101 -0.2186  0.1543  0.4305
13946TIP3    H163329   5.956   1.647  12.105 -1.0801  0.9129  1.0397
13946TIP3    H263330   6.086   1.690  12.039  0.3688 -1.8696  1.9264
13947TIP3   OH263331   4.089   0.752  12.635 -0.1689 -0.3699 -0.4151
13947TIP3    H163332   4.109   0.695  12.710 -0.3263  0.1892  0.0546
13947TIP3    H263333   4.105   0.840  12.666 -1.6552 -0.0157 -0.5640
13948TIP3   OH263334   1.079   2.892   5.278 -0.2041  0.3458  0.0291
13948TIP3    H163335   1.007   2.885   5.216  0.8847 -1.0595 -1.1260
13948TIP3    H263336   1.056   2.967   5.333 -2.5661 -0.1040 -0.2481
13949TIP3   OH263337   1.774   1.672  14.276  0.3668  0.2768  0.5392
13949TIP3    H163338   1.690   1.709  14.304 -0.3335 -0.7507 -0.1485
13949TIP3    H263339   1.822   1.747  14.240 -0.0983  0.9460  1.2629
13950TIP3   OH263340   2.922   5.349  16.087 -0.6117  0.5033  0.7486
13950TIP3    H163341   2.927   5.437  16.050 -2.7814 -0.4068 -2.1340
13950TIP3    H263342   2.862   5.357  16.161  1.2963  1.8340  2.2405
13951TIP3   OH263343   4.218   4.950  12.069  0.1589  0.0697 -0.5868
13951TIP3    H163344   4.237   4.899  12.147 -0.0436  0.3287 -0.3679
13951TIP3    H263345   4.233   4.889  11.996  1.8037  0.2381 -0.4384
13952TIP3   OH263346   0.097   3.741  12.387  0.3148 -0.4619 -0.6832
13952TIP3    H163347   0.098   3.776  12.476  0.0660  0.1752 -0.9266
13952TIP3    H263348   0.009   3.706  12.376  0.0992  0.1671 -0.9505
13953TIP3   OH263349   0.804   2.412   2.946  0.6203  0.0509 -0.9564
13953TIP3    H163350   0.730   2.362   2.911  0.9257 -0.6482 -0.6181
13953TIP3    H263351   0.764   2.492   2.981 -0.0568 -0.5905 -0.2309
13954TIP3   OH263352   4.104   1.818  15.623 -0.4043  0.0711  0.1795
13954TIP3    H163353   4.018   1.853  15.647 -0.8073  0.0016 -1.0619
13954TIP3    H263354   4.115   1.844  15.531  0.7202 -0.2809  0.1987
13955TIP3   OH263355   5.306   1.027   0.324  0.2700  0.5459  0.4338
13955TIP3    H163356   5.353   1.111   0.330 -1.2619  1.4666  0.1284
13955TIP3    H263357   5.353   0.969   0.384  3.0770  0.7342 -1.3757
13956TIP3   OH263358   2.753   2.344  13.892 -0.3608  0.5623  0.4703
13956TIP3    H163359   2.744   2.436  13.868 -0.8079  1.0022  2.1715
13956TIP3    H263360   2.808   2.307  13.823 -0.1514  2.0991 -0.2430
13957TIP3   OH263361   0.266   6.658   2.035 -0.2565  0.3726 -0.3220
13957TIP3    H163362   0.257   6.753   2.044 -0.1310  0.3297  0.3230
13957TIP3    H263363   0.226   6.623   2.114  1.4465 -0.0146  0.4157
13958TIP3   OH263364   3.997   1.904  13.920 -0.0829 -0.1324 -0.3048
13958TIP3    H163365   3.962   1.815  13.926 -0.0308 -0.0686  1.5783
13958TIP3    H263366   4.029   1.912  13.830 -0.2926 -1.9392 -0.5653
13959TIP3   OH263367   6.592   4.152   1.903  0.1619  0.7100 -0.1183
13959TIP3    H163368   6.628   4.205   1.975  0.9157  0.8685 -0.6110
13959TIP3    H263369   6.668   4.114   1.860 -0.1772  1.6950 -1.6670
13960TIP3   OH263370   0.374   4.737  13.346  0.4206  0.1741 -0.1833
13960TIP3    H163371   0.353   4.715  13.436 -1.1261  0.0359 -0.5366
13960TIP3    H263372   0.317   4.680  13.294 -0.7450  2.1312 -1.1808
13961TIP3   OH263373   6.396   5.537   2.134  0.0839 -0.6711 -0.3759
13961TIP3    H163374   6.439   5.452   2.125  0.5544 -0.4862  0.0739
13961TIP3    H263375   6.393   5.553   2.228  4.4594  1.9729 -0.3881
13962TIP3   OH263376   2.055   4.195  15.352 -1.2547 -0.2524  0.1622
13962TIP3    H163377   2.031   4.107  15.380 -1.2165 -0.5607 -0.7339
13962TIP3    H263378   2.037   4.196  15.258 -1.4037  0.7477  0.1914
13963TIP3   OH263379   2.644   1.528   0.700 -0.2151  0.3749  0.3496
13963TIP3    H163380   2.671   1.591   0.767 -0.6754  1.8873 -0.8348
13963TIP3    H263381   2.698   1.548   0.624 -0.1067 -0.9336  0.0541
13964TIP3   OH263382   6.667   1.316   4.760  0.4227  0.3427 -0.1415
13964TIP3    H163383   6.656   1.257   4.834  1.4903  0.7293  0.3454
13964TIP3    H263384   6.615   1.393   4.783  2.5224  1.4220  1.3142
13965TIP3   OH263385   2.085   3.081  11.353  0.3824  0.1371 -0.6466
13965TIP3    H163386   2.118   3.011  11.410  1.4891  1.7963  0.8725
13965TIP3    H263387   1.999   3.102  11.389  1.1154  1.2407  0.5255
13966TIP3   OH263388   6.088   4.114   2.815  0.0367  0.0955  0.5520
13966TIP3    H163389   6.001   4.131   2.779 -0.0064 -2.3424 -0.7008
13966TIP3    H263390   6.086   4.022   2.841  2.2456 -0.0379  0.4651
13967TIP3   OH263391   2.431   6.412  12.114 -0.4456  0.0328  0.2632
13967TIP3    H163392   2.411   6.350  12.044 -1.3496  2.5718 -1.9079
13967TIP3    H263393   2.366   6.482  12.103  1.8262  2.4405  1.0980
13968TIP3   OH263394   6.066   3.672  17.003 -0.0199  0.4233  0.4378
13968TIP3    H163395   6.130   3.625  16.949  2.1434  2.9512  0.6456
13968TIP3    H263396   5.986   3.672  16.951  0.2992 -2.1120 -0.1941
13969TIP3   OH263397   2.932   5.364   1.497  0.1019  0.3054  0.8445
13969TIP3    H163398   2.867   5.376   1.427 -0.4618  0.4846  1.3869
13969TIP3    H263399   2.994   5.435   1.485 -1.6803  2.2500  2.3452
13970TIP3   OH263400   2.069   5.970   1.366 -0.1866  0.0457 -0.7474
13970TIP3    H163401   2.142   5.955   1.306  0.0821 -0.0972 -0.3880
13970TIP3    H263402   2.094   6.050   1.414  0.7493 -1.1420  0.8649
13971TIP3   OH263403   6.216   0.858   2.400  0.4702  0.0462  0.4239
13971TIP3    H163404   6.235   0.928   2.462  0.7609  0.3555 -0.0067
13971TIP3    H263405   6.134   0.884   2.359 -1.4729 -1.7320  2.9230
13972TIP3   OH263406   2.998   1.298  13.963  0.4961  0.9896  0.4428
13972TIP3    H163407   2.908   1.269  13.955 -0.0062  2.7171 -0.6629
13972TIP3    H263408   3.050   1.228  13.924 -0.6281  1.2970 -1.7648
13973TIP3   OH263409   6.634   4.694  16.329 -0.0177 -0.0772 -0.4156
13973TIP3    H163410   6.667   4.604  16.324 -0.1888 -0.1113 -0.9033
13973TIP3    H263411   6.709   4.745  16.359  1.4578  0.3673 -4.3440
13974TIP3   OH263412   0.183   5.873   2.736  0.0595  0.0703  0.0971
13974TIP3    H163413   0.261   5.827   2.768 -0.7985 -0.9170  0.8380
13974TIP3    H263414   0.143   5.910   2.815 -0.5977 -0.0332 -0.1789
13975TIP3   OH263415   2.977   6.479   3.935 -0.5929  0.3005 -0.1121
13975TIP3    H163416   3.064   6.517   3.925 -0.3142 -0.4879 -0.7710
13975TIP3    H263417   2.992   6.400   3.987 -1.1170  0.8600  0.9352
13976TIP3   OH263418   5.212   2.690   4.626  0.4556 -0.3409  0.0907
13976TIP3    H163419   5.193   2.735   4.708 -0.3003 -0.2184 -0.1360
13976TIP3    H263420   5.190   2.755   4.558  3.3340  0.4306 -0.2164
13977TIP3   OH263421   2.713   6.679   2.005  0.3724  0.0450  0.2425
13977TIP3    H163422   2.619   6.667   1.987  0.1287  1.5634  0.3182
13977TIP3    H263423   2.747   6.591   2.015 -1.0729 -0.5409  0.2949
13978TIP3   OH263424   5.714   4.428   0.408  0.3938  0.4012 -0.2952
13978TIP3    H163425   5.748   4.407   0.321 -0.4096 -0.1409 -0.4874
13978TIP3    H263426   5.725   4.347   0.459 -2.0040 -0.3458 -0.8171
13979TIP3   OH263427   0.540   5.894  17.009  0.4222 -0.3367 -0.0462
13979TIP3    H163428   0.507   5.834  16.943  0.0329 -0.8107  0.5669
13979TIP3    H263429   0.524   5.849  17.092 -0.5866  0.9344  0.4767
13980TIP3   OH263430   1.826   0.433  12.278 -0.2494 -0.0303 -0.4383
13980TIP3    H163431   1.898   0.380  12.313  0.5982  0.6654 -1.0914
13980TIP3    H263432   1.843   0.521  12.310 -1.8769 -0.1899  0.9750
13981TIP3   OH263433   0.078   6.696   5.628  0.1790 -0.2245 -0.2538
13981TIP3    H163434   0.012   6.628   5.643  0.7237 -0.5903  0.5226
13981TIP3    H263435   0.068   6.756   5.702  0.8094 -0.3588 -0.0545
13982TIP3   OH263436   3.310   5.398  16.698  0.5568  0.8872  0.3469
13982TIP3    H163437   3.225   5.441  16.707  0.8038  1.0377  2.2062
13982TIP3    H263438   3.370   5.452  16.749  1.3178 -0.4320  0.8819
13983TIP3   OH263439   0.627   0.116  16.464 -0.6953 -0.2507 -0.1537
13983TIP3    H163440   0.712   0.098  16.425 -0.5045 -0.8399  0.5088
13983TIP3    H263441   0.644   0.186  16.527 -0.7657 -0.1465 -0.2485
13984TIP3   OH263442   4.875   2.110   6.174 -0.4224  0.2184  0.6803
13984TIP3    H163443   4.932   2.125   6.249 -0.9791  0.3219  1.0917
13984TIP3    H263444   4.876   2.015   6.161  0.1881  0.2556  0.4013
13985TIP3   OH263445   2.494   2.651   5.573  0.2107  0.1964  0.2726
13985TIP3    H163446   2.500   2.588   5.646  0.3382  0.7903  0.7816
13985TIP3    H263447   2.584   2.662   5.543  0.0272 -0.9331 -0.7520
13986TIP3   OH263448   0.663   2.923  12.209 -0.4762 -0.2158  0.1019
13986TIP3    H163449   0.736   2.940  12.268  0.6929  0.1414 -1.3668
13986TIP3    H263450   0.585   2.949  12.258  0.4472  0.1359  1.4315
13987TIP3   OH263451   4.773   1.091   0.723  0.2651  0.0265 -0.2737
13987TIP3    H163452   4.771   1.138   0.640  0.6135 -1.0424 -0.9130
13987TIP3    H263453   4.863   1.059   0.731 -0.0742 -0.9266 -0.1082
13988TIP3   OH263454   1.109   0.791  14.751 -0.2019 -0.5893  0.0092
13988TIP3    H163455   1.113   0.869  14.696  0.7031 -1.2832 -0.9456
13988TIP3    H263456   1.200   0.761  14.758 -0.6289 -2.0840 -0.4273
13989TIP3   OH263457   5.396   6.143   1.501  0.1163  0.6076 -0.0381
13989TIP3    H163458   5.476   6.194   1.487  1.2090 -1.3538 -1.3570
13989TIP3    H263459   5.334   6.178   1.436  0.6060  0.7726 -0.4229
13990TIP3   OH263460   6.050   1.572  17.155 -0.2454  0.1220  0.0545
13990TIP3    H163461   6.109   1.603  17.086 -0.7062 -1.5638 -1.1754
13990TIP3    H263462   6.075   1.622  17.233  1.0811  1.2536 -1.0464
13991TIP3   OH263463   2.337   4.216  16.554 -0.5098 -0.3150 -0.2068
13991TIP3    H163464   2.250   4.209  16.592 -1.4327 -0.1168 -2.1703
13991TIP3    H263465   2.322   4.225  16.460  1.5203  2.2635 -0.4081
13992TIP3   OH263466   2.118   0.310   5.255  0.4059  0.0838  0.2975
13992TIP3    H163467   2.165   0.389   5.227 -1.2950  1.2821  0.6269
13992TIP3    H263468   2.041   0.307   5.197 -1.1835  0.4647  2.2899
13993TIP3   OH263469   2.851   2.124   2.786  1.0179  0.6313 -0.3208
13993TIP3    H163470   2.914   2.104   2.717  1.0033 -1.7568  0.2694
13993TIP3    H263471   2.901   2.119   2.867  0.2015 -1.1219  0.1445
13994TIP3   OH263472   5.376   3.261   2.201  0.4670  0.3411 -0.1616
13994TIP3    H163473   5.420   3.177   2.186  1.8449  1.2417 -1.4176
13994TIP3    H263474   5.396   3.313   2.124 -0.2276  1.8947  0.6547
13995TIP3   OH263475   4.408   4.065  15.934 -0.0372 -1.0284  0.4882
13995TIP3    H163476   4.500   4.084  15.915 -0.1765 -1.6779 -0.9901
13995TIP3    H263477   4.385   4.126  16.004  0.5231  1.7508 -1.5438
13996TIP3   OH263478   1.289   6.718   5.125 -0.0557 -0.0595 -0.0804
13996TIP3    H163479   1.308   6.719   5.219 -0.6812  1.3667  0.0461
13996TIP3    H263480   1.238   6.638   5.112 -1.3547  0.5318  1.0990
13997TIP3   OH263481   3.016   1.784   6.314 -0.2982 -0.0538  0.7070
13997TIP3    H163482   3.032   1.744   6.399 -1.6753 -0.9707  0.5581
13997TIP3    H263483   3.019   1.712   6.252  0.7656  0.6132 -0.0679
13998TIP3   OH263484   4.283   0.621  10.656 -0.2176 -0.3275 -0.0685
13998TIP3    H163485   4.353   0.664  10.704 -0.3898  0.4072 -0.4667
13998TIP3    H263486   4.202   0.661  10.689 -0.3816 -0.3634 -0.4225
13999TIP3   OH263487   1.189   3.833  12.260 -0.0394  0.3700 -0.3964
13999TIP3    H163488   1.134   3.908  12.236 -1.4676 -0.5367 -0.0783
13999TIP3    H263489   1.131   3.757  12.253  0.8873 -0.5075  0.9442
14000TIP3   OH263490   2.832   1.745  12.763  0.3276  0.6492  0.4125
14000TIP3    H163491   2.916   1.790  12.770 -0.1251  1.5079  0.5022
14000TIP3    H263492   2.789   1.763  12.847 -0.2852  0.9177  0.0427
14001TIP3   OH263493   5.088   6.309  14.375 -0.6944  0.4848 -0.0066
14001TIP3    H163494   5.140   6.345  14.447  0.5121 -0.5801 -0.3322
14001TIP3    H263495   5.075   6.383  14.316  0.0405  0.8715  0.3089
14002TIP3   OH263496   0.066   2.521  11.698  0.1939  0.1623  0.4794
14002TIP3    H163497   0.074   2.444  11.755  2.1047 -1.5175 -1.7976
14002TIP3    H263498  -0.026   2.521  11.670  0.3390 -1.9514 -0.1855
14003TIP3   OH263499   1.925   3.083  13.773 -0.1999 -0.3681  0.8273
14003TIP3    H163500   1.907   3.028  13.849 -1.3408 -1.8967 -0.4990
14003TIP3    H263501   1.855   3.063  13.711 -0.6669  2.5745  0.2318
14004TIP3   OH263502   5.212   4.353   2.596 -0.6568  0.2626  0.3304
14004TIP3    H163503   5.136   4.370   2.540 -0.1200 -0.9597 -0.8415
14004TIP3    H263504   5.283   4.336   2.534  0.3828  0.5834  1.4099
14005TIP3   OH263505   3.360   3.875  13.578 -0.2891 -0.6734 -1.0164
14005TIP3    H163506   3.302   3.864  13.653 -1.0556  1.0927 -1.2952
14005TIP3    H263507   3.402   3.790  13.567 -0.7980 -1.2025  0.8696
14006TIP3   OH263508   4.506   6.097  10.475  0.1310 -0.0238 -0.2304
14006TIP3    H163509   4.446   6.171  10.468  1.2915  0.8309 -1.6189
14006TIP3    H263510   4.593   6.136  10.474  0.7696 -1.4023 -0.9721
14007TIP3   OH263511   3.090   0.246  15.340  0.0172  0.3732 -0.3474
14007TIP3    H163512   3.125   0.334  15.357  0.2629  0.5153 -1.5045
14007TIP3    H263513   3.042   0.224  15.420  0.4523  1.3113  0.1941
14008TIP3   OH263514   6.465   1.055  12.459 -0.3603 -0.4671  0.3909
14008TIP3    H163515   6.535   1.084  12.518 -1.5962 -0.0398  1.6898
14008TIP3    H263516   6.479   0.961  12.450  1.2346 -0.1750 -0.5534
14009TIP3   OH263517   6.694   2.329   1.534 -0.1705  0.0166 -0.1303
14009TIP3    H163518   6.691   2.423   1.516 -0.2018 -0.1627 -1.1121
14009TIP3    H263519   6.722   2.290   1.452  0.0206 -0.8258  0.3255
14010TIP3   OH263520   2.373   1.265  10.485  0.2323 -0.0717 -0.0884
14010TIP3    H163521   2.462   1.264  10.449 -0.2889 -0.3117 -1.4478
14010TIP3    H263522   2.361   1.176  10.518 -0.7791 -1.3051 -3.3824
14011TIP3   OH263523   5.596   4.554  15.210  0.4763 -0.3501  0.3620
14011TIP3    H163524   5.548   4.607  15.274  0.2231 -0.4880  0.2878
14011TIP3    H263525   5.679   4.534  15.253  0.7162  0.4009  0.2540
14012TIP3   OH263526   4.557   1.585  11.410 -0.5066 -0.0811  0.0894
14012TIP3    H163527   4.527   1.494  11.413  0.1321 -0.2911  0.4220
14012TIP3    H263528   4.501   1.627  11.345 -1.9218 -0.2883  1.1392
14013TIP3   OH263529   1.452   3.766   4.105 -0.4480  0.2365  0.1567
14013TIP3    H163530   1.414   3.743   4.020 -0.2551 -0.2604  0.1989
14013TIP3    H263531   1.546   3.751   4.094 -0.4723 -0.2709  0.5888
14014TIP3   OH263532   4.671   3.603   0.050  0.3163  0.1677  0.4011
14014TIP3    H163533   4.576   3.612   0.058 -0.1240 -1.4387 -1.9603
14014TIP3    H263534   4.695   3.661  -0.022  0.4825 -2.1058 -1.4748
14015TIP3   OH263535   1.307   2.034  16.878  0.2635 -0.6324 -0.0812
14015TIP3    H163536   1.293   2.078  16.794  1.3854 -2.1305 -1.1148
14015TIP3    H263537   1.276   1.945  16.863  0.8006 -1.0096  0.9826
14016TIP3   OH263538   2.614   1.481  13.185 -0.2182 -0.0873 -0.5490
14016TIP3    H163539   2.703   1.446  13.177 -0.3699 -0.2891 -1.5746
14016TIP3    H263540   2.588   1.499  13.094 -2.2144 -2.5981 -0.5843
14017TIP3   OH263541   5.013   6.058  14.604  0.3113 -0.2683  0.0151
14017TIP3    H163542   5.009   6.096  14.516  1.4554 -1.1991 -0.4642
14017TIP3    H263543   4.923   6.032  14.623  0.2395 -1.1265 -1.3830
14018TIP3   OH263544   1.040   0.206  10.182 -0.3190 -0.0997 -0.1763
14018TIP3    H163545   1.011   0.259  10.108 -1.8735 -2.0759 -1.0695
14018TIP3    H263546   1.135   0.219  10.185 -0.2336  0.1260 -2.4475
14019TIP3   OH263547   1.177   5.760   1.678 -0.4343  0.2164 -0.2823
14019TIP3    H163548   1.247   5.804   1.725 -1.2407 -0.1250  1.2826
14019TIP3    H263549   1.189   5.667   1.698 -0.5838  0.0229 -1.0515
14020TIP3   OH263550   5.067   5.405  14.818  0.3299 -0.1717  0.1622
14020TIP3    H163551   5.047   5.497  14.838 -0.0630 -0.3299  0.5153
14020TIP3    H263552   5.163   5.402  14.813  0.2912  0.9055 -3.0012
14021TIP3   OH263553   4.524   4.151   5.442  0.1299  0.0133  0.2999
14021TIP3    H163554   4.446   4.200   5.418 -0.1660  0.8043  2.5969
14021TIP3    H263555   4.580   4.215   5.486  0.8807 -1.1163  1.0429
14022TIP3   OH263556   5.343   4.770  17.054  0.0611  0.0309 -0.1253
14022TIP3    H163557   5.326   4.858  17.089  1.5493 -0.0527  0.8950
14022TIP3    H263558   5.424   4.779  17.004 -0.5200 -0.4829 -1.1961
14023TIP3   OH263559   1.760   5.026  16.248 -0.7294 -0.8286  0.4797
14023TIP3    H163560   1.838   4.977  16.273 -0.7748 -1.6352 -0.8804
14023TIP3    H263561   1.784   5.118  16.261  0.1667 -1.1047  0.8167
14024TIP3   OH263562   4.377   4.002  14.097 -0.1253 -0.3755 -0.7520
14024TIP3    H163563   4.315   3.956  14.154 -0.4726  0.5481 -0.3677
14024TIP3    H263564   4.463   3.977  14.130 -0.3115 -0.7075 -0.5089
14025TIP3   OH263565   4.102   2.661   1.213  0.3944 -0.1594  0.1893
14025TIP3    H163566   4.022   2.702   1.180  1.6612  0.3173 -2.5147
14025TIP3    H263567   4.098   2.571   1.181 -0.3897 -1.0421  2.5735
14026TIP3   OH263568   3.555   4.814  13.127  0.2427  0.2508 -0.0562
14026TIP3    H163569   3.557   4.731  13.078 -0.7117  0.5361 -0.5910
14026TIP3    H263570   3.464   4.842  13.124  0.6997  1.7937 -0.6761
14027TIP3   OH263571   4.806   6.412  12.282 -0.0532  0.3385 -0.7483
14027TIP3    H163572   4.765   6.493  12.314 -0.4990  0.2255 -1.0202
14027TIP3    H263573   4.747   6.342  12.310  0.6013  0.0561 -0.0624
14028TIP3   OH263574   6.297   0.601  15.864 -0.1634 -0.4146  0.1781
14028TIP3    H163575   6.296   0.696  15.864  0.7655 -0.3931  0.3606
14028TIP3    H263576   6.295   0.576  15.771 -1.9668 -0.2733  0.1388
14029TIP3   OH263577   4.231   3.579  14.142 -0.1160  0.5682 -0.6458
14029TIP3    H163578   4.252   3.590  14.049 -0.5391  1.6652 -0.6244
14029TIP3    H263579   4.288   3.642  14.187  0.7421 -0.5925 -0.0680
14030TIP3   OH263580   0.972   0.692  15.166  0.0703 -0.2998 -0.1457
14030TIP3    H163581   0.885   0.703  15.203 -0.0810  0.3504 -0.6634
14030TIP3    H263582   0.976   0.757  15.095  1.0237 -0.2205 -0.0348
14031TIP3   OH263583   1.534   2.809   3.646 -0.7700 -0.1052  0.3235
14031TIP3    H163584   1.622   2.771   3.643 -0.6103  0.2470  0.5159
14031TIP3    H263585   1.501   2.786   3.733 -0.7097  0.1050  0.4044
14032TIP3   OH263586   1.338   4.658  14.704 -0.1714 -0.1301  0.0683
14032TIP3    H163587   1.251   4.690  14.728  0.1436  0.0276  1.0455
14032TIP3    H263588   1.323   4.604  14.627 -1.1053  0.0832  0.0903
14033TIP3   OH263589   1.932   1.519   3.429 -0.4289  0.0538 -0.3108
14033TIP3    H163590   1.926   1.562   3.343 -0.4338  0.5021 -0.0902
14033TIP3    H263591   1.850   1.470   3.437 -0.5038  0.1463 -0.4915
14034TIP3   OH263592   6.713   3.225   0.049  0.0154  0.6596  0.5388
14034TIP3    H163593   6.746   3.152   0.102 -0.2033 -0.4854 -0.8362
14034TIP3    H263594   6.652   3.184  -0.012 -1.0219  2.1835  0.5002
14035TIP3   OH263595   5.630   5.884   0.664 -0.2765  0.4440  0.4487
14035TIP3    H163596   5.670   5.912   0.746  1.7064 -0.7914 -0.0194
14035TIP3    H263597   5.576   5.809   0.687 -0.0322  0.3392  0.6857
14036TIP3   OH263598   2.012   3.235   1.001  0.2311 -0.1678 -0.0999
14036TIP3    H163599   1.919   3.219   0.981  0.4610 -1.8407  0.0701
14036TIP3    H263600   2.017   3.229   1.096  0.7435 -1.5194 -0.1957
14037TIP3   OH263601   4.874   1.473   2.843 -0.0357  0.1523  0.1291
14037TIP3    H163602   4.788   1.486   2.884  0.1926  1.2788  0.2871
14037TIP3    H263603   4.932   1.533   2.890  1.1555 -1.5031  0.9051
14038TIP3   OH263604   6.278   3.994  15.462  0.2031  0.2798 -0.1358
14038TIP3    H163605   6.313   4.083  15.459  0.4422  0.1593 -2.3599
14038TIP3    H263606   6.338   3.942  15.408  0.4034 -1.4023  1.5720
14039TIP3   OH263607   5.822   1.212   1.952 -0.1791 -0.5372 -0.3683
14039TIP3    H163608   5.743   1.165   1.926 -1.6039  1.7497 -0.5148
14039TIP3    H263609   5.795   1.304   1.956  3.1338  0.7896 -3.1769
14040TIP3   OH263610   1.230   0.267   3.519  0.3095  0.6016 -0.1801
14040TIP3    H163611   1.252   0.212   3.444  1.9821  0.5287  0.3171
14040TIP3    H263612   1.290   0.238   3.588 -1.7411  0.0852  1.4699
14041TIP3   OH263613   1.563   4.733   4.028 -0.5944  0.2489  0.4983
14041TIP3    H163614   1.512   4.786   3.967 -1.2897 -0.0474  0.8189
14041TIP3    H263615   1.603   4.665   3.974 -0.3854  0.5912  0.2187
14042TIP3   OH263616   6.094   6.452   4.282 -0.2446  0.7181  0.0519
14042TIP3    H163617   6.133   6.539   4.283  1.6847 -0.0661  2.6992
14042TIP3    H263618   6.104   6.422   4.191  1.8042  2.0851 -0.2397
14043TIP3   OH263619   3.894   6.032  12.619  0.0837  0.6074  0.1820
14043TIP3    H163620   3.889   5.938  12.637 -0.2986  0.7321  0.7531
14043TIP3    H263621   3.840   6.044  12.541  0.2256  0.3383  0.0404
14044TIP3   OH263622   5.936   3.195   0.462 -0.2451 -0.0624 -0.0167
14044TIP3    H163623   5.961   3.189   0.369  0.5308  0.5924  0.1425
14044TIP3    H263624   5.913   3.287   0.475 -1.4405 -0.3708  0.1870
14045TIP3   OH263625   1.281   3.357   1.775  0.0142  0.2438 -0.0657
14045TIP3    H163626   1.258   3.275   1.819  2.1525  0.3450  1.4043
14045TIP3    H263627   1.315   3.330   1.690  2.9062 -0.7361  1.2628
14046TIP3   OH263628   0.473   2.277   6.021  0.0622 -0.0197 -0.0529
14046TIP3    H163629   0.405   2.225   6.064 -2.6345  2.1785 -1.3365
14046TIP3    H263630   0.555   2.246   6.060 -1.8993  0.2686  5.0878
14047TIP3   OH263631   3.110   1.365   2.945  0.2060 -0.4295 -0.4657
14047TIP3    H163632   3.151   1.308   3.010  0.2596 -1.4208 -1.3475
14047TIP3    H263633   3.085   1.306   2.874 -1.2188  0.4135 -0.6930
14048TIP3   OH263634   5.270   6.382   3.352 -0.5873 -0.6850 -0.3097
14048TIP3    H163635   5.190   6.357   3.398 -0.6502 -0.9367 -0.5534
14048TIP3    H263636   5.244   6.458   3.300 -0.5564 -0.4977 -0.0503
14049TIP3   OH263637   0.947   6.713  12.266  0.3909 -0.7776  0.0296
14049TIP3    H163638   0.956   6.796  12.313  1.1251 -0.7239 -0.1906
14049TIP3    H263639   0.883   6.664  12.316 -1.7723  0.7703 -1.0361
14050TIP3   OH263640   5.718   5.621   4.189  0.1037 -0.1210 -0.0595
14050TIP3    H163641   5.741   5.562   4.117 -0.8784 -0.3041 -0.2380
14050TIP3    H263642   5.798   5.671   4.205  1.1114 -1.8207  0.4158
14051TIP3   OH263643   6.280   1.272  12.560 -0.3445 -0.2213 -0.0508
14051TIP3    H163644   6.276   1.221  12.641  1.1432  0.3085  0.3831
14051TIP3    H263645   6.344   1.226  12.506  1.9266  1.7609  0.8185
14052TIP3   OH263646   4.814   5.772  16.166  0.2529 -0.7895  0.1535
14052TIP3    H163647   4.878   5.732  16.107  0.9902  2.4702 -1.4735
14052TIP3    H263648   4.816   5.865  16.144 -1.1419  0.2678  3.8150
14053TIP3   OH263649   0.591   2.402   5.617 -0.0058 -0.0576  1.0870
14053TIP3    H163650   0.578   2.452   5.698 -0.0992  0.4489  0.7645
14053TIP3    H263651   0.516   2.427   5.562  1.9381  2.5638 -0.6550
14054TIP3   OH263652   0.521   5.991   4.623  0.0521 -0.4920 -0.2508
14054TIP3    H163653   0.488   5.902   4.614 -1.0633  0.0425 -1.8216
14054TIP3    H263654   0.442   6.046   4.622  0.7921  0.5909 -0.5628
14055TIP3   OH263655   0.454   3.206   2.154  0.3274  0.3533  0.2748
14055TIP3    H163656   0.481   3.298   2.152 -1.0670  0.8634  2.1550
14055TIP3    H263657   0.524   3.162   2.201  1.5402  0.1993 -1.5838
14056TIP3   OH263658   5.541   3.690  13.287 -0.2184  0.6256  0.4087
14056TIP3    H163659   5.633   3.665  13.278 -0.4505 -0.0192 -0.3681
14056TIP3    H263660   5.493   3.620  13.242 -0.9955  1.7381 -0.5527
14057TIP3   OH263661   6.790   3.942   0.766  0.1145 -0.5216 -0.0943
14057TIP3    H163662   6.730   3.915   0.696  0.1555 -2.1687  0.4636
14057TIP3    H263663   6.739   3.933   0.846  1.0796 -2.0519  0.4030
14058TIP3   OH263664   4.842   4.839  13.139 -0.2213  0.5646  0.1251
14058TIP3    H163665   4.844   4.933  13.154 -0.7646  0.8573 -1.4237
14058TIP3    H263666   4.904   4.824  13.068 -0.2003 -0.2362  0.2969
14059TIP3   OH263667   6.428   2.587  12.797 -0.0819 -0.0267 -0.2428
14059TIP3    H163668   6.417   2.524  12.869  3.2344 -0.3818  0.1201
14059TIP3    H263669   6.418   2.673  12.839  0.4197 -0.2516  0.3561
14060TIP3   OH263670   0.511   2.957  12.443  0.3667 -0.7763 -0.3828
14060TIP3    H163671   0.424   2.979  12.410 -0.6964  0.0428  2.7002
14060TIP3    H263672   0.507   2.863  12.462  0.0225 -0.6476  0.1682
14061TIP3   OH263673   3.654   0.803  16.363  0.4684  0.3430  0.0038
14061TIP3    H163674   3.704   0.724  16.381 -0.9604 -1.5141 -3.2564
14061TIP3    H263675   3.570   0.788  16.407  0.2438  0.0913 -0.5062
14062TIP3   OH263676   4.588   0.211  15.092  0.6221  0.1614  0.2364
14062TIP3    H163677   4.500   0.249  15.094 -0.4676 -2.1606 -0.4877
14062TIP3    H263678   4.586   0.142  15.158  1.7718 -0.2003 -0.0870
14063TIP3   OH263679   4.343   2.626  14.426  0.1978  0.2111  0.3547
14063TIP3    H163680   4.390   2.544  14.441  3.1555  2.0560  2.1888
14063TIP3    H263681   4.388   2.666  14.351 -2.0992 -0.3089 -1.4350
14064TIP3   OH263682   3.607   4.826  11.712 -0.2517 -0.1216 -0.4245
14064TIP3    H163683   3.657   4.804  11.633  1.5249  1.0324  0.3141
14064TIP3    H263684   3.576   4.915  11.695  0.3625  0.2297  0.2757
14065TIP3   OH263685   5.201   6.187   3.886  0.4424  0.4477 -0.1887
14065TIP3    H163686   5.154   6.104   3.890 -1.1891  1.1382 -2.7416
14065TIP3    H263687   5.216   6.202   3.792  0.1522  3.3029  0.1275
14066TIP3   OH263688   3.440   3.396  12.842 -0.3694 -0.0943  0.3928
14066TIP3    H163689   3.360   3.350  12.868  0.0127  0.1233  2.0887
14066TIP3    H263690   3.505   3.327  12.830 -0.2775 -0.1394  1.1085
14067TIP3   OH263691   0.906   5.474  16.671  0.2176  0.2583  0.3223
14067TIP3    H163692   0.817   5.462  16.637  0.7600 -1.7804 -0.5252
14067TIP3    H263693   0.940   5.549  16.622 -1.5033  2.1295  1.8003
14068TIP3   OH263694   6.661   4.583  13.663 -0.6984  0.3243 -0.2771
14068TIP3    H163695   6.628   4.673  13.658  0.5483  0.7888 -0.6632
14068TIP3    H263696   6.586   4.529  13.639 -2.0917  1.0880  2.0234
14069TIP3   OH263697   5.068   5.859  15.703 -0.1989  0.3491 -0.0726
14069TIP3    H163698   5.079   5.953  15.690  1.5746  0.0844 -0.6824
14069TIP3    H263699   4.990   5.837  15.653  0.5527  1.1641 -1.6585
14070TIP3   OH263700   1.897   6.747  13.798 -0.4438  0.3515 -0.6689
14070TIP3    H163701   1.938   6.831  13.779 -0.2552  0.7326  1.2151
14070TIP3    H263702   1.834   6.766  13.868  0.4701 -1.2539  0.6693
14071TIP3   OH263703   1.621   3.508  14.051  0.2307 -0.2802 -0.5422
14071TIP3    H163704   1.528   3.529  14.043  0.2067 -0.3583 -0.4748
14071TIP3    H263705   1.657   3.527  13.965  0.1141 -0.4384 -0.6263
14072TIP3   OH263706   4.895   0.639   4.758  0.1836 -0.1895 -0.1092
14072TIP3    H163707   4.989   0.640   4.741  1.1144  0.4435  4.0621
14072TIP3    H263708   4.860   0.578   4.692  3.4528 -0.5588 -1.7436
14073TIP3   OH263709   0.368   3.111   4.306  0.3270  0.2913  0.4287
14073TIP3    H163710   0.432   3.058   4.258  0.2635  1.0015 -0.4718
14073TIP3    H263711   0.421   3.176   4.352  0.3138  0.3611  0.3465
14074TIP3   OH263712   1.054   4.392   4.725  0.0879 -0.1999  0.3301
14074TIP3    H163713   1.124   4.333   4.754  1.2938  0.5440 -0.9223
14074TIP3    H263714   0.982   4.334   4.702  0.0342 -0.9520  2.2541
14075TIP3   OH263715   4.469   1.451  15.178  0.0547 -0.3442  0.5769
14075TIP3    H163716   4.520   1.532  15.174  0.1655 -0.4056  0.6986
14075TIP3    H263717   4.430   1.442  15.092  1.0568 -0.8164  0.1542
14076TIP3   OH263718   4.759   5.800  11.560 -0.0806 -0.3720  0.3988
14076TIP3    H163719   4.693   5.786  11.493 -0.7458 -0.8140  1.1284
14076TIP3    H263720   4.843   5.788  11.515 -0.5156 -0.5551 -0.3676
14077TIP3   OH263721   2.637   6.259   3.356 -0.0159  0.2484  0.8155
14077TIP3    H163722   2.624   6.207   3.278 -1.4213 -1.5572  2.1608
14077TIP3    H263723   2.729   6.247   3.379 -0.2878 -1.7027  1.0699
14078TIP3   OH263724   2.868   2.636   2.034 -0.7187  0.3087  0.6811
14078TIP3    H163725   2.899   2.695   2.103 -1.0098  0.6530  0.5156
14078TIP3    H263726   2.854   2.553   2.079  0.2517  0.1975  0.8031
14079TIP3   OH263727   2.765   3.375  14.808 -0.6778  0.2124  0.0242
14079TIP3    H163728   2.786   3.302  14.751 -0.2485  0.4169 -0.0844
14079TIP3    H263729   2.698   3.424  14.760  0.6322  1.1299 -0.9436
14080TIP3   OH263730   4.158   4.828   4.889 -0.1146 -0.1731  0.0718
14080TIP3    H163731   4.183   4.785   4.970  0.7634  0.5360  0.2022
14080TIP3    H263732   4.205   4.780   4.821 -1.8181 -1.5530 -0.1875
14081TIP3   OH263733   1.562   3.601   2.766 -0.1162  0.0502 -0.5075
14081TIP3    H163734   1.490   3.646   2.809 -1.2955 -0.3281 -1.9810
14081TIP3    H263735   1.562   3.513   2.805 -0.0435  0.2428 -0.0700
14082TIP3   OH263736   6.505   1.879  15.395 -0.0537  0.0861 -0.8121
14082TIP3    H163737   6.597   1.896  15.375 -0.0913  0.1781 -0.9070
14082TIP3    H263738   6.501   1.879  15.490  0.1981 -0.7190 -0.7946
14083TIP3   OH263739   3.430   4.270   5.186 -0.0660 -0.2553 -0.0684
14083TIP3    H163740   3.478   4.242   5.264 -0.9202  0.4632  0.7519
14083TIP3    H263741   3.450   4.363   5.178  1.9948 -0.7825 -2.2077
14084TIP3   OH263742   3.186   2.453   0.704 -0.1773  0.2681 -0.1671
14084TIP3    H163743   3.157   2.366   0.675 -0.3167  0.0291  0.6362
14084TIP3    H263744   3.130   2.514   0.656 -0.9985 -0.1410  0.2468
14085TIP3   OH263745   3.945   3.484  12.558 -0.0277 -0.1401  0.3999
14085TIP3    H163746   3.931   3.441  12.474 -0.3349 -0.9110  0.8330
14085TIP3    H263747   3.858   3.485  12.600 -0.9848  4.3065 -1.0836
14086TIP3   OH263748   2.529   2.876  12.680  0.0695 -0.1068 -0.3082
14086TIP3    H163749   2.443   2.882  12.639 -0.8171  2.9355  1.7027
14086TIP3    H263750   2.546   2.782  12.686 -2.7430 -0.7807 -1.4223
14087TIP3   OH263751   1.696   6.785  14.317  0.1456  0.2756 -0.2396
14087TIP3    H163752   1.622   6.830  14.279 -0.8076 -1.5870 -0.7304
14087TIP3    H263753   1.768   6.799  14.256 -1.0260 -1.5895 -2.1773
14088TIP3   OH263754   3.221   0.373   1.585 -0.1245 -0.4183  0.5304
14088TIP3    H163755   3.311   0.369   1.554  0.2986  1.0958  1.4445
14088TIP3    H263756   3.201   0.466   1.590 -1.8530 -0.7166  0.0989
14089TIP3   OH263757   1.570   0.889   5.470  0.2245  0.0638  0.0419
14089TIP3    H163758   1.643   0.845   5.427 -0.1206  1.7561 -2.5060
14089TIP3    H263759   1.565   0.975   5.428 -1.6769  0.9696  1.8944
14090TIP3   OH263760   6.172   4.375  13.530  0.4400  0.0199 -0.1086
14090TIP3    H163761   6.091   4.367  13.580  0.7273 -0.1272  0.3384
14090TIP3    H263762   6.145   4.361  13.439  0.2847 -2.1619  0.2142
14091TIP3   OH263763   1.374   0.114  15.749  0.2830  0.0934  0.0639
14091TIP3    H163764   1.385   0.198  15.795  0.2367  0.8613 -1.2741
14091TIP3    H263765   1.362   0.139  15.658  2.5920 -1.4799 -0.7554
14092TIP3   OH263766   4.469   5.975   5.725  0.4594  0.1638  0.5591
14092TIP3    H163767   4.421   5.893   5.731 -0.2659  0.5614  0.4127
14092TIP3    H263768   4.508   5.974   5.638 -1.1434  0.7946 -0.2163
14093TIP3   OH263769   0.407   4.318  11.366 -0.0305  0.4263  0.1070
14093TIP3    H163770   0.352   4.363  11.302 -0.4651 -0.7359 -0.3665
14093TIP3    H263771   0.480   4.378  11.382 -0.5101  1.2156 -0.6142
14094TIP3   OH263772   3.121   3.920   6.201 -0.2292  0.4755 -0.0856
14094TIP3    H163773   3.081   4.007   6.207 -1.9995 -0.0916 -2.3758
14094TIP3    H263774   3.116   3.897   6.109  4.0960 -0.3665 -0.3329
14095TIP3   OH263775   4.471   3.125  14.357  0.3884  0.1167 -0.2074
14095TIP3    H163776   4.396   3.066  14.363  0.2770  0.3795  1.5006
14095TIP3    H263777   4.433   3.210  14.334 -0.0395  0.5153  1.7540
14096TIP3   OH263778   0.642   6.379  11.978  0.0063  0.3212 -0.2437
14096TIP3    H163779   0.549   6.374  11.998 -0.6590  1.5058 -2.5782
14096TIP3    H263780   0.662   6.473  11.981  0.7178  0.2221 -1.2052
14097TIP3   OH263781   1.196   4.320  15.290 -0.1438  0.5391  0.2411
14097TIP3    H163782   1.160   4.395  15.338  1.1956  2.1290 -1.0889
14097TIP3    H263783   1.147   4.318  15.208  0.9141  1.0389 -0.4294
14098TIP3   OH263784   6.232   0.163  13.927 -0.2253 -0.2700  0.8391
14098TIP3    H163785   6.265   0.236  13.874 -1.3039 -0.1128  0.3594
14098TIP3    H263786   6.179   0.205  13.995 -1.8393 -0.6214 -0.1422
14099TIP3   OH263787   1.353   1.856   3.879 -0.0116 -0.5371  0.2826
14099TIP3    H163788   1.303   1.865   3.798  0.7723 -1.3234 -0.3124
14099TIP3    H263789   1.320   1.776   3.920 -0.6590  0.0504  0.9427
14100TIP3   OH263790   0.965   6.457   1.658  0.0106 -0.7878  0.2007
14100TIP3    H163791   0.908   6.453   1.735 -1.6962 -0.3892 -0.9862
14100TIP3    H263792   0.967   6.550   1.635 -2.4348 -1.2158 -2.2463
14101TIP3   OH263793   2.539   0.119   5.976 -0.1447  0.1172  0.2348
14101TIP3    H163794   2.563   0.130   5.884  0.8674  0.0368  0.4703
14101TIP3    H263795   2.592   0.184   6.022  0.1855 -0.5804  0.8589
14102TIP3   OH263796   6.222   4.116   1.011 -0.8300  0.1010  0.1453
14102TIP3    H163797   6.241   4.029   1.045  0.3469 -0.0664 -0.8513
14102TIP3    H263798   6.133   4.110   0.976 -0.8053 -0.6673  0.1955
14103TIP3   OH263799   1.322   5.870   3.128  0.1072 -0.2404 -0.7671
14103TIP3    H163800   1.341   5.950   3.079  2.3447 -1.7768 -2.6095
14103TIP3    H263801   1.252   5.895   3.189  0.6698  3.0551 -1.3113
14104TIP3   OH263802   0.136   6.141  13.319  0.0734  0.0925 -0.6805
14104TIP3    H163803   0.144   6.046  13.319 -0.4102  0.0418 -0.1521
14104TIP3    H263804   0.109   6.163  13.230  3.8219  0.1155 -1.9845
14105TIP3   OH263805   3.819   3.177  14.316  0.3116  0.2664 -0.1266
14105TIP3    H163806   3.735   3.219  14.334  1.5549  2.9964 -0.3039
14105TIP3    H263807   3.860   3.167  14.402  0.1663 -0.3296 -0.1206
14106TIP3   OH263808   5.347   3.680   1.994 -0.0145 -0.5633  0.3645
14106TIP3    H163809   5.299   3.652   2.071 -1.0104  0.2714  0.0728
14106TIP3    H263810   5.296   3.647   1.920  0.8842 -1.2858  0.0533
14107TIP3   OH263811   0.886   0.837   2.273  0.1557  0.1770 -0.4087
14107TIP3    H163812   0.826   0.911   2.275  0.8894  0.8049  1.9054
14107TIP3    H263813   0.831   0.760   2.260 -1.0911  0.7984  0.9806
14108TIP3   OH263814   2.253   0.296  16.784  0.3040  0.3409  0.1904
14108TIP3    H163815   2.208   0.337  16.710  0.8475 -0.1343 -0.4196
14108TIP3    H263816   2.343   0.330  16.778  0.6179 -0.5018  0.0058
14109TIP3   OH263817   0.246   6.475  16.179  0.4013  0.2605 -0.2395
14109TIP3    H163818   0.272   6.559  16.216  0.8203  0.6683 -1.3908
14109TIP3    H263819   0.217   6.496  16.090 -0.8162 -0.6380 -0.0835
14110TIP3   OH263820   3.321   6.762  15.334  0.3465  0.1533 -0.3953
14110TIP3    H163821   3.390   6.730  15.392  1.3681 -0.0999 -1.6829
14110TIP3    H263822   3.246   6.779  15.391  1.3974  0.2053  1.0123
14111TIP3   OH263823   1.911   0.573   0.136 -0.0838  0.8243 -0.2838
14111TIP3    H163824   1.822   0.553   0.167  0.3297  0.2800  0.5944
14111TIP3    H263825   1.928   0.661   0.169  0.3355  0.2674  1.0795
14112TIP3   OH263826   4.178   5.035  15.999  0.3581  0.2678  0.2208
14112TIP3    H163827   4.231   5.096  15.948  1.6193  0.1304  1.3361
14112TIP3    H263828   4.117   5.091  16.046 -0.6603  0.4158 -1.1900
14113TIP3   OH263829   4.805   3.093   0.840 -0.5897  0.1490 -0.0388
14113TIP3    H163830   4.753   3.018   0.869  0.0483  0.1473  1.1817
14113TIP3    H263831   4.741   3.161   0.822 -1.2551 -0.9673 -2.1489
14114TIP3   OH263832   2.170   5.498   5.533  0.0775  0.1189 -0.2557
14114TIP3    H163833   2.243   5.476   5.474  1.7931  1.9516  1.0412
14114TIP3    H263834   2.147   5.588   5.509  0.7253  0.8510  1.7285
14115TIP3   OH263835   5.714   3.231   5.014 -0.6373  0.0749 -0.1829
14115TIP3    H163836   5.683   3.165   5.074  2.7379 -1.9523 -0.4210
14115TIP3    H263837   5.692   3.315   5.056 -2.0444 -1.2014  1.7682
14116TIP3   OH263838   1.735   0.341   5.274  0.7360 -0.0372 -0.0009
14116TIP3    H163839   1.791   0.347   5.197  1.2820  0.7744  0.4393
14116TIP3    H263840   1.782   0.390   5.342  0.0694 -0.3765  0.7306
14117TIP3   OH263841   6.303   5.535  13.027 -0.3600 -0.3046  0.4884
14117TIP3    H163842   6.296   5.451  13.073  2.3006 -0.1803  1.2570
14117TIP3    H263843   6.335   5.596  13.094  0.7882  0.5647 -0.8059
14118TIP3   OH263844   1.732   2.341   3.237  0.0161  0.2459 -0.3793
14118TIP3    H163845   1.772   2.291   3.166  2.3589  1.2088  0.1509
14118TIP3    H263846   1.713   2.276   3.305  1.3262 -0.2054 -0.4135
14119TIP3   OH263847   6.025   6.238  16.856  0.1942  0.6101 -0.1028
14119TIP3    H163848   6.034   6.158  16.805  2.0754  1.4242 -1.1478
14119TIP3    H263849   6.033   6.210  16.947 -0.2733 -0.5049 -0.3960
14120TIP3   OH263850   6.501   6.144   3.389  0.7221  0.2186  0.0531
14120TIP3    H163851   6.435   6.091   3.433  0.8164 -0.5761 -0.7308
14120TIP3    H263852   6.569   6.082   3.365  1.1070  0.7989 -0.3751
14121TIP3   OH263853   3.308   5.464  12.672  0.1218 -0.1016  0.2476
14121TIP3    H163854   3.385   5.514  12.697  0.2140  0.4389 -1.0379
14121TIP3    H263855   3.304   5.393  12.736  0.1168  1.3822  1.9722
14122TIP3   OH263856   1.504   5.799   5.863 -0.4311 -0.2642  0.1575
14122TIP3    H163857   1.572   5.867   5.864 -0.8729  0.1938 -0.0439
14122TIP3    H263858   1.429   5.841   5.820 -1.2981 -0.3084  1.5492
14123TIP3   OH263859   1.875   3.662   4.998 -0.1246  0.2066  0.3884
14123TIP3    H163860   1.829   3.579   4.987 -0.3901  0.4327 -0.2276
14123TIP3    H263861   1.947   3.642   5.059 -0.9144 -0.1936  1.2100
14124TIP3   OH263862   6.391   6.727   0.511 -0.7195  0.0332 -0.4631
14124TIP3    H163863   6.459   6.667   0.483  0.3461  0.4906  1.0094
14124TIP3    H263864   6.372   6.702   0.602 -0.8926  1.3050 -0.1197
14125TIP3   OH263865   1.258   2.438   0.319 -0.4058 -0.4147 -0.3302
14125TIP3    H163866   1.320   2.367   0.304 -0.1234 -0.6635  1.6622
14125TIP3    H263867   1.189   2.398   0.372 -1.1834  0.3723 -0.7296
14126TIP3   OH263868   3.280   5.499  11.534 -0.5100  0.2346  0.3620
14126TIP3    H163869   3.211   5.438  11.505 -0.0855 -0.2039  0.2645
14126TIP3    H263870   3.359   5.467  11.492 -0.4713  1.5332 -0.6101
14127TIP3   OH263871   0.952   0.462   4.206  0.0006  0.2417 -0.1001
14127TIP3    H163872   0.905   0.545   4.196 -3.3675 -1.3946  0.7627
14127TIP3    H263873   1.018   0.480   4.273 -1.0411  2.0877  0.5156
14128TIP3   OH263874   2.937   3.328  11.017  0.3570 -0.1259 -0.2293
14128TIP3    H163875   2.923   3.398  10.953  0.1203 -0.1758 -0.2336
14128TIP3    H263876   3.027   3.340  11.047  0.0968  0.6115  0.2813
14129TIP3   OH263877   3.147   4.290   5.424  0.0180  0.1573 -0.0576
14129TIP3    H163878   3.093   4.369   5.427 -1.9129 -1.0038 -1.7259
14129TIP3    H263879   3.147   4.257   5.514 -0.3979  1.2413  0.3553
14130TIP3   OH263880   4.423   2.740  13.547 -0.0007 -0.1927 -0.1445
14130TIP3    H163881   4.455   2.829  13.561  4.6262 -1.6438  0.1804
14130TIP3    H263882   4.385   2.715  13.631  0.4971  0.8214  0.3964
14131TIP3   OH263883   2.129   6.074  15.223 -0.2490 -0.6546  0.1575
14131TIP3    H163884   2.082   6.121  15.154  1.2897  2.0146  0.7644
14131TIP3    H263885   2.069   6.074  15.297 -1.2323 -1.9916 -0.5849
14132TIP3   OH263886   1.719   2.960   6.419 -0.2129  0.0454 -0.0271
14132TIP3    H163887   1.754   3.036   6.466  2.1841 -0.8698 -0.1941
14132TIP3    H263888   1.647   2.928   6.475 -0.1499  1.4202  0.8848
14133TIP3   OH263889   3.778   3.600   4.961 -0.0176 -0.4067 -0.3218
14133TIP3    H163890   3.788   3.660   5.035  2.3299 -1.0839 -0.0256
14133TIP3    H263891   3.686   3.573   4.965 -0.5529  1.4380  0.8561
14134TIP3   OH263892   4.517   4.897   0.093 -0.0122  0.1887 -0.2760
14134TIP3    H163893   4.469   4.979   0.082 -0.6522 -0.4619 -3.1095
14134TIP3    H263894   4.453   4.837   0.130 -0.3333  0.2718 -0.6902
14135TIP3   OH263895   3.983   5.036  10.845  0.2396  0.4829 -0.1846
14135TIP3    H163896   3.932   4.958  10.826  1.4932 -0.2729 -0.5255
14135TIP3    H263897   4.018   5.021  10.933 -1.0369  1.5261  0.5521
14136TIP3   OH263898   0.527   1.620  15.482 -0.3835 -0.1001  0.0088
14136TIP3    H163899   0.608   1.574  15.462  0.4679  1.0765  0.6019
14136TIP3    H263900   0.486   1.635  15.397  0.1108 -0.5641 -0.3126
14137TIP3   OH263901   2.920   2.553   0.999 -0.1120  0.2085  0.2715
14137TIP3    H163902   2.926   2.476   0.942  1.4891 -0.6369  1.4781
14137TIP3    H263903   2.905   2.516   1.087 -2.2394  1.4598  0.4973
14138TIP3   OH263904   6.233   0.691  15.179 -0.3123 -0.5868  0.2754
14138TIP3    H163905   6.255   0.767  15.125 -1.0044 -0.4604  0.1664
14138TIP3    H263906   6.256   0.718  15.268  1.0600 -0.8840  0.0331
14139TIP3   OH263907   3.450   0.479   2.314  0.2032  0.1184  0.1736
14139TIP3    H163908   3.525   0.526   2.349  0.2109 -1.1231  1.9593
14139TIP3    H263909   3.374   0.530   2.341  0.3313  0.6667 -0.4823
14140TIP3   OH263910   0.481   1.806  14.264  0.5605  0.4880 -0.2313
14140TIP3    H163911   0.442   1.892  14.250  1.0460  1.2440  2.4043
14140TIP3    H263912   0.568   1.825  14.299  0.3585 -1.0253  1.2072
14141TIP3   OH263913   4.601   0.090   2.200  0.1585 -1.0350 -0.5027
14141TIP3    H163914   4.528   0.117   2.144 -0.4717 -1.7162 -0.0263
14141TIP3    H263915   4.562   0.082   2.287  0.9299 -0.8620 -0.1360
14142TIP3   OH263916   0.702   3.765   4.383 -0.4356  0.2308  0.4412
14142TIP3    H163917   0.613   3.755   4.415  0.2249 -0.5257  2.2183
14142TIP3    H263918   0.757   3.757   4.462  1.2258  0.0805 -0.6654
14143TIP3   OH263919   5.776   2.864  13.904 -0.1209  0.1062 -0.0563
14143TIP3    H163920   5.744   2.927  13.969 -2.8364 -0.2392 -0.9167
14143TIP3    H263921   5.721   2.880  13.827  0.4865 -1.9604 -0.9804
14144TIP3   OH263922   0.641   4.278  14.110 -0.2410 -0.5519  0.4164
14144TIP3    H163923   0.629   4.206  14.048 -1.7762 -0.0922  0.1591
14144TIP3    H263924   0.696   4.240  14.179 -1.0658 -2.0079  0.3258
14145TIP3   OH263925   4.865   6.769   4.349  0.1025 -0.4905 -0.1787
14145TIP3    H163926   4.774   6.781   4.323  0.1404  1.2640  0.3227
14145TIP3    H263927   4.909   6.849   4.319  1.3734 -1.0923  0.0135
14146TIP3   OH263928   0.887   6.681   0.681  0.2396 -0.3435 -0.6152
14146TIP3    H163929   0.849   6.763   0.650  0.1387 -0.4682 -0.8284
14146TIP3    H263930   0.883   6.687   0.776 -2.7365 -1.4307 -0.5615
14147TIP3   OH263931   0.062   1.018   0.214 -0.5620 -0.6633  0.3230
14147TIP3    H163932   0.115   1.011   0.293 -2.4440 -1.6826  1.5557
14147TIP3    H263933  -0.004   1.084   0.235  0.7009  1.3296 -1.5425
14148TIP3   OH263934   1.533   4.907   4.571 -0.2540  0.0610  0.1148
14148TIP3    H163935   1.486   4.972   4.518  0.0203  0.2637  0.1136
14148TIP3    H263936   1.619   4.947   4.586 -0.5889  0.3524  1.3631
14149TIP3   OH263937   5.639   2.914   1.703 -0.6775 -0.0233  0.0273
14149TIP3    H163938   5.563   2.964   1.734 -0.4434  0.9111 -0.8624
14149TIP3    H263939   5.715   2.960   1.739 -0.3621  1.4600 -2.3179
14150TIP3   OH263940   3.886   4.917   1.611 -0.7620  0.1404 -0.3132
14150TIP3    H163941   3.882   4.984   1.680  0.9846  0.4196 -0.4482
14150TIP3    H263942   3.942   4.848   1.647  0.8315  0.6452 -1.7120
14151TIP3   OH263943   2.042   3.863  14.399  0.1303 -0.0501  0.4391
14151TIP3    H163944   2.094   3.859  14.319 -0.2680  0.3777  0.1475
14151TIP3    H263945   2.051   3.954  14.429 -2.2087  0.7151 -0.8656
14152TIP3   OH263946   6.024   5.758  13.079  0.4926 -0.6460 -0.0780
14152TIP3    H163947   6.064   5.703  13.147  0.7701  0.2160  0.4795
14152TIP3    H263948   5.933   5.730  13.075  0.5499 -0.9114  0.4366
14153TIP3   OH263949   4.514   3.898   1.984  0.0820 -0.0735 -0.3244
14153TIP3    H163950   4.441   3.931   1.932  0.0087 -0.1675 -0.2809
14153TIP3    H263951   4.567   3.976   2.003  0.5046 -0.1479 -1.1567
14154TIP3   OH263952   5.843   0.537   1.650 -0.2594 -0.0614  0.2721
14154TIP3    H163953   5.755   0.569   1.667 -0.0320 -0.1787  1.8428
14154TIP3    H263954   5.858   0.471   1.718  0.2131 -1.7463 -1.3519
14155TIP3   OH263955   0.947   6.734   1.624 -0.2341  0.2453 -0.0848
14155TIP3    H163956   1.016   6.759   1.563  1.7353 -1.9606  1.0835
14155TIP3    H263957   0.867   6.733   1.571  1.5006 -2.5353 -2.9856
14156TIP3   OH263958   3.521   0.812   4.064  0.5252 -0.5766  0.2922
14156TIP3    H163959   3.590   0.776   4.008  1.1705 -0.8582  1.2379
14156TIP3    H263960   3.452   0.747   4.063  2.0256 -2.3909  2.6682
14157TIP3   OH263961   4.928   5.132  14.728 -0.1199  0.0691 -0.5034
14157TIP3    H163962   4.959   5.047  14.761 -1.3739  0.2531  1.2807
14157TIP3    H263963   4.874   5.110  14.652 -1.6497 -0.9236  0.7952
14158TIP3   OH263964   3.064   1.333   4.805  0.1701  0.3283 -0.4757
14158TIP3    H163965   3.004   1.262   4.780  0.8407 -0.1436 -0.7591
14158TIP3    H263966   3.098   1.306   4.890  0.5943  0.1971 -0.6855
14159TIP3   OH263967   3.476   4.611   5.147  0.3028 -0.3623  0.1458
14159TIP3    H163968   3.541   4.660   5.096  0.0235 -0.7694 -0.5980
14159TIP3    H263969   3.417   4.573   5.083 -0.2344 -0.6336  0.7838
14160TIP3   OH263970   3.901   0.068  16.907 -0.6665 -0.5518 -0.4149
14160TIP3    H163971   3.880   0.032  16.993 -0.8650 -1.0534 -0.6674
14160TIP3    H263972   3.878  -0.002  16.845  2.9935 -1.7728 -0.6591
14161TIP3   OH263973   3.450   0.147  16.467 -0.0786  0.6361 -0.5935
14161TIP3    H163974   3.533   0.131  16.512 -0.8094  0.0801  0.5773
14161TIP3    H263975   3.452   0.088  16.392 -0.1203 -0.6071  0.3529
14162TIP3   OH263976   6.459   2.099  16.893  0.2960  0.2586 -0.1402
14162TIP3    H163977   6.444   2.185  16.932 -0.3286 -0.0083  0.2154
14162TIP3    H263978   6.384   2.046  16.920  0.7488 -0.4456 -0.2263
14163TIP3   OH263979   6.504   5.884   0.028  0.5869  0.2319  0.5480
14163TIP3    H163980   6.482   5.832   0.105  0.0284  1.7378  1.4509
14163TIP3    H263981   6.430   5.871  -0.032 -0.1194  0.8978  1.2571
14164TIP3   OH263982   3.070   6.224   2.732  0.4042 -0.9979 -0.5052
14164TIP3    H163983   3.115   6.159   2.785  0.2126 -0.9736 -0.3151
14164TIP3    H263984   3.129   6.300   2.731  0.1246 -0.7666  0.1932
14165TIP3   OH263985   3.468   0.457  17.137  0.5006  0.7432 -0.0279
14165TIP3    H163986   3.418   0.379  17.112 -0.4051  0.4680  2.3311
14165TIP3    H263987   3.508   0.433  17.221  0.3809  2.7125  0.6449
14166TIP3   OH263988   4.379   0.125  13.054 -0.8871  0.8382 -0.1322
14166TIP3    H163989   4.459   0.151  13.099 -0.6008 -0.4076  0.1257
14166TIP3    H263990   4.355   0.201  13.001  0.7416  1.0556 -0.6022
14167TIP3   OH263991   6.663   4.959  15.731 -0.7974  0.3382 -0.2215
14167TIP3    H163992   6.655   4.870  15.698 -0.2681  0.2667 -0.1692
14167TIP3    H263993   6.585   5.004  15.698 -1.7601 -0.4715  0.8576
14168TIP3   OH263994   3.250   5.916   0.317 -0.3321 -0.7270  0.3300
14168TIP3    H163995   3.286   5.828   0.325  0.6467 -0.6545 -2.3252
14168TIP3    H263996   3.206   5.932   0.401  0.9022 -3.0550  1.5042
14169TIP3   OH263997   2.669   3.276   5.992  0.3592 -0.4989 -0.4323
14169TIP3    H163998   2.730   3.277   5.917 -0.8206 -1.7823 -1.4520
14169TIP3    H263999   2.664   3.184   6.018 -2.0507 -0.6431 -1.1796
14170TIP3   OH264000   2.519   0.801   5.070 -0.3451  0.1002 -0.1559
14170TIP3    H164001   2.577   0.747   5.015 -0.1340  1.1267 -0.9927
14170TIP3    H264002   2.559   0.888   5.068 -0.3445  0.1757  1.6548
14171TIP3   OH264003   4.963   5.693  13.960  0.4543 -0.2626  0.0817
14171TIP3    H164004   4.897   5.691  13.891  1.9680  2.1495 -1.5747
14171TIP3    H264005   4.912   5.705  14.041 -1.3524 -3.0916 -0.4694
14172TIP3   OH264006   5.248   1.819   2.901  0.4783  0.1285 -0.1664
14172TIP3    H164007   5.179   1.874   2.864  0.2896 -0.4553 -0.7233
14172TIP3    H264008   5.272   1.861   2.983 -1.4914 -0.3621  0.7358
14173TIP3   OH264009   1.241   0.168  16.077  0.1944  0.1158 -0.1448
14173TIP3    H164010   1.291   0.218  16.014  0.6031  0.7179  0.6343
14173TIP3    H264011   1.158   0.215  16.086 -0.0866 -0.2775 -0.6327
14174TIP3   OH264012   3.067   6.071   0.473  0.2482 -0.6006 -0.4005
14174TIP3    H164013   3.096   6.155   0.437  0.7050 -0.0113  1.2617
14174TIP3    H264014   3.054   6.088   0.566 -0.1161 -2.2663 -0.1195
14175TIP3   OH264015   2.607   1.718  15.126  0.4404 -0.6463  0.3945
14175TIP3    H164016   2.694   1.679  15.132 -0.1430 -1.9959  0.5690
14175TIP3    H264017   2.622   1.807  15.096  1.7370 -1.5077 -1.7229
14176TIP3   OH264018   4.454   0.851  13.519 -0.4592 -0.1076 -0.7112
14176TIP3    H164019   4.452   0.840  13.424  0.9514 -1.6948 -0.6036
14176TIP3    H264020   4.534   0.901  13.536 -0.1897 -0.6585 -0.3151
14177TIP3   OH264021   0.310   6.150   3.895  0.4335 -0.3840  0.2268
14177TIP3    H164022   0.345   6.105   3.972  0.2246  0.4405  0.8121
14177TIP3    H264023   0.295   6.240   3.924 -2.1716 -0.6924  0.0071
14178TIP3   OH264024   2.785   2.421   2.226 -0.0587  0.0285 -0.1503
14178TIP3    H164025   2.776   2.474   2.306 -3.3668 -2.5812  1.4559
14178TIP3    H264026   2.822   2.338   2.256 -1.7500 -1.1542 -1.1699
14179TIP3   OH264027   6.693   4.016  13.873  0.0097  0.3016 -0.2138
14179TIP3    H164028   6.752   3.976  13.809  1.9719  3.1567 -0.3502
14179TIP3    H264029   6.743   4.018  13.954 -0.1316  2.0423 -0.1281
14180TIP3   OH264030   0.452   4.386   6.247  0.2216 -0.7740  0.5063
14180TIP3    H164031   0.531   4.414   6.294 -0.8405 -0.2522  2.0564
14180TIP3    H264032   0.411   4.468   6.219  0.4616 -1.0621 -0.7461
14181TIP3   OH264033   4.056   4.375  14.044 -0.1667  0.2160  0.4235
14181TIP3    H164034   4.011   4.455  14.017 -1.4708 -1.0904 -1.5860
14181TIP3    H264035   3.990   4.306  14.035  1.0579 -1.1831  1.5704
14182TIP3   OH264036   3.959   3.680  16.314 -0.0810  0.4178 -0.2578
14182TIP3    H164037   3.933   3.615  16.379 -0.1669 -0.4095 -1.0828
14182TIP3    H264038   3.921   3.762  16.344 -0.1173  0.0489  0.7259
14183TIP3   OH264039   5.379   5.080  14.012 -0.0041  0.2656 -0.9216
14183TIP3    H164040   5.319   5.009  14.036  0.8215 -0.1981 -0.1811
14183TIP3    H264041   5.349   5.107  13.925 -1.5480  0.3462 -0.4001
14184TIP3   OH264042   1.402   4.990  13.761 -0.1156 -0.1593  0.1913
14184TIP3    H164043   1.352   5.057  13.807  1.3923  0.9812  0.2518
14184TIP3    H264044   1.418   5.026  13.674 -0.0053 -0.8017 -0.0631
14185TIP3   OH264045   3.293   5.309   6.528  0.4615 -0.2602  0.0178
14185TIP3    H164046   3.278   5.237   6.589 -1.1915  0.4549  0.4999
14185TIP3    H264047   3.381   5.340   6.550  0.7271 -1.3570  0.5998
14186TIP3   OH264048   5.109   2.337   1.023 -0.2801 -0.1826  1.2013
14186TIP3    H164049   5.166   2.384   1.085 -0.0476  0.1631  0.7286
14186TIP3    H264050   5.026   2.385   1.027  0.5186  1.5049 -0.6951
14187TIP3   OH264051   1.213   2.930   0.551 -0.3101 -0.1022 -0.2353
14187TIP3    H164052   1.180   2.941   0.462  0.3810  0.4297 -0.4325
14187TIP3    H264053   1.135   2.939   0.606 -0.5421  0.9521 -0.7005
14188TIP3   OH264054   4.177   2.987   3.482 -0.9590  0.4096 -0.4118
14188TIP3    H164055   4.100   2.956   3.436 -0.9145  2.6472 -2.1788
14188TIP3    H264056   4.155   3.076   3.509  1.1073  1.2470 -1.3115
14189TIP3   OH264057   6.001   3.737  12.143  0.3159  0.1654  0.2898
14189TIP3    H164058   6.014   3.804  12.076 -1.3282  0.1430 -0.1025
14189TIP3    H264059   5.932   3.773  12.199  0.3468 -0.6352  0.8561
14190TIP3   OH264060   2.075   6.134  12.551  0.0810  0.1179  0.2849
14190TIP3    H164061   2.122   6.206  12.593 -0.0752 -0.0969  0.8497
14190TIP3    H264062   1.986   6.141  12.585  0.4354 -1.2727  1.6033
14191TIP3   OH264063   1.659   2.724  11.989 -0.1417 -0.2986  0.6300
14191TIP3    H164064   1.571   2.701  11.962  0.0220  0.9524 -1.1614
14191TIP3    H264065   1.713   2.650  11.962 -0.5147 -0.7234  1.0286
14192TIP3   OH264066   1.006   3.118   2.693 -0.6564 -0.4178  0.4517
14192TIP3    H164067   0.997   3.024   2.710 -2.2196 -0.3817  0.0025
14192TIP3    H264068   0.948   3.159   2.757 -0.7822  0.1633 -0.0262
14193TIP3   OH264069   3.781   0.644   3.785 -0.7412  0.1331  0.0429
14193TIP3    H164070   3.802   0.595   3.705  0.4205 -0.2252  0.5519
14193TIP3    H264071   3.701   0.602   3.817 -1.1811  0.2333 -0.8829
14194TIP3   OH264072   3.492   6.799   0.766 -0.3347  0.2538 -0.0707
14194TIP3    H164073   3.435   6.783   0.691 -0.0615  0.3627 -0.3010
14194TIP3    H264074   3.516   6.891   0.759  0.4803  0.0271 -0.4069
14195TIP3   OH264075   0.080   6.804   4.787  0.1648  0.6204  0.3184
14195TIP3    H164076   0.039   6.883   4.753 -0.1585  0.6795  0.8320
14195TIP3    H264077   0.174   6.822   4.784  0.3875 -0.3990 -3.1280
14196TIP3   OH264078   1.547   1.185  11.813  0.3677 -0.4317 -0.8221
14196TIP3    H164079   1.591   1.105  11.840 -1.4334 -1.6836 -1.4256
14196TIP3    H264080   1.458   1.158  11.791 -0.2174  1.6875 -1.3340
14197TIP3   OH264081   2.061   5.686   4.913 -0.3928 -0.6306 -0.1508
14197TIP3    H164082   2.078   5.618   4.847  0.7495 -0.6033  0.1001
14197TIP3    H264083   2.019   5.757   4.864  1.6844 -0.0216 -1.1720
14198TIP3   OH264084   0.490   4.260   2.289  0.0268  0.8802  0.4023
14198TIP3    H164085   0.507   4.214   2.371  0.1378  2.2097  1.1694
14198TIP3    H264086   0.400   4.290   2.297 -0.0536  0.7667 -0.0865
14199TIP3   OH264087   2.644   1.111  13.696 -0.1302  0.3338 -0.3900
14199TIP3    H164088   2.591   1.191  13.693  0.1001  0.4934 -0.2577
14199TIP3    H264089   2.599   1.051  13.637  0.5071  1.0592 -1.6422
14200TIP3   OH264090   2.292   2.809   3.757 -0.4768  0.1669 -0.8056
14200TIP3    H164091   2.354   2.742   3.783 -1.3260 -0.8999 -1.4223
14200TIP3    H264092   2.308   2.882   3.816 -0.9789 -1.3790  1.3362
14201TIP3   OH264093   1.218   3.156  12.576  0.3875 -0.4773 -0.1039
14201TIP3    H164094   1.212   3.089  12.507 -0.1884  0.9981 -1.5617
14201TIP3    H264095   1.235   3.107  12.656 -0.2883 -2.3901 -1.0738
14202TIP3   OH264096   2.400   4.982   1.407 -0.1728  0.1471  0.1790
14202TIP3    H164097   2.320   5.035   1.414  0.8028  1.7073  0.0702
14202TIP3    H264098   2.466   5.033   1.455  1.0138 -0.5583 -0.6682
14203TIP3   OH264099   3.491   6.606  16.188  0.4087  0.0125 -0.2089
14203TIP3    H164100   3.548   6.641  16.256 -0.3996  0.5368  0.1968
14203TIP3    H264101   3.454   6.526  16.226 -0.7566  0.7927  0.3232
14204TIP3   OH264102   1.018   3.177  11.925 -0.3103  0.8044  0.0501
14204TIP3    H164103   0.958   3.143  11.859 -0.1019 -0.4826  0.4894
14204TIP3    H264104   1.103   3.181  11.880 -0.1713 -0.0554  0.2291
14205TIP3   OH264105   5.137   4.706  15.483 -0.1916 -0.3780  0.0920
14205TIP3    H164106   5.121   4.798  15.505 -3.7212 -0.8911  0.3039
14205TIP3    H264107   5.090   4.694  15.400 -0.9884 -2.2705  0.7680
14206TIP3   OH264108   6.543   6.469   3.693 -0.0135  0.9858  0.0342
14206TIP3    H164109   6.531   6.432   3.605 -1.1541 -0.4141  0.7347
14206TIP3    H264110   6.520   6.561   3.684 -1.6504  0.5288 -0.8423
14207TIP3   OH264111   6.220   6.495   5.730  0.6237  0.5303 -0.1139
14207TIP3    H164112   6.147   6.461   5.678 -0.1034 -1.4398  1.9952
14207TIP3    H264113   6.293   6.502   5.668 -0.0319 -2.2577 -1.3586
14208TIP3   OH264114   5.368   4.192   3.288 -0.6956  0.4219 -0.2264
14208TIP3    H164115   5.386   4.189   3.382  1.1721  0.0725 -0.5587
14208TIP3    H264116   5.373   4.285   3.266 -0.2054  0.4243 -0.1255
14209TIP3   OH264117   1.432   3.247  12.031 -0.4417  0.0759 -0.4061
14209TIP3    H164118   1.385   3.233  12.114  1.5924 -0.9318  0.6448
14209TIP3    H264119   1.495   3.175  12.027 -0.6080  0.0019 -2.9588
14210TIP3   OH264120   1.058   4.656  15.869 -0.9684 -0.3850  0.0958
14210TIP3    H164121   1.032   4.643  15.960 -2.0037 -0.8529 -0.2508
14210TIP3    H264122   0.999   4.723  15.836 -1.7097 -1.3727 -0.6689
14211TIP3   OH264123   6.798   1.669   4.892  0.5706  0.6869 -0.4104
14211TIP3    H164124   6.847   1.681   4.973  0.0039 -0.9885  0.2106
14211TIP3    H264125   6.706   1.681   4.917  0.2524 -1.4215 -0.4286
14212TIP3   OH264126   6.479   0.938  16.258  0.0322  0.3018 -0.1508
14212TIP3    H164127   6.420   1.007  16.228 -2.1376 -0.9735  0.9825
14212TIP3    H264128   6.461   0.864  16.200  2.1344  0.4881 -1.1702
14213TIP3   OH264129   6.070   1.459   4.894  0.2941  0.0583 -0.6892
14213TIP3    H164130   6.154   1.466   4.849  0.7385  0.2457  0.1358
14213TIP3    H264131   6.053   1.548   4.927  0.7185 -0.3613  0.7568
14214TIP3   OH264132   4.533   6.264   2.110  0.1644 -0.1238 -0.0654
14214TIP3    H164133   4.559   6.352   2.083 -1.9255  0.5474 -0.0624
14214TIP3    H264134   4.577   6.206   2.048  1.1608  0.9413 -0.3845
14215TIP3   OH264135   0.660   5.859  13.351 -0.3916  0.2796  0.3534
14215TIP3    H164136   0.637   5.907  13.272 -1.1512 -0.8613 -0.1555
14215TIP3    H264137   0.662   5.925  13.420 -3.8991  0.7616  0.1762
14216TIP3   OH264138   1.846   3.308  13.035 -0.7406  0.3586  0.2208
14216TIP3    H164139   1.836   3.375  13.102 -0.5786  0.3028  0.3006
14216TIP3    H264140   1.790   3.337  12.963  1.1765  1.8540 -0.7492
14217TIP3   OH264141   5.791   1.530  16.105 -0.1603 -0.2937 -0.0528
14217TIP3    H164142   5.741   1.495  16.032  1.9634  2.4247 -3.1058
14217TIP3    H264143   5.881   1.534  16.073  0.9753  0.7655  2.8873
14218TIP3   OH264144   3.342   0.383   0.977 -0.4236  0.3444  0.1757
14218TIP3    H164145   3.375   0.428   1.055 -0.2637 -0.5815  0.6506
14218TIP3    H264146   3.250   0.410   0.971  0.1485  2.3182 -0.7131
14219TIP3   OH264147   2.338   1.431   2.446 -0.0217  0.6130  0.1797
14219TIP3    H164148   2.288   1.401   2.521 -1.3002 -0.0389 -0.9029
14219TIP3    H264149   2.416   1.375   2.445  0.0248  0.6564  1.0330
14220TIP3   OH264150   0.897   2.891   5.026 -0.0512 -0.2883 -0.1802
14220TIP3    H164151   0.838   2.892   4.951 -0.4703 -0.8240  0.1411
14220TIP3    H264152   0.956   2.817   5.010 -0.2164 -0.4764  0.0736
14221TIP3   OH264153   6.113   0.473  16.522  0.1326  0.3167  0.2839
14221TIP3    H164154   6.057   0.453  16.596  0.5652 -2.5924 -0.0564
14221TIP3    H264155   6.062   0.533  16.468 -1.6318 -0.3128  1.1865
14222TIP3   OH264156   4.129   6.579   4.523 -0.1501 -0.0116 -0.4916
14222TIP3    H164157   4.168   6.492   4.525  0.4738  0.2293 -1.5263
14222TIP3    H264158   4.140   6.609   4.432 -1.0900  0.8140 -0.3544
14223TIP3   OH264159   4.049   1.978   5.723 -0.6679 -0.2128  0.5014
14223TIP3    H164160   4.049   2.065   5.763 -0.8102  0.1018 -0.1618
14223TIP3    H264161   3.985   1.928   5.773  0.6338 -0.4739  1.9983
14224TIP3   OH264162   0.483   0.873  12.841 -0.3280  0.0552  0.1956
14224TIP3    H164163   0.572   0.842  12.822 -0.7834 -0.7924 -0.6501
14224TIP3    H264164   0.427   0.823  12.781 -1.4404  0.1299  1.1390
14225TIP3   OH264165   5.545   1.288   2.159 -0.5587  0.0029  0.3140
14225TIP3    H164166   5.554   1.225   2.231 -0.2374 -0.9688 -0.5469
14225TIP3    H264167   5.628   1.336   2.159 -0.1010 -0.7597 -0.0876
14226TIP3   OH264168   4.679   5.992   2.458 -0.4974 -0.1085 -0.1054
14226TIP3    H164169   4.750   6.055   2.473 -0.7868 -0.0434  1.0763
14226TIP3    H264170   4.607   6.024   2.512 -1.5169 -0.0593 -1.4538
14227TIP3   OH264171   1.420   1.985  12.982 -0.4380  0.1327  0.4167
14227TIP3    H164172   1.356   2.031  13.036 -0.6219  2.6628 -1.7197
14227TIP3    H264173   1.409   2.023  12.894  2.8268 -0.4899 -0.4197
14228TIP3   OH264174   5.674   1.158   3.914 -0.0346 -0.5053  0.1779
14228TIP3    H164175   5.681   1.176   4.008 -0.3374  1.3883 -0.1265
14228TIP3    H264176   5.581   1.147   3.898 -0.0989  0.2962 -0.0616
14229TIP3   OH264177   4.471   1.884   0.819  0.1607  0.1736  0.3329
14229TIP3    H164178   4.380   1.867   0.844  0.6991  0.7955  3.1349
14229TIP3    H264179   4.495   1.963   0.868  1.9271  0.6377 -1.1420
14230TIP3   OH264180   0.244   5.450  15.267  0.3196 -0.2169  0.3739
14230TIP3    H164181   0.233   5.358  15.243 -0.0536  0.1035 -0.7173
14230TIP3    H264182   0.319   5.479  15.216  1.0854 -0.1732  1.4933
14231TIP3   OH264183   2.100   2.236  14.142 -0.4296 -0.1797 -0.0988
14231TIP3    H164184   2.188   2.240  14.180 -0.8147 -0.5493  0.8708
14231TIP3    H264185   2.102   2.299  14.070  1.1245 -1.3703 -1.1677
14232TIP3   OH264186   2.361   0.997   4.953 -0.1833 -0.4229 -0.1286
14232TIP3    H164187   2.377   0.932   5.021 -0.2190  0.9468  1.2527
14232TIP3    H264188   2.293   0.958   4.898 -0.1386 -1.5779  0.5998
14233TIP3   OH264189   6.683   3.649  14.331  0.2245  0.2063  0.1775
14233TIP3    H164190   6.750   3.617  14.392 -0.3198  0.0927  0.7281
14233TIP3    H264191   6.702   3.743  14.323  0.2849  0.2298  0.5516
14234TIP3   OH264192   6.380   5.686  11.830 -0.5243  0.9689 -0.2067
14234TIP3    H164193   6.453   5.647  11.878  1.2557  1.7913 -2.1074
14234TIP3    H264194   6.362   5.624  11.759 -0.7047  1.4881 -0.6169
14235TIP3   OH264195   4.518   3.112   4.753 -0.2354  0.3735  0.3537
14235TIP3    H164196   4.459   3.049   4.793  1.1536 -1.6364 -0.6295
14235TIP3    H264197   4.514   3.093   4.659  1.4244  0.6633  0.1905
14236TIP3   OH264198   1.427   6.333  13.025 -0.2127 -0.1238  0.4198
14236TIP3    H164199   1.444   6.414  12.978 -0.1951  0.3191  1.1755
14236TIP3    H264200   1.433   6.265  12.958  2.6655  0.1684  0.2325
14237TIP3   OH264201   3.591   1.825  14.562  0.5895  0.5614 -0.3264
14237TIP3    H164202   3.678   1.803  14.595  1.0883  1.0587 -1.2462
14237TIP3    H264203   3.591   1.795  14.471 -0.4844 -0.1257 -0.1234
14238TIP3   OH264204   6.244   6.664  15.762 -0.0849  0.4082 -0.3309
14238TIP3    H164205   6.327   6.654  15.810 -0.6462  2.0740  1.0580
14238TIP3    H264206   6.243   6.755  15.733 -2.5128  1.2273  1.9098
14239TIP3   OH264207   5.932   3.479  13.107 -0.3483 -0.1743 -0.1414
14239TIP3    H164208   5.917   3.554  13.051  0.0117  0.2608  0.3405
14239TIP3    H264209   6.002   3.430  13.064  1.0600  0.9971  0.7187
14240TIP3   OH264210   1.703   0.156  16.821  0.5700 -0.1649  0.2061
14240TIP3    H164211   1.649   0.102  16.880  1.5882 -1.3396  0.1086
14240TIP3    H264212   1.640   0.206  16.770 -0.4567 -1.5875  0.0158
14241TIP3   OH264213   3.607   3.684   1.603  0.6757 -0.3490  0.2311
14241TIP3    H164214   3.643   3.665   1.516 -0.6201 -1.3680 -0.1214
14241TIP3    H264215   3.587   3.777   1.601 -0.2657 -0.5421 -0.9670
14242TIP3   OH264216   1.919   4.927   5.177  0.1983 -0.3835  0.0299
14242TIP3    H164217   1.882   5.010   5.209  0.4445 -0.9141  1.7808
14242TIP3    H264218   1.843   4.870   5.168 -0.0826  0.2017 -1.9410
14243TIP3   OH264219   5.950   6.724  12.658  0.2259 -0.5452 -0.4865
14243TIP3    H164220   6.024   6.683  12.703 -0.4378 -0.6235  0.5737
14243TIP3    H264221   5.969   6.714  12.565  2.7211  1.5233 -0.2999
14244TIP3   OH264222   4.236   3.875  15.123 -0.3017 -0.1715 -0.5379
14244TIP3    H164223   4.209   3.800  15.176 -0.3552 -1.3386 -2.1392
14244TIP3    H264224   4.225   3.951  15.181  1.9678 -1.5679  1.9439
14245TIP3   OH264225   1.399   6.534   3.038  0.2829  0.2991 -0.1680
14245TIP3    H164226   1.481   6.553   2.993  0.4920  2.0883  0.8628
14245TIP3    H264227   1.354   6.618   3.042 -0.6427 -0.2214  1.1343
14246TIP3   OH264228   1.957   2.789   4.434 -0.0869  0.1397 -0.2448
14246TIP3    H164229   2.011   2.830   4.501 -0.7267 -1.6927  1.4937
14246TIP3    H264230   1.896   2.858   4.406 -0.9575  0.5354  2.3577
14247TIP3   OH264231   0.167   3.072  13.474  0.9570  0.4491  0.3510
14247TIP3    H164232   0.115   3.073  13.394 -0.3124  2.3826  1.1269
14247TIP3    H264233   0.249   3.115  13.450  0.2456  1.8024  0.2484
14248TIP3   OH264234   4.776   0.096   5.123  0.6262 -0.4901  0.8727
14248TIP3    H164235   4.739   0.052   5.047  2.5051  0.2780 -0.5589
14248TIP3    H264236   4.706   0.093   5.189 -1.1157 -1.0366 -0.9129
14249TIP3   OH264237   4.880   2.506  14.811  0.3194 -0.1169 -0.5043
14249TIP3    H164238   4.861   2.564  14.737  0.7125 -0.6709 -1.0543
14249TIP3    H264239   4.885   2.419  14.772  0.0978 -0.4733  0.2527
14250TIP3   OH264240   0.432   2.164  15.654 -0.5736 -0.2159  0.3120
14250TIP3    H164241   0.426   2.234  15.719 -0.5749  0.1181 -0.0486
14250TIP3    H264242   0.485   2.200  15.584 -1.7057 -0.0689 -0.5087
14251TIP3   OH264243   4.931   2.070   4.522  0.6839 -0.0391  0.0778
14251TIP3    H164244   4.931   2.088   4.616  1.7774 -0.1338  0.1069
14251TIP3    H264245   4.983   2.140   4.484 -0.0698  0.2164 -0.5169
14252TIP3   OH264246   5.884   3.735   5.357  0.2721 -0.0013 -0.0864
14252TIP3    H164247   5.863   3.788   5.434 -1.8192 -0.3307 -0.3729
14252TIP3    H264248   5.898   3.647   5.391 -2.2887 -0.5064 -0.1818
14253TIP3   OH264249   3.071   3.825  14.963  0.1388 -0.4581 -0.6463
14253TIP3    H164250   3.142   3.761  14.969  0.0101 -0.5723 -0.3350
14253TIP3    H264251   2.991   3.773  14.958  0.0266 -0.3256 -0.2893
14254TIP3   OH264252   3.641   1.314  12.034 -0.2747  0.3885  0.8582
14254TIP3    H164253   3.570   1.358  11.988  1.1319  2.9491  0.8932
14254TIP3    H264254   3.601   1.281  12.114 -1.6345  0.8456  0.3895
14255TIP3   OH264255   5.738   4.562  15.449 -0.3527 -0.4856  0.4629
14255TIP3    H164256   5.650   4.550  15.486 -0.6119  1.2599  0.4900
14255TIP3    H264257   5.750   4.657  15.445  1.2703 -0.6814 -0.1952
14256TIP3   OH264258   6.399   2.317   1.616  0.4277  0.7343  0.3842
14256TIP3    H164259   6.406   2.262   1.538  0.3816  0.3595  0.6397
14256TIP3    H264260   6.489   2.342   1.636  0.4595  0.6643  0.3270
14257TIP3   OH264261   0.279   5.005   5.120 -0.1553  0.1420 -0.5324
14257TIP3    H164262   0.271   4.912   5.141  0.3983  0.4547  1.2499
14257TIP3    H264263   0.308   5.045   5.202  0.7221  1.7288 -1.5826
14258TIP3   OH264264   6.156   0.960  14.963 -0.0060  0.3001 -0.1267
14258TIP3    H164265   6.134   1.011  15.040 -0.5210  0.6042 -0.4670
14258TIP3    H264266   6.121   1.012  14.890  1.5882  0.6628 -0.6721
14259TIP3   OH264267   0.268   0.313   2.243  0.1382  0.1018 -0.6352
14259TIP3    H164268   0.228   0.398   2.224 -1.5368 -0.4891  0.1250
14259TIP3    H264269   0.201   0.264   2.290  1.7178 -0.9748  0.6257
14260TIP3   OH264270   6.794   4.237  13.551  0.3708  0.2956 -0.5804
14260TIP3    H164271   6.810   4.144  13.566 -0.1902 -0.5069 -4.0054
14260TIP3    H264272   6.700   4.242  13.529  0.2484  1.7850  0.1215
14261TIP3   OH264273   0.399   0.769  13.677  0.7012 -0.1406  0.1628
14261TIP3    H164274   0.440   0.700  13.625  1.0509 -0.2547  0.5895
14261TIP3    H264275   0.338   0.723  13.734  0.7607 -0.0732  0.2803
14262TIP3   OH264276   5.445   1.801  11.205  1.0621 -0.6022  0.2568
14262TIP3    H164277   5.533   1.800  11.168  0.5577  1.7020 -1.2402
14262TIP3    H264278   5.396   1.740  11.150  1.2127 -0.0868 -0.4721
14263TIP3   OH264279   4.896   2.875  16.167  0.3120  0.2520 -0.3548
14263TIP3    H164280   4.819   2.838  16.211  0.4439 -1.2892 -1.3363
14263TIP3    H264281   4.960   2.804  16.169  2.2578  1.9064  1.6077
14264TIP3   OH264282   4.307   0.351   2.360 -0.0984  0.4759 -0.5213
14264TIP3    H164283   4.390   0.384   2.325  0.4444  0.8634  1.0773
14264TIP3    H264284   4.323   0.258   2.375  1.3512  1.1498  3.1384
14265TIP3   OH264285   5.499   2.337  12.548 -0.5226  0.6896  0.4839
14265TIP3    H164286   5.593   2.358  12.551 -0.1172 -0.6176 -1.2557
14265TIP3    H264287   5.490   2.257  12.599 -0.4556  0.1361 -0.3550
14266TIP3   OH264288   2.272   0.128   5.898 -0.2586 -0.5399 -0.3847
14266TIP3    H164289   2.281   0.203   5.840 -0.5619  2.7313  3.4301
14266TIP3    H264290   2.361   0.110   5.929 -0.0845 -2.3144 -1.7552
14267TIP3   OH264291   3.881   0.630  13.265  0.0967  0.3749 -0.1466
14267TIP3    H164292   3.891   0.591  13.178  0.7965 -0.1383  0.1571
14267TIP3    H264293   3.832   0.710  13.249 -1.1382 -0.4768 -0.8247
14268TIP3   OH264294   5.941   6.169   3.313  0.0311  0.2363 -0.0486
14268TIP3    H164295   5.918   6.199   3.400 -0.6957  0.4756 -0.3188
14268TIP3    H264296   6.003   6.097   3.328 -0.6026 -0.1655  0.6808
14269TIP3   OH264297   2.621   0.198  11.500 -0.1261 -1.0829  0.2579
14269TIP3    H164298   2.627   0.275  11.443  0.3454 -1.9401 -0.8795
14269TIP3    H264299   2.674   0.220  11.576  0.4419 -0.4826 -0.3011
14270TIP3   OH264300   0.627   1.552   4.194 -0.0109 -0.1763  0.5090
14270TIP3    H164301   0.605   1.642   4.173 -0.2229 -0.2674  0.3480
14270TIP3    H264302   0.703   1.560   4.252  0.0780  0.0981  0.3583
14271TIP3   OH264303   1.253   6.808   4.859  0.0677 -0.6493 -1.1587
14271TIP3    H164304   1.174   6.830   4.809 -0.4619 -4.4264 -2.3101
14271TIP3    H264305   1.221   6.776   4.943  0.3840 -1.2035 -1.2364
14272TIP3   OH264306   1.516   0.156  14.467  0.1486  0.1346  0.2294
14272TIP3    H164307   1.609   0.177  14.471  0.3638  0.2491 -2.9650
14272TIP3    H264308   1.501   0.130  14.377 -2.9525  0.1270  0.6376
14273TIP3   OH264309   6.530   2.211  12.196 -0.4562  0.0379  0.0238
14273TIP3    H164310   6.507   2.218  12.104  1.1509 -0.7070 -0.4783
14273TIP3    H264311   6.560   2.121  12.207  1.6193  0.7361  0.6834
14274TIP3   OH264312   5.333   6.789  11.742 -0.2953  0.5596 -0.1722
14274TIP3    H164313   5.277   6.857  11.706 -0.8317  0.5625  0.6404
14274TIP3    H264314   5.326   6.800  11.837 -0.0629 -0.3633 -0.0406
14275TIP3   OH264315   4.985   2.965   5.823 -0.1312  0.1353  0.2447
14275TIP3    H164316   4.911   3.013   5.784  0.1970 -0.0753 -0.6740
14275TIP3    H264317   5.024   3.027   5.885  1.5754  1.9618 -2.4266
14276TIP3   OH264318   5.499   4.085   5.809 -0.1909 -0.1243  0.1640
14276TIP3    H164319   5.490   4.022   5.737 -0.6334 -0.1870  0.2685
14276TIP3    H264320   5.483   4.170   5.769  0.1785 -0.1007  0.0674
14277TIP3   OH264321   1.540   1.973   5.733  0.0713  0.8578 -0.5648
14277TIP3    H164322   1.624   2.018   5.726 -0.1298  1.4181  0.3959
14277TIP3    H264323   1.503   2.004   5.815 -0.4799 -0.4104 -0.3077
14278TIP3   OH264324   3.575   5.260   3.288 -0.0018 -0.0261  0.3705
14278TIP3    H164325   3.502   5.322   3.280 -1.2710 -1.6758 -1.8799
14278TIP3    H264326   3.559   5.216   3.372 -0.1230  1.3339  1.1005
14279TIP3   OH264327   0.133   4.132   3.311  0.4809  0.4159  0.1571
14279TIP3    H164328   0.073   4.079   3.363  1.0738 -0.0849  0.3391
14279TIP3    H264329   0.218   4.120   3.353  0.9943 -0.1122 -1.0166
14280TIP3   OH264330   1.318   3.555   1.273  0.2389  0.3363 -0.3574
14280TIP3    H164331   1.309   3.641   1.233 -0.1365  0.1816 -0.6155
14280TIP3    H264332   1.333   3.496   1.198  1.7240  0.3394 -0.0902
14281TIP3   OH264333   5.966   3.298  11.945 -0.0767 -0.3111  0.2629
14281TIP3    H164334   6.043   3.274  11.996  0.7435  0.0214 -0.7751
14281TIP3    H264335   5.934   3.379  11.985  1.4181  0.7445 -0.6032
14282TIP3   OH264336   4.959   1.213  17.112  0.2548  0.0048  0.1503
14282TIP3    H164337   5.025   1.192  17.179  0.5519  0.2801 -0.0497
14282TIP3    H264338   4.876   1.189  17.153  0.4860 -0.4691  0.3608
14283TIP3   OH264339   1.718   1.678   1.453  0.3410 -0.2933 -0.7624
14283TIP3    H164340   1.664   1.645   1.525  1.5510  0.7195  0.6779
14283TIP3    H264341   1.656   1.696   1.382 -1.0695 -0.1465  0.4619
14284TIP3   OH264342   4.251   1.302  14.001 -0.0414  0.0096  0.2352
14284TIP3    H164343   4.299   1.219  14.006 -0.2369 -0.0497  1.2011
14284TIP3    H264344   4.180   1.284  13.939 -0.8018 -0.9293  1.3364
14285TIP3   OH264345   3.116   5.375   4.733  0.0126  0.4088 -0.1061
14285TIP3    H164346   3.089   5.348   4.821  0.5036 -1.6445 -0.5517
14285TIP3    H264347   3.155   5.297   4.694 -2.5012  0.4500 -3.0970
14286TIP3   OH264348   1.638   5.381   1.199 -0.2318 -0.3045  0.0615
14286TIP3    H164349   1.721   5.372   1.151  0.2874  0.1475  0.8437
14286TIP3    H264350   1.660   5.437   1.274 -1.3831  0.3005 -0.0364
14287TIP3   OH264351   4.132   1.187   1.310  0.0759  0.5451 -0.0307
14287TIP3    H164352   4.061   1.246   1.332 -1.1296 -0.9253  0.1381
14287TIP3    H264353   4.132   1.185   1.214 -0.5175  0.0766 -0.0238
14288TIP3   OH264354   5.684   4.114   0.965  0.2442  0.0628  0.2548
14288TIP3    H164355   5.676   4.191   1.021  0.5012 -0.4537  1.0193
14288TIP3    H264356   5.628   4.048   1.007 -1.7285  0.4540 -1.5598
14289TIP3   OH264357   0.758   2.797  13.662  0.1067 -0.5571  0.4197
14289TIP3    H164358   0.750   2.762  13.573  2.2201  1.4597 -0.6857
14289TIP3    H264359   0.845   2.768  13.691  0.8202  1.4710  0.4643
14290TIP3   OH264360   5.339   5.316  17.027 -0.0123 -0.5671 -0.0526
14290TIP3    H164361   5.330   5.399  16.980  2.6464  0.1883  0.5634
14290TIP3    H264362   5.326   5.338  17.119 -0.2430 -1.0267  0.0300
14291TIP3   OH264363   3.624   5.125   5.289  0.2874  0.3588 -0.3990
14291TIP3    H164364   3.584   5.159   5.368 -0.4505 -0.9846 -0.1716
14291TIP3    H264365   3.583   5.175   5.218  0.0113  0.6715 -0.0238
14292TIP3   OH264366   5.375   5.224  12.655  0.3723  0.1501  1.1676
14292TIP3    H164367   5.406   5.152  12.710  0.8919 -0.1482  0.4940
14292TIP3    H264368   5.407   5.303  12.698 -2.1173  0.1962  3.2104
14293TIP3   OH264369   1.686   2.579  17.165 -0.1584 -0.1110 -0.6049
14293TIP3    H164370   1.624   2.546  17.230 -0.3880 -0.5121 -1.0204
14293TIP3    H264371   1.636   2.585  17.084 -0.3151  1.9149 -0.4155
14294TIP3   OH264372   6.804   3.129  16.173  0.4233  0.3375 -0.3337
14294TIP3    H164373   6.798   3.091  16.085  0.5621  0.4789 -0.4044
14294TIP3    H264374   6.715   3.161  16.191  0.5823  1.0349 -0.7536
14295TIP3   OH264375   5.321   3.895  10.813  0.3622 -0.1664  0.4325
14295TIP3    H164376   5.258   3.905  10.741 -0.2131 -0.7390  0.8495
14295TIP3    H264377   5.320   3.979  10.858  2.6986  1.1896 -1.7649
14296TIP3   OH264378   3.914   6.339  11.688  0.8499 -0.4063 -0.0365
14296TIP3    H164379   3.971   6.407  11.652 -0.2904  1.2938  1.1888
14296TIP3    H264380   3.934   6.339  11.782  0.5981 -1.5462  0.0246
14297TIP3   OH264381   5.939   0.496  12.584  0.2660 -0.3693  0.6041
14297TIP3    H164382   5.991   0.541  12.650 -0.6883  0.2087  0.9840
14297TIP3    H264383   5.944   0.404  12.608 -0.2910 -0.1397  1.6615
14298TIP3   OH264384   5.768   5.220   4.315 -0.3046 -0.4816  0.3193
14298TIP3    H164385   5.752   5.304   4.358 -1.3956 -1.0371  1.0544
14298TIP3    H264386   5.694   5.166   4.342  0.3542 -1.6605 -0.1913
14299TIP3   OH264387   4.592   2.273   0.713  0.2923 -0.4505  0.3468
14299TIP3    H164388   4.631   2.201   0.761  0.2606 -0.0903  0.9222
14299TIP3    H264389   4.664   2.336   0.701  0.0468 -0.0547  0.8847
14300TIP3   OH264390   0.044   0.039  16.048 -0.3771 -0.2104 -0.1284
14300TIP3    H164391   0.069  -0.049  16.018 -2.3692 -1.6151  1.9703
14300TIP3    H264392   0.093   0.051  16.130 -0.6811  0.2961 -0.0182
14301TIP3   OH264393   5.955   0.874   3.187  0.5138 -0.4080 -0.4569
14301TIP3    H164394   5.965   0.800   3.127  0.7179 -1.0013  0.2868
14301TIP3    H264395   5.879   0.851   3.240 -1.8144  1.6676 -2.6409
14302TIP3   OH264396   1.555   1.192  11.261  0.4436 -0.2933 -0.0515
14302TIP3    H164397   1.601   1.134  11.200 -1.2567 -1.5379 -0.2049
14302TIP3    H264398   1.549   1.142  11.342 -0.7198 -0.1872 -0.0641
14303TIP3   OH264399   3.189   2.798   5.698 -0.3965  0.5812  0.2829
14303TIP3    H164400   3.227   2.885   5.693  0.4174  0.1704 -1.2234
14303TIP3    H264401   3.175   2.772   5.607 -1.7696 -0.3830  0.7249
14304TIP3   OH264402   5.607   3.766   3.961  0.1079  0.1748 -0.3544
14304TIP3    H164403   5.697   3.748   3.991 -0.1997 -0.4714  0.2129
14304TIP3    H264404   5.552   3.737   4.034 -0.6310 -0.7973 -1.2747
14305TIP3   OH264405   2.664   5.039  16.197 -0.0435 -0.5783 -0.2653
14305TIP3    H164406   2.635   4.948  16.205  0.0574 -0.5782  0.1149
14305TIP3    H264407   2.756   5.037  16.223  0.0673 -0.4371 -0.6519
14306TIP3   OH264408   5.495   1.007   6.545 -0.0192  0.1148  0.0627
14306TIP3    H164409   5.589   1.022   6.533 -0.2043 -0.0069 -1.9678
14306TIP3    H264410   5.488   0.916   6.573  0.4807  0.2477  0.6388
14307TIP3   OH264411   1.196   0.709  13.359  0.3626 -0.0785  0.1395
14307TIP3    H164412   1.213   0.629  13.309 -2.0786 -0.8216  0.4208
14307TIP3    H264413   1.140   0.761  13.302  1.7674  1.4094  0.0388
14308TIP3   OH264414   5.762   2.219  10.792 -0.0330 -0.1805  0.3058
14308TIP3    H164415   5.842   2.263  10.766 -1.1608  2.3947  0.9048
14308TIP3    H264416   5.704   2.226  10.717 -0.9093  1.2125  1.0668
14309TIP3   OH264417   4.144   5.919   4.842  0.0559 -0.4070  0.0654
14309TIP3    H164418   4.166   5.826   4.853 -0.2276 -0.3754  0.9909
14309TIP3    H264419   4.114   5.947   4.928  1.0842  0.8031  0.0729
14310TIP3   OH264420   2.846   1.277   5.047 -0.8396  0.2097 -0.3501
14310TIP3    H164421   2.786   1.349   5.029  0.5621  1.5570  0.1714
14310TIP3    H264422   2.933   1.312   5.028  0.3097  0.0757  3.7987
14311TIP3   OH264423   0.408   5.682  15.799  0.2596  0.0014 -0.2830
14311TIP3    H164424   0.435   5.647  15.714  0.9897 -1.3827  0.4720
14311TIP3    H264425   0.332   5.629  15.824 -0.2564  0.7287 -0.2833
14312TIP3   OH264426   6.598   1.485  14.642  0.5090 -0.1018 -0.0803
14312TIP3    H164427   6.686   1.447  14.648  1.0983  1.3641  1.1198
14312TIP3    H264428   6.562   1.477  14.730  0.6869  2.0963  0.2513
14313TIP3   OH264429   1.055   5.701  12.525  0.0116  0.2632  0.1247
14313TIP3    H164430   1.137   5.660  12.551 -0.4260 -0.3109  0.6216
14313TIP3    H264431   0.991   5.670  12.589 -0.5958  0.6980 -0.2604
14314TIP3   OH264432   5.952   3.211  15.015 -0.8312 -0.2127 -0.1280
14314TIP3    H164433   6.042   3.181  15.020  0.2207  2.8226  2.0284
14314TIP3    H264434   5.955   3.289  14.960 -1.3056  2.1472  2.9633
14315TIP3   OH264435   1.418   3.351  11.482 -0.6849 -0.4435 -0.2095
14315TIP3    H164436   1.354   3.381  11.546 -1.5046 -1.2466 -0.6272
14315TIP3    H264437   1.370   3.349  11.399  0.5531  1.3053 -1.0390
14316TIP3   OH264438   0.750   2.277  14.998 -0.3744 -0.0474 -0.4151
14316TIP3    H164439   0.741   2.372  15.000  0.0210 -0.0151  1.2731
14316TIP3    H264440   0.830   2.261  14.947  0.6451  0.6354  0.9329
14317TIP3   OH264441   0.860   2.124   4.797  0.1124 -0.2210  0.1519
14317TIP3    H164442   0.945   2.086   4.773 -0.3895 -0.9340 -0.5828
14317TIP3    H264443   0.861   2.127   4.893  0.4984 -1.3553  0.1973
14318TIP3   OH264444   5.131   4.807   0.732  0.0677 -0.1969  0.2170
14318TIP3    H164445   5.074   4.755   0.676  0.9079 -0.6375 -0.2420
14318TIP3    H264446   5.080   4.885   0.753  0.4204  0.9440 -2.7466
14319TIP3   OH264447   1.702   0.256  13.875  0.0698 -0.5926 -0.2864
14319TIP3    H164448   1.635   0.321  13.855  1.8908  1.1346 -1.1826
14319TIP3    H264449   1.663   0.200  13.942 -3.1768 -1.2894 -2.5102
14320TIP3   OH264450   5.368   5.752  13.516  0.0618  0.2663  0.0661
14320TIP3    H164451   5.278   5.770  13.491  0.4418 -1.2210 -2.8514
14320TIP3    H264452   5.405   5.838  13.535 -1.4452  1.1470 -0.7613
14321TIP3   OH264453   2.894   6.274  15.053  0.2471 -0.0867 -0.6163
14321TIP3    H164454   2.881   6.344  15.116  1.7220  0.1543 -0.5398
14321TIP3    H264455   2.931   6.202  15.104 -1.9351 -1.2532 -0.5426
14322TIP3   OH264456   3.260   5.518  16.118  0.0282  0.0936  0.1256
14322TIP3    H164457   3.235   5.481  16.203 -1.9176 -0.2190 -0.5392
14322TIP3    H264458   3.275   5.441  16.062  0.3496  0.3059 -0.0824
14323TIP3   OH264459   2.687   6.591   0.167  0.3511 -0.0467  0.0652
14323TIP3    H164460   2.760   6.529   0.164 -0.3846 -0.9763  0.9085
14323TIP3    H264461   2.620   6.551   0.111  0.3894  0.6921 -0.5246
14324TIP3   OH264462   3.196   2.611   4.703  0.8337 -0.1025 -0.0226
14324TIP3    H164463   3.187   2.580   4.793 -0.6323  0.4967  0.0611
14324TIP3    H264464   3.263   2.554   4.665  1.4190 -0.4146  1.4145
14325TIP3   OH264465   5.324   5.595  17.003 -0.0826  0.2056  0.0035
14325TIP3    H164466   5.320   5.572  17.096  0.9900 -0.8149 -0.1784
14325TIP3    H264467   5.360   5.684  17.002 -1.2194  0.7067  0.5862
14326TIP3   OH264468   0.635   6.702   1.989 -0.2432  0.0605  0.0945
14326TIP3    H164469   0.555   6.658   1.962  0.5897 -0.8621 -0.9428
14326TIP3    H264470   0.605   6.778   2.039 -1.7533 -0.1668 -0.4340
14327TIP3   OH264471   1.633   1.912   3.881 -0.2319 -0.7852 -0.0338
14327TIP3    H164472   1.680   1.852   3.940  0.1853 -1.7961 -1.3405
14327TIP3    H264473   1.544   1.878   3.878  0.1991 -1.8612 -1.3974
14328TIP3   OH264474   2.035   5.411  10.645  0.2640 -0.2248  0.7033
14328TIP3    H164475   2.034   5.488  10.702  0.4051  0.1536  0.2089
14328TIP3    H264476   1.954   5.364  10.667 -0.3045  0.5608  0.3574
14329TIP3   OH264477   4.318   1.170  15.422  0.3877  0.1177 -0.1081
14329TIP3    H164478   4.245   1.217  15.380  0.4468 -0.7158 -1.1862
14329TIP3    H264479   4.298   1.175  15.516 -0.7263  0.4470 -0.3382
14330TIP3   OH264480   3.827   5.190  12.888 -0.4339 -0.4247 -0.2537
14330TIP3    H164481   3.857   5.259  12.948  0.2360  0.8615 -1.9991
14330TIP3    H264482   3.851   5.108  12.931 -0.6638  0.4154  1.5782
14331TIP3   OH264483   0.895   3.124  15.406  0.4319 -0.0565  0.4416
14331TIP3    H164484   0.907   3.124  15.501 -1.3085 -0.5930  0.6965
14331TIP3    H264485   0.929   3.039  15.378  1.4788  0.3332  0.4818
14332TIP3   OH264486   0.020   6.027  14.800 -0.1037 -0.1053 -0.0845
14332TIP3    H164487   0.035   6.119  14.781 -1.5898  0.3373  0.6790
14332TIP3    H264488   0.059   6.014  14.887  0.5657 -0.3417 -0.4153
14333TIP3   OH264489   4.198   6.672  14.627 -0.3775  0.3715  0.0809
14333TIP3    H164490   4.250   6.675  14.708  1.3659  1.2513 -0.9896
14333TIP3    H264491   4.165   6.583  14.623 -0.0721  0.1630  1.5030
14334TIP3   OH264492   6.190   4.139  14.529  0.7549 -0.1844 -0.3197
14334TIP3    H164493   6.257   4.075  14.504  2.9747  1.6878  0.4106
14334TIP3    H264494   6.220   4.221  14.489  0.1142  1.1727  1.8296
14335TIP3   OH264495   4.461   6.682  15.668 -0.2319  0.4693  0.0883
14335TIP3    H164496   4.420   6.768  15.672 -0.5711  0.2996  0.2622
14335TIP3    H264497   4.457   6.648  15.757 -0.4681  0.1024 -0.0594
14336TIP3   OH264498   3.860   0.773   2.786 -0.3635 -0.0966  0.3790
14336TIP3    H164499   3.769   0.800   2.780 -0.9098 -1.6138  1.2347
14336TIP3    H264500   3.891   0.772   2.695 -0.6467  2.0832  0.2104
14337TIP3   OH264501   1.938   6.748  11.062 -0.4011 -0.1401 -0.2012
14337TIP3    H164502   2.003   6.684  11.089  0.6466  0.8975 -0.1759
14337TIP3    H264503   1.976   6.833  11.086 -1.6024  0.5183 -0.5189
14338TIP3   OH264504   5.203   2.381  12.576 -0.0254 -0.0538  0.2691
14338TIP3    H164505   5.292   2.357  12.551  0.5330  2.0915 -0.0229
14338TIP3    H264506   5.147   2.319  12.530  1.1978  0.6655 -2.3590
14339TIP3   OH264507   0.025   2.617  15.384  0.2676 -0.2259  0.0005
14339TIP3    H164508   0.089   2.552  15.413 -0.8641 -0.0348  3.3246
14339TIP3    H264509   0.076   2.697  15.369  1.1525 -0.8162 -0.2033
14340TIP3   OH264510   5.465   0.115  11.250 -0.1647 -0.0804 -0.2931
14340TIP3    H164511   5.386   0.062  11.261  0.3636 -0.5959  1.3790
14340TIP3    H264512   5.514   0.073  11.180 -0.1896 -1.2790  0.3849
14341TIP3   OH264513   1.028   6.659   4.356 -0.2254 -0.3622  0.4135
14341TIP3    H164514   0.984   6.607   4.289  0.6696 -2.2747  1.2311
14341TIP3    H264515   0.957   6.690   4.412 -0.7940 -0.6539 -0.1327
14342TIP3   OH264516   1.396   6.029  12.588 -0.2713 -0.0731  0.5307
14342TIP3    H164517   1.339   6.036  12.664 -0.5277  0.1347  0.3200
14342TIP3    H264518   1.472   6.083  12.610 -0.0151 -0.5833  0.9317
14343TIP3   OH264519   4.826   1.051   0.233  0.0240  0.0190 -0.2786
14343TIP3    H164520   4.906   1.088   0.267  0.8691 -1.4104 -0.6146
14343TIP3    H264521   4.756   1.098   0.278  1.0607  0.2939  1.1014
14344TIP3   OH264522   3.706   0.688   4.379  0.5248  0.2371  0.3496
14344TIP3    H164523   3.758   0.768   4.380  2.8125 -1.1828  1.1132
14344TIP3    H264524   3.710   0.656   4.469  1.3299 -1.7408 -0.3464
14345TIP3   OH264525   0.195   1.229  15.850  0.1675  0.5655 -0.2021
14345TIP3    H164526   0.217   1.181  15.930  0.8504  0.1200 -0.6543
14345TIP3    H264527   0.174   1.317  15.881 -0.2225  0.2259  0.5395
14346TIP3   OH264528   1.640   2.273  14.241  0.3974  0.2145 -0.0060
14346TIP3    H164529   1.616   2.313  14.325 -2.0574  3.7131 -2.1227
14346TIP3    H264530   1.564   2.219  14.218 -0.1634  1.4169 -1.1083
14347TIP3   OH264531   0.414   5.569  15.534  0.4032  0.2220  0.4334
14347TIP3    H164532   0.368   5.529  15.460  0.9018  0.0174  0.2313
14347TIP3    H264533   0.495   5.603  15.497 -0.1870  1.8074  0.5216
14348TIP3   OH264534   0.370   5.065  15.062  0.1929 -0.3954  0.1368
14348TIP3    H164535   0.420   4.993  15.024  0.1665 -0.0033 -0.6700
14348TIP3    H264536   0.287   5.063  15.014 -0.5613 -1.0033  1.4163
14349TIP3   OH264537   2.601   5.333   0.245 -0.0775  0.9127 -1.0895
14349TIP3    H164538   2.633   5.306   0.159  0.4626 -0.6298 -0.4494
14349TIP3    H264539   2.580   5.426   0.235  0.3092  0.8558 -2.7749
14350TIP3   OH264540   0.489   0.988   4.324  0.1212  0.0414  0.0131
14350TIP3    H164541   0.531   1.061   4.280  0.5910 -0.1413  0.1527
14350TIP3    H264542   0.547   0.967   4.398 -1.3143  1.2273  1.5629
14351TIP3   OH264543   0.314   2.249  11.539  0.2645  0.5214 -0.2286
14351TIP3    H164544   0.256   2.184  11.499 -0.0537  1.2253 -0.9386
14351TIP3    H264545   0.286   2.333  11.501  2.7871  0.7211 -1.9042
14352TIP3   OH264546   5.926   1.109   2.396  0.1433 -0.2425  0.2287
14352TIP3    H164547   5.962   1.179   2.341  0.8557  0.2401  1.2787
14352TIP3    H264548   5.878   1.155   2.465  0.9886 -0.7411  1.1828
14353TIP3   OH264549   1.760   5.532   5.388  0.7636 -0.0697 -0.0415
14353TIP3    H164550   1.687   5.505   5.332  0.7813 -0.2643  0.0298
14353TIP3    H264551   1.834   5.541   5.328  0.8125 -0.3976 -0.0321
14354TIP3   OH264552   0.329   0.837   2.474 -0.3601 -0.0371 -0.5429
14354TIP3    H164553   0.238   0.864   2.489 -0.1827  0.1909  0.2072
14354TIP3    H264554   0.377   0.919   2.464 -0.3422 -0.1706 -1.6966
14355TIP3   OH264555   0.630   5.203   3.687 -0.0919 -0.1356  0.4312
14355TIP3    H164556   0.630   5.299   3.680 -0.3791 -0.1791 -0.1887
14355TIP3    H264557   0.692   5.174   3.621 -1.5963 -0.4702 -0.8785
14356TIP3   OH264558   6.388   5.332  12.139 -0.2317  0.7184  0.6320
14356TIP3    H164559   6.438   5.252  12.154  0.9850  1.2833 -0.2313
14356TIP3    H264560   6.302   5.302  12.111  0.0373 -0.2864  0.8465
14357TIP3   OH264561   5.533   6.102   3.749 -0.5542 -0.0032 -0.3583
14357TIP3    H164562   5.531   6.085   3.843 -1.5911  0.1493 -0.3387
14357TIP3    H264563   5.444   6.131   3.729  0.3440  2.6599 -0.8783
14358TIP3   OH264564   5.776   2.750   0.943  0.0848  0.4176  0.0714
14358TIP3    H164565   5.805   2.699   0.867  0.2014  0.0427  0.3627
14358TIP3    H264566   5.681   2.740   0.944  0.0359  0.8248 -0.3068
14359TIP3   OH264567   1.748   5.099   4.557  0.2081  0.2002 -0.4174
14359TIP3    H164568   1.792   5.094   4.642 -1.8495 -1.1034  0.6427
14359TIP3    H264569   1.689   5.174   4.564 -0.7347 -0.5415 -0.2880
14360TIP3   OH264570   2.910   1.077  13.642 -0.0360  0.3470  0.7275
14360TIP3    H164571   2.818   1.067  13.665 -0.0852 -0.0130  0.3832
14360TIP3    H264572   2.941   0.987  13.629  0.1746  0.5055  0.1115
14361TIP3   OH264573   5.246   4.192  13.421  0.2200  0.2392 -0.0836
14361TIP3    H164574   5.206   4.271  13.456 -1.4941 -0.9992  0.9304
14361TIP3    H264575   5.318   4.173  13.481 -0.1922  0.3242  0.4465
14362TIP3   OH264576   3.633   1.909   5.068  0.3408 -0.5771  0.3050
14362TIP3    H164577   3.713   1.884   5.112 -0.1236 -0.9235  0.9718
14362TIP3    H264578   3.563   1.878   5.126 -0.3050 -1.7495 -1.0416
14363TIP3   OH264579   3.277   0.890   4.969  0.0721 -0.4129 -0.3261
14363TIP3    H164580   3.232   0.864   4.889 -0.2000  1.5411 -0.8786
14363TIP3    H264581   3.215   0.872   5.039 -1.9622  2.6700 -1.1109
14364TIP3   OH264582   0.211   3.235  12.528 -0.0143  0.1367  0.2501
14364TIP3    H164583   0.180   3.303  12.587 -2.2513  0.0270 -0.7177
14364TIP3    H264584   0.276   3.279  12.472 -1.1389  1.3996 -0.1054
14365TIP3   OH264585   4.017   0.729   5.421  0.8897  0.2005  0.3465
14365TIP3    H164586   4.059   0.644   5.437 -0.7030 -0.6833  0.0256
14365TIP3    H264587   4.009   0.768   5.508  1.5393 -0.0137  0.5086
14366TIP3   OH264588   2.775   6.642   6.232 -0.2953 -0.2996  0.3618
14366TIP3    H164589   2.758   6.574   6.297 -0.7408  1.4611  2.1685
14366TIP3    H264590   2.691   6.686   6.221  0.1735  0.4878 -0.1710
14367TIP3   OH264591   0.131   3.679   5.100  0.6257  0.1087 -0.1405
14367TIP3    H164592   0.108   3.676   5.007  0.5319 -0.8474 -0.1025
14367TIP3    H264593   0.059   3.632   5.143  0.5516  0.7432  0.4452
14368TIP3   OH264594   1.328   1.546   1.839 -0.3011  0.1977 -0.1697
14368TIP3    H164595   1.284   1.605   1.901  0.3237  0.1737  0.3033
14368TIP3    H264596   1.289   1.460   1.856 -0.5672  0.3003 -0.2411
14369TIP3   OH264597   6.338   1.858  15.902  0.0853 -0.1265  0.3891
14369TIP3    H164598   6.396   1.832  15.830  0.0779 -1.2727  0.7730
14369TIP3    H264599   6.251   1.861  15.863  0.0824 -0.7337  0.3462
14370TIP3   OH264600   2.573   0.614  14.661  0.3704  0.3070 -0.1794
14370TIP3    H164601   2.579   0.519  14.673 -0.1352  0.4546  1.5514
14370TIP3    H264602   2.582   0.649  14.749  1.5616  1.9464 -0.9032
14371TIP3   OH264603   4.972   3.171  14.126 -0.1196 -0.1709 -0.0450
14371TIP3    H164604   4.893   3.117  14.128 -0.4697  0.2823 -1.1976
14371TIP3    H264605   4.939   3.260  14.110  0.6625 -0.0603 -1.0654
14372TIP3   OH264606   6.391   1.445   2.002  0.0336  0.4812  0.3940
14372TIP3    H164607   6.375   1.489   2.086  0.8741 -0.1681  0.9207
14372TIP3    H264608   6.361   1.355   2.017  1.2162  0.0714  0.3808
14373TIP3   OH264609   2.494   5.305   4.420 -0.2442  0.1925  0.0230
14373TIP3    H164610   2.463   5.280   4.333 -0.5337 -1.6013  0.5974
14373TIP3    H264611   2.499   5.222   4.468 -0.3849  1.1742  1.8108
14374TIP3   OH264612   1.479   2.015   4.237  0.1299  0.2394 -0.5542
14374TIP3    H164613   1.489   1.920   4.244  1.0309  0.3535 -0.0195
14374TIP3    H264614   1.443   2.029   4.150 -3.7958 -0.8023  0.7114
14375TIP3   OH264615   2.199   1.930   0.614  1.1638 -0.2269 -0.3714
14375TIP3    H164616   2.192   1.835   0.617  1.4141 -0.2221  0.8364
14375TIP3    H264617   2.110   1.960   0.601  1.2541 -0.6506 -2.2227
14376TIP3   OH264618   2.851   0.181   4.546 -0.3222 -0.2085 -0.5898
14376TIP3    H164619   2.888   0.170   4.458 -0.4675 -0.8790 -0.5696
14376TIP3    H264620   2.826   0.093   4.573  2.9562 -0.6392  1.6074
14377TIP3   OH264621   4.531   6.130  11.001 -0.1361  0.2397  0.5840
14377TIP3    H164622   4.461   6.188  11.032  0.3338  1.4139 -0.4899
14377TIP3    H264623   4.502   6.101  10.915  0.4084  0.2399  0.3966
14378TIP3   OH264624   5.963   1.755   2.059  0.1256 -0.2847 -0.1601
14378TIP3    H164625   5.930   1.823   2.001 -1.0657 -0.4342  0.3083
14378TIP3    H264626   6.002   1.802   2.132  0.8347 -0.1029 -0.6487
14379TIP3   OH264627   5.263   4.518   2.059 -0.2809 -0.1033 -0.1043
14379TIP3    H164628   5.220   4.493   2.141  0.6012 -0.2470  0.3295
14379TIP3    H264629   5.258   4.613   2.057 -0.6357 -0.1210 -0.0655
14380TIP3   OH264630   1.941   6.401   2.745 -0.5729  0.4512  0.1452
14380TIP3    H164631   2.021   6.448   2.769  0.1856 -0.4581 -0.5402
14380TIP3    H264632   1.907   6.368   2.828 -0.6589  1.4747  0.5319
14381TIP3   OH264633   1.993   5.679  11.375 -0.5548 -0.5158  0.1569
14381TIP3    H164634   2.065   5.680  11.313 -1.2653 -0.0913 -0.6731
14381TIP3    H264635   1.953   5.765  11.369 -1.6979 -1.0419 -0.0713
14382TIP3   OH264636   6.051   1.804   0.588 -0.0667 -0.0533 -0.8179
14382TIP3    H164637   5.979   1.791   0.650 -0.0194  1.5043 -0.3825
14382TIP3    H264638   6.013   1.860   0.520  0.9952  1.7302 -0.0059
14383TIP3   OH264639   1.247   1.758  14.521 -0.1559 -0.0999 -0.1943
14383TIP3    H164640   1.179   1.714  14.573  0.4929  1.2084  1.8665
14383TIP3    H264641   1.327   1.744  14.571  0.0889  3.3688  0.6327
14384TIP3   OH264642   6.417   4.729   0.150 -0.0580  0.4665 -0.3840
14384TIP3    H164643   6.390   4.639   0.165 -1.4377  0.6248 -1.6905
14384TIP3    H264644   6.449   4.759   0.235 -0.9916 -0.7779  0.4316
14385TIP3   OH264645   0.311   2.776   1.645  0.0093 -0.1277 -0.0293
14385TIP3    H164646   0.376   2.806   1.709  0.1266  0.1063 -0.2581
14385TIP3    H264647   0.231   2.824   1.667 -0.0597 -0.3389  0.1871
14386TIP3   OH264648   0.640   6.015  11.673 -0.4227 -0.2390  0.4338
14386TIP3    H164649   0.655   6.094  11.726 -2.0475 -0.1196  0.7557
14386TIP3    H264650   0.615   5.948  11.736 -0.7683 -0.5421 -0.0210
14387TIP3   OH264651   1.027   2.877   1.024 -0.3915  0.6303  0.5983
14387TIP3    H164652   0.953   2.850   0.970 -2.0711  1.1330  2.5206
14387TIP3    H264653   0.987   2.922   1.099  1.7570 -0.5776  2.6023
14388TIP3   OH264654   2.838   0.591  12.125  0.0466 -0.4563  0.3219
14388TIP3    H164655   2.926   0.556  12.122 -0.0081 -0.8851  2.4599
14388TIP3    H264656   2.847   0.682  12.097  1.5483  0.1277  2.5211
14389TIP3   OH264657   3.514   0.365  15.000 -0.3753 -0.0555 -0.1236
14389TIP3    H164658   3.431   0.344  14.958  0.0674 -0.0457 -1.0204
14389TIP3    H264659   3.499   0.451  15.040 -1.0243 -0.3891  0.3604
14390TIP3   OH264660   4.422   1.880  14.051  0.1211  0.0518 -0.2158
14390TIP3    H164661   4.468   1.824  13.989  0.0100 -0.5190  0.2115
14390TIP3    H264662   4.353   1.921  13.999 -2.4877 -3.3110  0.2186
14391TIP3   OH264663   0.020   0.100   0.802 -0.0874 -0.4763 -0.8339
14391TIP3    H164664   0.036   0.050   0.722 -1.6459  0.5868 -1.8811
14391TIP3    H264665  -0.058   0.153   0.781  2.4458  3.8171 -0.5691
14392TIP3   OH264666   1.659   5.961  10.505  0.0817 -0.1174 -0.7068
14392TIP3    H164667   1.588   5.923  10.454 -0.3880  0.8648 -0.7933
14392TIP3    H264668   1.644   6.055  10.502  0.7052  0.0292  0.2797
14393TIP3   OH264669   1.999   1.794   4.265  0.0527 -0.3981  0.0813
14393TIP3    H164670   1.994   1.888   4.249  0.1645  0.0142  2.2111
14393TIP3    H264671   1.967   1.783   4.354  1.8630 -2.1505  0.5698
14394TIP3   OH264672   3.758   5.972   2.308 -0.0549 -0.0617  0.3251
14394TIP3    H164673   3.776   5.893   2.359  0.1514 -0.2881 -0.0848
14394TIP3    H264674   3.663   5.972   2.297 -0.1780  0.3882  1.3280
14395TIP3   OH264675   2.176   1.212  14.726 -0.1762  0.1033 -0.2500
14395TIP3    H164676   2.090   1.252  14.742 -0.1650  0.7411 -1.6643
14395TIP3    H264677   2.233   1.253  14.791 -0.2539  2.1440 -1.3918
14396TIP3   OH264678   4.189   2.679   3.429  0.0487  0.7042 -0.1032
14396TIP3    H164679   4.222   2.768   3.443  1.4347  0.4498 -1.4307
14396TIP3    H264680   4.266   2.623   3.443 -1.1843 -0.5278  2.5864
14397TIP3   OH264681   2.458   3.812  12.498 -0.2084 -0.5999  0.0539
14397TIP3    H164682   2.368   3.843  12.488  0.7715  2.0106 -1.8864
14397TIP3    H264683   2.478   3.824  12.591 -1.0024  1.5280 -0.0130
14398TIP3   OH264684   0.317   2.395   4.780 -0.0745 -0.4990  0.2254
14398TIP3    H164685   0.405   2.384   4.743 -0.2244 -1.6976  0.1651
14398TIP3    H264686   0.282   2.473   4.738  0.6515 -0.4858 -0.3716
14399TIP3   OH264687   1.827   3.937  13.694  0.1966 -0.5265  0.3862
14399TIP3    H164688   1.814   3.912  13.785  0.4156 -0.9346  0.3096
14399TIP3    H264689   1.854   3.856  13.651 -4.5506 -1.6262 -1.0696
14400TIP3   OH264690   3.599   3.143  10.519  0.1447 -0.1911 -0.2749
14400TIP3    H164691   3.661   3.071  10.531  0.9024  0.5205  0.1815
14400TIP3    H264692   3.651   3.214  10.480 -0.7294 -0.0962 -1.3436
14401TIP3   OH264693   4.837   3.598  12.905 -0.8996 -0.3310  0.5144
14401TIP3    H164694   4.919   3.630  12.940 -0.6556 -1.2687  0.8172
14401TIP3    H264695   4.815   3.660  12.834 -0.0741  0.0599  0.5955
14402TIP3   OH264696   5.431   4.232   0.414 -0.8243 -0.4739 -0.0549
14402TIP3    H164697   5.461   4.281   0.337 -1.3099 -0.9401 -0.5558
14402TIP3    H264698   5.502   4.241   0.477 -1.6434  2.4445  0.6073
14403TIP3   OH264699   3.555   2.359   1.741  0.1700 -0.5710 -0.0350
14403TIP3    H164700   3.551   2.331   1.832  0.4986 -2.5486 -0.5983
14403TIP3    H264701   3.587   2.283   1.693 -1.4423 -0.0880 -2.0298
14404TIP3   OH264702   5.930   4.023   1.207 -0.0416 -0.1453 -0.0877
14404TIP3    H164703   5.842   4.053   1.229 -0.6075 -0.6109 -1.6197
14404TIP3    H264704   5.930   3.930   1.231  0.5158  0.1583  1.2037
14405TIP3   OH264705   4.349   2.689  15.230 -0.0950  0.2175 -0.7744
14405TIP3    H164706   4.402   2.637  15.169  1.8339  0.3818  0.6429
14405TIP3    H264707   4.343   2.634  15.308 -0.7830  0.8235 -0.3982
14406TIP3   OH264708   1.856   1.840   5.583 -0.3185  0.1067  0.0025
14406TIP3    H164709   1.903   1.763   5.615 -0.0301  0.6415  0.9283
14406TIP3    H264710   1.781   1.805   5.535 -0.2152 -0.7514  0.4471
14407TIP3   OH264711   6.596   3.861  11.489  0.3528  0.4239  0.1567
14407TIP3    H164712   6.568   3.952  11.502  0.8841  0.5383  0.5573
14407TIP3    H264713   6.605   3.826  11.578 -0.8738 -0.3556 -0.0029
14408TIP3   OH264714   4.897   2.134   3.843  0.1649 -0.2152  0.5785
14408TIP3    H164715   4.880   2.172   3.930 -0.4035  1.3909 -0.1846
14408TIP3    H264716   4.966   2.188   3.806 -1.3607  0.8250 -0.9442
14409TIP3   OH264717   6.057   2.837  12.081  0.0471  0.1949  0.4072
14409TIP3    H164718   6.122   2.886  12.030  0.8825  0.3581  1.5853
14409TIP3    H264719   5.986   2.820  12.019  1.0462  0.3295 -0.8223
14410TIP3   OH264720   4.304   6.623  15.146 -0.6186 -0.5102 -0.2593
14410TIP3    H164721   4.386   6.614  15.194 -0.3838 -0.4645 -0.6503
14410TIP3    H264722   4.249   6.552  15.179 -0.1112 -1.0848 -0.6276
14411TIP3   OH264723   1.980   5.164  14.571  0.1227  1.0368  0.0878
14411TIP3    H164724   2.040   5.131  14.504 -0.4699  1.2750 -0.5723
14411TIP3    H264725   1.932   5.086  14.600 -0.0483  1.0337 -0.2046
14412TIP3   OH264726   3.515   2.109  15.863  0.0255  0.1863  0.3795
14412TIP3    H164727   3.541   2.141  15.950 -2.0395 -2.2393  2.0227
14412TIP3    H264728   3.520   2.014  15.869 -1.4864 -0.1063 -1.7215
14413TIP3   OH264729   0.069   0.826  14.676  1.1105 -0.1734  0.1700
14413TIP3    H164730   0.019   0.803  14.755 -1.1555  0.0453 -1.1365
14413TIP3    H264731   0.076   0.921  14.679 -0.1600 -0.0341 -0.5186
14414TIP3   OH264732   3.790   3.324   0.570 -0.1682 -0.4955  0.4723
14414TIP3    H164733   3.876   3.366   0.560 -0.1734 -0.5531  0.1785
14414TIP3    H264734   3.778   3.316   0.664 -0.1981  0.2299  0.5369
14415TIP3   OH264735   5.758   5.684  13.047 -0.4755  0.3859  0.4591
14415TIP3    H164736   5.785   5.626  12.976 -1.0347 -2.0284  2.1040
14415TIP3    H264737   5.673   5.718  13.019 -1.2013 -1.3983  0.4089
14416TIP3   OH264738   2.032   2.833  13.206  0.0653 -0.3214  0.1894
14416TIP3    H164739   2.102   2.792  13.257  1.7364 -0.3130 -1.9197
14416TIP3    H264740   2.068   2.919  13.182  0.0422 -0.9228 -2.2293
14417TIP3   OH264741   1.950   6.552  12.622 -0.1813  0.2923 -0.4243
14417TIP3    H164742   1.931   6.638  12.659 -1.0913  0.2271 -0.7149
14417TIP3    H264743   1.928   6.561  12.529  1.8253  0.3857 -0.9248
14418TIP3   OH264744   1.406   1.114   3.079  0.5701 -0.1960 -0.0316
14418TIP3    H164745   1.490   1.107   3.034  0.4896  0.2673 -0.2574
14418TIP3    H264746   1.427   1.099   3.171  0.7273 -1.1848 -0.2224
14419TIP3   OH264747   5.067   5.863   0.581  0.3258  0.4570  0.5664
14419TIP3    H164748   5.103   5.952   0.583  0.9997  0.1784  1.2231
14419TIP3    H264749   5.126   5.814   0.524  0.5423  0.1911  1.0119
14420TIP3   OH264750   4.071   1.251  14.645  0.1083 -0.2031 -0.4410
14420TIP3    H164751   4.118   1.178  14.605 -1.6112 -1.1682 -0.7733
14420TIP3    H264752   4.140   1.314  14.668  1.6371 -1.9107 -0.1227
14421TIP3   OH264753   1.461   1.680   6.523  0.6331  1.0045 -0.2450
14421TIP3    H164754   1.373   1.718   6.522  0.1182  0.0807  2.1692
14421TIP3    H264755   1.449   1.590   6.493  0.3804  0.3449  1.6724
14422TIP3   OH264756   5.623   3.012  16.794 -0.2666 -0.5159 -0.5364
14422TIP3    H164757   5.577   3.082  16.840  0.3599  0.0436 -0.7440
14422TIP3    H264758   5.677   2.971  16.862 -0.7605 -0.9110 -0.3782
14423TIP3   OH264759   5.714   2.691  11.701  0.1441 -0.0387 -0.3343
14423TIP3    H164760   5.646   2.743  11.657 -0.7611  0.0573  1.1050
14423TIP3    H264761   5.792   2.702  11.647 -0.7518  0.5687 -1.5549
14424TIP3   OH264762   6.232   4.920  13.436  0.5019  0.5375 -0.7503
14424TIP3    H164763   6.274   5.004  13.452  1.6085 -0.1369  0.0922
14424TIP3    H264764   6.206   4.890  13.523  2.4168 -1.1114 -0.6712
14425TIP3   OH264765   2.997   1.808   5.877  0.3427  0.2421  0.2973
14425TIP3    H164766   3.035   1.750   5.811  1.7692 -0.5155  1.7340
14425TIP3    H264767   3.041   1.785   5.958 -1.1497  1.3622  1.4855
14426TIP3   OH264768   6.250   6.382  14.971 -0.0638  0.0096  0.4723
14426TIP3    H164769   6.337   6.343  14.961  0.2559  0.8049 -0.0094
14426TIP3    H264770   6.256   6.465  14.922 -0.2883  1.3226  2.5597
14427TIP3   OH264771   5.588   6.805  15.114 -0.7164 -0.1140 -0.7348
14427TIP3    H164772   5.589   6.758  15.198  1.1255  0.8593 -0.1516
14427TIP3    H264773   5.597   6.897  15.138  0.5487  0.1295 -2.0032
14428TIP3   OH264774   2.755   2.639  16.712  0.0646  0.0592  0.0778
14428TIP3    H164775   2.769   2.734  16.710 -0.5813  0.1667 -1.3621
14428TIP3    H264776   2.767   2.614  16.803  4.0127  0.8994 -0.0301
14429TIP3   OH264777   1.917   1.378   3.016  0.0337 -0.3854 -0.4158
14429TIP3    H164778   1.957   1.395   2.931  0.3000 -1.5857 -0.5545
14429TIP3    H264779   1.937   1.455   3.068  1.2717 -0.3281 -0.9510
14430TIP3   OH264780   0.532   0.355  16.276  0.1216 -0.0873  1.0694
14430TIP3    H164781   0.563   0.267  16.297  0.6014 -0.4746 -1.0556
14430TIP3    H264782   0.477   0.343  16.199  1.4895  1.6558 -0.2570
14431TIP3   OH264783   2.190   3.607   0.514  0.3978 -0.0446  0.1789
14431TIP3    H164784   2.166   3.519   0.543 -0.3000  0.3641  0.8644
14431TIP3    H264785   2.193   3.600   0.418  0.4555 -0.8308  0.2292
14432TIP3   OH264786   0.204   2.399   3.013 -0.6386  0.3066 -0.1357
14432TIP3    H164787   0.186   2.349   3.092  0.8866  0.8900  0.6155
14432TIP3    H264788   0.169   2.346   2.942 -0.7622 -0.9028  0.8067
14433TIP3   OH264789   2.114   2.609  11.441 -0.6171  0.2782  0.6248
14433TIP3    H164790   2.029   2.566  11.448 -0.6090  0.1711  0.0895
14433TIP3    H264791   2.161   2.582  11.519 -0.8737 -0.1106  0.6471
14434TIP3   OH264792   1.379   6.804   4.225  0.0820  0.1321 -0.3803
14434TIP3    H164793   1.468   6.771   4.216  0.3115 -0.1855  2.2303
14434TIP3    H264794   1.340   6.748   4.292 -1.8364  0.7564 -0.9204
14435TIP3   OH264795   2.845   1.878  16.662  0.6836 -0.1787  0.1361
14435TIP3    H164796   2.773   1.850  16.719  0.3932  0.7111  0.2298
14435TIP3    H264797   2.874   1.961  16.700  2.2923 -0.8941  0.5641
14436TIP3   OH264798   4.779   2.260  13.599 -0.0142  0.2831  0.0731
14436TIP3    H164799   4.698   2.216  13.573 -0.4002  1.5271 -0.9686
14436TIP3    H264800   4.750   2.342  13.639  0.7150  0.2058  0.7895
14437TIP3   OH264801   0.990   3.425   6.457  0.0422 -0.0563 -0.2515
14437TIP3    H164802   1.074   3.431   6.410  1.0255  2.0110  1.5905
14437TIP3    H264803   0.940   3.501   6.427  0.5951  1.1618  1.7400
14438TIP3   OH264804   3.049   3.683  15.630 -0.0352 -0.0658  0.2430
14438TIP3    H164805   3.021   3.728  15.709  1.1598  0.5468  0.3527
14438TIP3    H264806   3.082   3.753  15.573 -0.4339 -0.5465 -0.6074
14439TIP3   OH264807   0.462   0.709  13.059  0.0945 -0.7363  0.1219
14439TIP3    H164808   0.480   0.776  12.993  0.5279  0.6177  1.5414
14439TIP3    H264809   0.384   0.741  13.105  0.9101 -0.6095  1.5007
14440TIP3   OH264810   6.199   5.319  13.185 -0.3552  0.3170 -0.2606
14440TIP3    H164811   6.204   5.319  13.281 -0.2723  0.8496 -0.2628
14440TIP3    H264812   6.125   5.376  13.165 -0.3792  0.1971 -0.5186
14441TIP3   OH264813   5.014   5.938  16.476 -0.2879 -0.3738 -0.4427
14441TIP3    H164814   5.027   6.031  16.497  0.6388 -0.6009  0.0381
14441TIP3    H264815   5.053   5.891  16.550 -1.9481 -1.1589 -0.0017
14442TIP3   OH264816   0.998   2.522  15.840 -0.0164  0.0716 -0.4425
14442TIP3    H164817   1.032   2.612  15.840 -2.2365  1.0121  1.2887
14442TIP3    H264818   0.905   2.532  15.820 -0.5139 -1.7459  0.7707
14443TIP3   OH264819   2.675   0.456   2.353  0.6442 -0.5254  0.7567
14443TIP3    H164820   2.613   0.407   2.300  1.7042  0.5978 -1.6404
14443TIP3    H264821   2.625   0.480   2.431 -1.3992 -1.1182 -0.3052
14444TIP3   OH264822   1.236   0.571   1.499  0.5040  0.0189 -0.1530
14444TIP3    H164823   1.285   0.623   1.563 -1.1725  0.6552  0.6595
14444TIP3    H264824   1.189   0.636   1.447  0.6229 -0.5744 -1.0228
14445TIP3   OH264825   6.223   6.373  12.548  0.5167 -0.5996 -0.1833
14445TIP3    H164826   6.310   6.359  12.510  1.0903 -0.9689  1.2022
14445TIP3    H264827   6.192   6.286  12.572  0.0656 -0.4025 -0.0298
14446TIP3   OH264828   3.601   6.695   2.488  0.1535 -0.1449 -0.1966
14446TIP3    H164829   3.510   6.667   2.473  1.0063 -3.2698 -0.2571
14446TIP3    H264830   3.609   6.701   2.583 -0.1867  0.4785 -0.2028
14447TIP3   OH264831   3.561   0.107  16.156  0.1147  0.3933  0.5077
14447TIP3    H164832   3.492   0.129  16.093  0.2398 -2.1222 -0.6121
14447TIP3    H264833   3.611   0.188  16.165 -0.2888  1.0358 -2.1642
14448TIP3   OH264834   0.476   4.047  15.080  0.0760 -0.3401 -0.2083
14448TIP3    H164835   0.460   4.031  14.987  0.9073  0.8090 -0.5724
14448TIP3    H264836   0.512   3.964  15.112  0.0994 -0.6454 -0.9840
14449TIP3   OH264837   4.221   0.757  13.616  0.5699 -0.1175  0.0691
14449TIP3    H164838   4.178   0.724  13.538  1.4806 -1.3150  0.0496
14449TIP3    H264839   4.314   0.762  13.593  0.9399 -1.0394  1.2246
14450TIP3   OH264840   1.559   1.423   5.454 -0.8040 -0.0043 -0.2558
14450TIP3    H164841   1.482   1.400   5.506 -2.1187  2.3301 -1.0008
14450TIP3    H264842   1.524   1.447   5.368  0.4568  2.7202 -0.1395
14451TIP3   OH264843   3.555   5.249  13.285 -0.0733 -0.1325 -0.1195
14451TIP3    H164844   3.631   5.206  13.245 -0.5707  0.5311 -1.8727
14451TIP3    H264845   3.484   5.186  13.274  0.0604 -0.4883  0.9437
14452TIP3   OH264846   4.438   2.939   0.009 -0.1431 -0.3727 -0.9566
14452TIP3    H164847   4.507   2.889  -0.033  0.4184 -0.4009 -0.0437
14452TIP3    H264848   4.467   3.030   0.002  1.2910 -0.5364  1.5741
14453TIP3   OH264849   4.988   2.707   0.159  0.2049 -0.1857  0.0933
14453TIP3    H164850   5.042   2.775   0.197  0.6802 -1.0310  0.9802
14453TIP3    H264851   5.000   2.631   0.217 -3.0489 -0.0110  1.2084
14454TIP3   OH264852   2.440   1.119  13.477 -0.0868 -0.0521 -0.3770
14454TIP3    H164853   2.389   1.135  13.557 -0.6716  0.5901 -0.8673
14454TIP3    H264854   2.393   1.049  13.432 -1.1513  1.2047 -1.3155
14455TIP3   OH264855   3.103   0.781  17.073 -0.0159  0.4590 -0.2059
14455TIP3    H164856   3.033   0.824  17.123 -0.5366 -1.6397  0.9815
14455TIP3    H264857   3.170   0.762  17.138  0.8022  0.6685 -0.9732
14456TIP3   OH264858   1.236   2.966  14.896 -0.2863  0.2758  0.0175
14456TIP3    H164859   1.154   2.974  14.944 -0.4493  0.8125 -0.3351
14456TIP3    H264860   1.261   3.056  14.877  0.2100  0.1010 -0.1683
14457TIP3   OH264861   3.336   2.209   1.879 -0.5540  0.1702  0.1490
14457TIP3    H164862   3.337   2.285   1.821  1.0435  0.6830  0.7720
14457TIP3    H264863   3.249   2.171   1.868 -0.1815 -0.0644 -2.9316
14458TIP3   OH264864   1.734   4.792  11.622  0.2129 -0.6306 -0.5196
14458TIP3    H164865   1.692   4.869  11.582  0.1815 -1.3161 -1.8523
14458TIP3    H264866   1.722   4.805  11.717  1.1215  1.5215 -0.6393
14459TIP3   OH264867   4.995   6.798  12.401 -0.0818  0.4525  0.0056
14459TIP3    H164868   4.969   6.833  12.316  1.5462 -1.0148 -1.1867
14459TIP3    H264869   5.062   6.732  12.380 -0.9793 -1.3327  2.2799
14460TIP3   OH264870   3.925   5.038  12.067  0.4024  0.5445 -0.0501
14460TIP3    H164871   3.903   4.954  12.106  1.7044  0.6969  1.1146
14460TIP3    H264872   4.010   5.024  12.025  1.6122  1.6904  1.8340
14461TIP3   OH264873   2.752   3.492   2.932  0.1113 -0.1965 -0.3210
14461TIP3    H164874   2.771   3.496   2.838 -0.4609  0.3774 -0.4152
14461TIP3    H264875   2.732   3.400   2.948 -0.5463 -0.1712 -0.9163
14462TIP3   OH264876   5.247   3.398   1.493 -0.3664  0.3367 -0.5647
14462TIP3    H164877   5.213   3.346   1.419 -0.4249  0.6023 -0.7233
14462TIP3    H264878   5.339   3.374   1.498  0.1148  1.7570 -1.9595
14463TIP3   OH264879   0.574   4.071  13.961 -0.0957  0.4416  0.1122
14463TIP3    H164880   0.620   3.995  13.996 -0.9435  0.0405  0.3794
14463TIP3    H264881   0.482   4.058  13.987 -0.2366  1.5976  0.2531
14464TIP3   OH264882   6.271   4.355   0.780  0.4519  0.2571  0.3262
14464TIP3    H164883   6.232   4.433   0.819  0.1994 -0.1805  0.9665
14464TIP3    H264884   6.299   4.303   0.855 -0.7633 -0.9697 -0.0389
14465TIP3   OH264885   5.429   0.937   4.445 -0.0277  0.1232 -0.4789
14465TIP3    H164886   5.510   0.988   4.450  0.5192 -0.8320  0.7835
14465TIP3    H264887   5.438   0.887   4.363  1.1353 -0.7243  0.1401
14466TIP3   OH264888   6.535   5.090  16.016 -0.2535 -0.3487 -0.2119
14466TIP3    H164889   6.533   5.126  16.105 -0.4695  1.6983 -1.0031
14466TIP3    H264890   6.605   5.025  16.018 -0.3654 -0.4707  1.4762
14467TIP3   OH264891   3.957   1.500  15.847 -0.0931  0.1981 -0.4693
14467TIP3    H164892   3.934   1.493  15.939  3.0464 -0.2138  0.3991
14467TIP3    H264893   3.941   1.412  15.811 -0.6036  0.1536 -0.1319
14468TIP3   OH264894   5.933   4.897  16.720  0.8924 -0.4172  0.2351
14468TIP3    H164895   5.854   4.853  16.691  0.1505  0.5143  0.7973
14468TIP3    H264896   5.949   4.964  16.654  0.8870 -0.2243  0.4284
14469TIP3   OH264897   1.512   2.506  11.482  0.2645  0.0845 -0.2120
14469TIP3    H164898   1.578   2.437  11.475 -1.2646 -1.4251 -0.4967
14469TIP3    H264899   1.530   2.564  11.408  0.0495 -1.4409 -1.5216
14470TIP3   OH264900   1.377   1.309  17.028 -0.2890 -0.0511  0.2163
14470TIP3    H164901   1.288   1.277  17.043 -0.1967 -0.1944  0.4611
14470TIP3    H264902   1.374   1.401  17.055 -0.1192 -0.3131  1.1411
14471TIP3   OH264903   6.280   0.692   1.621 -0.3979 -0.1936 -0.3395
14471TIP3    H164904   6.266   0.761   1.685 -0.1764  1.2386 -1.7763
14471TIP3    H264905   6.207   0.631   1.635  0.0752 -0.3398  1.7507
14472TIP3   OH264906   1.871   2.678  14.733 -0.3955 -0.2889 -0.4231
14472TIP3    H164907   1.961   2.646  14.739 -0.2597 -0.3727 -2.2959
14472TIP3    H264908   1.844   2.656  14.644 -2.0443  0.3433 -0.1111
14473TIP3   OH264909   3.717   2.525  12.914 -0.0449 -0.2785  0.0279
14473TIP3    H164910   3.710   2.578  12.835  0.9534 -2.4242 -1.6224
14473TIP3    H264911   3.810   2.527  12.937  0.1565 -1.7801 -0.4979
14474TIP3   OH264912   0.329   3.188   4.045 -0.0898  0.2657  0.6918
14474TIP3    H164913   0.329   3.179   4.140 -0.2899 -0.2082  0.6512
14474TIP3    H264914   0.421   3.198   4.021 -0.0220  0.1796  0.9186
14475TIP3   OH264915   2.295   1.080   2.509 -0.4676 -0.5867 -0.1602
14475TIP3    H164916   2.371   1.023   2.516  0.8021  1.0303 -0.2735
14475TIP3    H264917   2.246   1.065   2.590  0.4357 -1.0005  0.3276
14476TIP3   OH264918   2.850   6.627   0.438 -0.3961 -0.4267  0.2155
14476TIP3    H164919   2.763   6.610   0.475  0.3538 -2.0182  1.3382
14476TIP3    H264920   2.844   6.598   0.347 -0.1342 -3.8459  1.1755
14477TIP3   OH264921   1.056   1.221   1.168 -0.0087 -0.2642 -0.2251
14477TIP3    H164922   1.113   1.249   1.240 -1.8219  1.1970  0.7141
14477TIP3    H264923   1.110   1.233   1.090  1.1897  0.4391  0.6656
14478TIP3   OH264924   2.151   4.772  16.128 -0.1092 -0.4180  0.3639
14478TIP3    H164925   2.200   4.851  16.107 -0.7907 -0.0715  0.0391
14478TIP3    H264926   2.168   4.713  16.055  1.7503 -1.2381  1.4001
14479TIP3   OH264927   3.074   1.371  11.125  0.4490 -1.1356 -0.2262
14479TIP3    H164928   2.984   1.388  11.154  0.2474  0.9969 -1.9084
14479TIP3    H264929   3.120   1.347  11.206 -0.5715  2.2847  1.5592
14480TIP3   OH264930   4.665   1.343   3.441 -0.1271  0.2576  0.2514
14480TIP3    H164931   4.609   1.268   3.423 -0.2345  0.7414 -1.6765
14480TIP3    H264932   4.719   1.316   3.514 -1.8815 -0.7626  1.2392
14481TIP3   OH264933   5.199   1.310  10.558 -0.2197 -0.0585  0.1012
14481TIP3    H164934   5.280   1.314  10.507 -0.9301  0.5330 -1.0022
14481TIP3    H264935   5.134   1.274  10.498 -0.9622  0.2169  0.7262
14482TIP3   OH264936   6.206   1.377  13.983  0.4254 -0.6301  0.6789
14482TIP3    H164937   6.292   1.343  14.007 -0.0725 -0.8679  2.2946
14482TIP3    H264938   6.178   1.426  14.060  0.0559  1.3769 -0.6636
14483TIP3   OH264939   5.633   4.829  12.810 -0.3369 -0.2191 -0.2751
14483TIP3    H164940   5.654   4.777  12.733 -1.4545 -1.0042 -0.0880
14483TIP3    H264941   5.545   4.799  12.835  0.0468 -0.0755  1.3672
14484TIP3   OH264942   4.455   6.831  16.121 -0.2860  0.7095  0.7568
14484TIP3    H164943   4.508   6.890  16.067 -0.0592  0.9167  1.1987
14484TIP3    H264944   4.373   6.877  16.134  0.2480  1.3853  1.9230
14485TIP3   OH264945   2.356   5.229  16.893 -0.5750 -0.0420 -0.2980
14485TIP3    H164946   2.294   5.204  16.824 -1.0548 -1.0334  0.4556
14485TIP3    H264947   2.348   5.324  16.899  1.1253  0.3709 -3.0981
14486TIP3   OH264948   1.629   0.497   4.537  0.6706  0.2093  0.2261
14486TIP3    H164949   1.666   0.558   4.473  0.2092  0.8809  0.5847
14486TIP3    H264950   1.620   0.549   4.617  2.4132 -0.9292  1.2516
14487TIP3   OH264951   6.214   4.834  13.723  0.5014  0.9727  0.0873
14487TIP3    H164952   6.173   4.753  13.690 -0.5444  1.5320 -0.0170
14487TIP3    H264953   6.182   4.842  13.813  0.5602  1.3067  0.0788
14488TIP3   OH264954   0.317   6.105   6.088  0.4529  0.0837 -0.1502
14488TIP3    H164955   0.230   6.091   6.050 -0.4802 -0.9304  2.1675
14488TIP3    H264956   0.329   6.032   6.149  2.3599  0.9305  0.5754
14489TIP3   OH264957   0.110   3.499   0.770  0.2924 -0.3088 -0.4443
14489TIP3    H164958   0.102   3.527   0.678 -1.8830  1.5177  0.2259
14489TIP3    H264959   0.030   3.450   0.787  0.8029 -0.8546  0.4148
14490TIP3   OH264960   1.986   5.786   1.740  0.5729 -0.5005 -0.1523
14490TIP3    H164961   1.896   5.811   1.719  0.9165  1.8264  0.8262
14490TIP3    H264962   2.021   5.861   1.788  2.9944 -1.4144 -0.3528
14491TIP3   OH264963   5.620   3.246  11.753  0.5900 -0.2844 -0.0346
14491TIP3    H164964   5.699   3.194  11.769  0.6270 -0.5474 -1.0215
14491TIP3    H264965   5.589   3.270  11.841  1.0497 -1.2608  0.4127
14492TIP3   OH264966   0.555   6.465  16.067  0.0636 -0.2344 -0.0857
14492TIP3    H164967   0.489   6.421  16.121  0.4466 -1.2075 -0.4037
14492TIP3    H264968   0.615   6.504  16.131 -0.5908  0.3305  0.1998
14493TIP3   OH264969   4.565   3.359   4.654 -0.0764  0.2781 -0.0638
14493TIP3    H164970   4.483   3.400   4.623 -1.5031 -0.5544  2.3639
14493TIP3    H264971   4.540   3.269   4.676  1.5407 -0.0438  0.5960
14494TIP3   OH264972   3.886   4.670   4.255  0.3257 -0.5124 -0.2280
14494TIP3    H164973   3.915   4.761   4.259  0.4979 -0.5383 -0.7725
14494TIP3    H264974   3.791   4.675   4.258  0.3699 -0.4220  1.4954
14495TIP3   OH264975   2.158   5.077   4.305  0.3308 -0.3459  0.1568
14495TIP3    H164976   2.079   5.080   4.250  0.1910 -0.2524  0.3593
14495TIP3    H264977   2.225   5.038   4.250  0.0274 -0.8214  0.1189
14496TIP3   OH264978   3.602   3.789   1.917 -0.4089 -0.4599  0.1867
14496TIP3    H164979   3.603   3.776   2.012 -1.8326 -2.9944 -0.0344
14496TIP3    H264980   3.577   3.704   1.882 -2.3207  0.9884 -2.3340
14497TIP3   OH264981   0.828   5.520  12.430 -0.0706 -0.3821 -0.1622
14497TIP3    H164982   0.780   5.579  12.489 -1.2826 -0.6832 -0.8140
14497TIP3    H264983   0.896   5.482  12.485  0.4385  1.2503  0.3902
14498TIP3   OH264984   0.460   6.506   4.233 -0.0409  0.7368  0.1031
14498TIP3    H164985   0.372   6.509   4.270 -1.2064 -0.0630 -2.3330
14498TIP3    H264986   0.457   6.569   4.161  1.0176 -0.0908 -0.7039
14499TIP3   OH264987   0.358   3.829  14.004  0.4024 -0.2014 -0.1153
14499TIP3    H164988   0.381   3.817  13.912 -0.8725 -1.4817 -0.2880
14499TIP3    H264989   0.267   3.800  14.011  0.8898 -1.4827  1.8065
14500TIP3   OH264990   5.851   5.559   6.241  0.2692 -0.5687 -0.4828
14500TIP3    H164991   5.920   5.623   6.260  0.8613 -1.7351  1.4914
14500TIP3    H264992   5.769   5.604   6.265  0.7419 -0.7732  1.7134
14501TIP3   OH264993   5.228   2.747   6.130 -0.2837  0.5500  0.3838
14501TIP3    H164994   5.212   2.682   6.198  2.3168  0.4527  0.9958
14501TIP3    H264995   5.192   2.708   6.050  1.0598 -1.6086  0.7556
14502TIP3   OH264996   4.245   0.391  16.301 -0.0743 -0.0614  0.2402
14502TIP3    H164997   4.244   0.458  16.233  0.9765 -1.0819 -0.8061
14502TIP3    H264998   4.160   0.400  16.345  0.4117  2.6165  0.8190
14503TIP3   OH264999   1.428   1.511   0.245  0.0168 -0.0453 -0.4352
14503TIP3    H165000   1.389   1.499   0.331 -1.9220  0.4809 -1.1726
14503TIP3    H265001   1.521   1.495   0.258 -0.2824 -0.3922  1.6528
14504TIP3   OH265002   5.245   5.064   3.248  0.7944 -0.2040  0.2344
14504TIP3    H165003   5.172   5.123   3.267  1.6689  1.1895 -0.5638
14504TIP3    H265004   5.301   5.070   3.326  1.1811  0.5143 -0.0886
14505TIP3   OH265005   2.845   1.999   2.386  0.0276  0.2998 -0.2072
14505TIP3    H165006   2.787   1.935   2.428  0.4209  1.0202  1.5040
14505TIP3    H265007   2.808   2.084   2.409 -0.5851  0.7584 -2.5903
14506TIP3   OH265008   4.399   1.134  14.381  0.4896 -0.1778  0.2058
14506TIP3    H165009   4.401   1.181  14.298  1.1528 -0.0185  0.3078
14506TIP3    H265010   4.339   1.061  14.365 -0.9039  0.9269  0.1792
14507TIP3   OH265011   3.072   5.344   5.012 -0.2800  0.3530 -0.5397
14507TIP3    H165012   2.993   5.394   4.990 -1.2309 -0.1854  1.4605
14507TIP3    H265013   3.093   5.369   5.102  0.4176 -1.3030 -0.1977
14508TIP3   OH265014   2.337   6.220   0.566 -0.0976 -0.0445 -0.2655
14508TIP3    H165015   2.271   6.283   0.537 -0.8128  1.8939  4.6789
14508TIP3    H265016   2.415   6.273   0.583  0.8909 -1.3517 -0.5414
14509TIP3   OH265017   6.269   0.203   0.940  0.6594  0.8419 -0.1011
14509TIP3    H165018   6.287   0.110   0.928 -0.7596  0.4078  0.7840
14509TIP3    H265019   6.278   0.241   0.853 -1.1380 -0.6041 -0.9995
14510TIP3   OH265020   5.688   0.497  10.826  0.1973 -0.0035  0.2967
14510TIP3    H165021   5.660   0.407  10.813 -1.3960  0.3040  1.4081
14510TIP3    H265022   5.767   0.505  10.771  1.5986 -2.6304  1.7398
14511TIP3   OH265023   1.529   3.012  11.008  0.3134 -0.2247  0.2111
14511TIP3    H165024   1.607   3.067  11.015  1.5756 -1.6674 -1.4304
14511TIP3    H265025   1.553   2.930  11.052 -0.8284 -0.1776  0.9602
14512TIP3   OH265026   3.629   6.278  11.642  0.0442  0.1931 -0.0766
14512TIP3    H165027   3.719   6.307  11.625  0.1479  0.8922  1.4526
14512TIP3    H265028   3.597   6.339  11.709 -0.5300 -1.8346  1.6253
14513TIP3   OH265029   5.102   6.166  11.961  1.0071  0.4135 -0.8451
14513TIP3    H165030   5.194   6.185  11.977  0.7446  1.0241  0.0112
14513TIP3    H265031   5.055   6.241  11.998  0.0944 -0.5677  0.0326
14514TIP3   OH265032   0.813   4.309  12.408  0.1331 -0.5158  0.1383
14514TIP3    H165033   0.807   4.214  12.413  0.8920 -0.6972 -1.6781
14514TIP3    H265034   0.907   4.327  12.406  0.0030  0.1469 -0.9372
14515TIP3   OH265035   0.251   3.068  15.103 -0.2301  0.4399 -0.4488
14515TIP3    H165036   0.298   3.093  15.024  0.5765  1.0771  0.2086
14515TIP3    H265037   0.310   3.009  15.149 -1.5529 -1.6482 -1.2980
14516TIP3   OH265038   1.892   3.849  12.046 -0.2122  0.6169 -0.1425
14516TIP3    H165039   1.828   3.843  12.117  2.0031  3.0175  2.3311
14516TIP3    H265040   1.864   3.925  11.995 -0.4465  0.4064 -0.3293
14517TIP3   OH265041   1.689   4.934   2.471  0.0597  0.3282  0.2047
14517TIP3    H165042   1.640   4.882   2.534 -0.9965  1.6438  0.5089
14517TIP3    H265043   1.741   4.870   2.422 -2.2890 -1.1922 -0.4517
14518TIP3   OH265044   2.607   5.485   1.028  0.0047  0.2724  0.2717
14518TIP3    H165045   2.622   5.402   1.074 -0.4600 -1.0688 -1.8466
14518TIP3    H265046   2.695   5.515   1.005  0.1364 -0.2609  0.0465
14519TIP3   OH265047   0.517   6.725  17.026 -1.2509  0.2928 -0.3880
14519TIP3    H165048   0.570   6.654  17.062 -0.9460  0.7066 -0.0149
14519TIP3    H265049   0.430   6.710  17.063 -0.7189  1.3067  1.4146
14520TIP3   OH265050   6.178   4.848   0.655 -0.4688 -0.3957  0.8079
14520TIP3    H165051   6.205   4.792   0.728  0.4780 -2.9181 -1.3217
14520TIP3    H265052   6.084   4.833   0.646 -0.2469 -1.6269  0.3375
14521TIP3   OH265053   5.303   5.047  16.269 -1.1129 -0.3560 -0.2031
14521TIP3    H165054   5.321   5.141  16.263  0.7130 -0.5981  0.7871
14521TIP3    H265055   5.243   5.030  16.197 -0.1856  1.2729 -1.4338
14522TIP3   OH265056   1.765   6.287   0.756  0.2522  0.8177  0.0720
14522TIP3    H165057   1.705   6.352   0.721 -0.1570 -0.4585 -1.7020
14522TIP3    H265058   1.816   6.257   0.681  2.3834  1.0442  1.3191
14523TIP3   OH265059   4.076   2.919  12.220 -0.0126 -0.4176 -0.0085
14523TIP3    H165060   4.121   2.991  12.264  0.8183 -0.7554 -0.2846
14523TIP3    H265061   3.986   2.950  12.210 -0.0840 -0.1141  1.4036
14524TIP3   OH265062   0.976   1.825   3.862  0.3774  0.0933  0.1509
14524TIP3    H165063   0.952   1.878   3.938 -3.2886 -1.6555  0.4196
14524TIP3    H265064   0.942   1.875   3.787  0.1194 -0.1711  0.0884
14525TIP3   OH265065   4.460   2.511  15.800 -0.1995  0.6049 -0.2971
14525TIP3    H165066   4.403   2.438  15.823  2.0198 -0.7812  1.3736
14525TIP3    H265067   4.495   2.488  15.714 -2.0159  1.4429 -1.3084
14526TIP3   OH265068   6.139   5.825   4.871 -0.3058 -0.7475 -0.0228
14526TIP3    H165069   6.061   5.815   4.815  0.6872 -0.7298 -1.4669
14526TIP3    H265070   6.105   5.822   4.960 -2.2175  1.2868 -0.6004
14527TIP3   OH265071   0.579   6.427   0.445 -0.4824  0.1600 -0.2164
14527TIP3    H165072   0.654   6.377   0.479 -1.7398 -1.9317 -0.3424
14527TIP3    H265073   0.609   6.462   0.362  0.1116 -1.4033 -0.6988
14528TIP3   OH265074   0.846   0.729   1.443 -0.2557 -0.6003 -0.1085
14528TIP3    H165075   0.853   0.759   1.352  0.1113 -0.6534 -0.0978
14528TIP3    H265076   0.763   0.681   1.446 -1.0756  0.7788 -0.0228
14529TIP3   OH265077   4.145   0.698  16.909 -0.5693 -0.2777 -0.1113
14529TIP3    H165078   4.074   0.688  16.846 -0.6925 -0.8336  0.1128
14529TIP3    H265079   4.116   0.648  16.986 -1.5126  2.2631  1.3105
14530TIP3   OH265080   1.501   1.674  12.941 -0.1812  0.0902  0.1717
14530TIP3    H165081   1.474   1.628  12.861  0.9589 -0.5858  0.1504
14530TIP3    H265082   1.458   1.759  12.935  1.1879  0.7009 -2.0077
14531TIP3   OH265083   5.883   5.055   4.650  0.3416 -0.3762  0.5261
14531TIP3    H165084   5.836   4.971   4.647 -0.3950  0.0300  0.3046
14531TIP3    H265085   5.923   5.063   4.563  0.3446 -0.4651  0.5191
14532TIP3   OH265086   0.524   1.321  14.138 -0.2238 -0.2202 -0.2395
14532TIP3    H165087   0.595   1.364  14.090 -0.5202 -0.0251 -0.4964
14532TIP3    H265088   0.444   1.360  14.104 -0.6104 -2.1656 -1.6977
14533TIP3   OH265089   6.557   1.492  13.084 -0.0805  0.1557 -0.8246
14533TIP3    H165090   6.627   1.533  13.136 -0.5257  0.1194 -0.1788
14533TIP3    H265091   6.504   1.446  13.149 -0.1824 -0.5761 -1.4233
14534TIP3   OH265092   3.716   6.804   1.333  0.2804  0.3576  0.5062
14534TIP3    H165093   3.812   6.804   1.335  0.4004  0.8832 -1.7706
14534TIP3    H265094   3.693   6.883   1.284 -1.3759  0.6601  1.6897
14535TIP3   OH265095   6.331   5.101  13.758  0.2668 -0.1586  0.1459
14535TIP3    H165096   6.296   5.016  13.729  0.9078 -0.2413 -0.4138
14535TIP3    H265097   6.328   5.096  13.853  2.1046 -1.6074  0.1872
14536TIP3   OH265098   4.047   1.590   0.494  0.0148 -0.8169  0.8090
14536TIP3    H165099   4.104   1.654   0.538 -0.5141  1.8380 -1.9753
14536TIP3    H265100   3.966   1.593   0.543 -0.4961  1.9045  0.0124
14537TIP3   OH265101   2.081   2.726   2.035 -0.0078  0.3864  0.1023
14537TIP3    H165102   2.169   2.745   2.003 -0.3684  1.5862 -0.2450
14537TIP3    H265103   2.081   2.755   2.126  0.9149 -2.7167  1.2196
14538TIP3   OH265104   1.261   3.876   2.301  0.0128  0.3615  0.2550
14538TIP3    H165105   1.196   3.929   2.346  0.3880  0.0338  1.1899
14538TIP3    H265106   1.338   3.933   2.295  0.1106  0.2439  0.4192
14539TIP3   OH265107   1.514   6.569   4.788  0.5886 -0.3708 -0.2556
14539TIP3    H165108   1.503   6.642   4.849 -2.0850 -1.3343  0.5616
14539TIP3    H265109   1.524   6.610   4.702 -0.5976  0.9630  0.2186
14540TIP3   OH265110   4.774   4.602  12.094  0.0809 -0.2160 -0.3719
14540TIP3    H165111   4.712   4.531  12.113 -0.9873  0.8717  0.3433
14540TIP3    H265112   4.738   4.644  12.016  0.2434  0.0679 -0.2929
14541TIP3   OH265113   4.545   4.336  16.887 -0.2572  0.1002 -0.4134
14541TIP3    H165114   4.629   4.360  16.927  0.2511 -1.6731 -0.3368
14541TIP3    H265115   4.546   4.378  16.801 -0.9314  3.1379  0.8852
14542TIP3   OH265116   1.783   4.969  14.641  0.6867 -1.0640  0.9322
14542TIP3    H165117   1.738   4.899  14.688  0.3665 -0.9159  0.8446
14542TIP3    H265118   1.733   5.047  14.661  0.4390 -1.0315  0.1847
14543TIP3   OH265119   1.961   1.377  14.335  0.4244  0.2157 -0.2413
14543TIP3    H165120   1.961   1.471  14.353  1.8349  0.1787  0.0843
14543TIP3    H265121   2.050   1.359  14.305 -0.5462 -0.5615 -2.8938
14544TIP3   OH265122   5.613   3.035  13.095 -0.2512  0.3206 -0.4500
14544TIP3    H165123   5.572   2.972  13.155  0.4257  2.5016  2.5503
14544TIP3    H265124   5.540   3.088  13.063 -0.4138  0.4046  0.0525
14545TIP3   OH265125   6.486   5.194   3.144 -0.2897  0.0402  0.0471
14545TIP3    H165126   6.500   5.161   3.233 -1.9894 -3.1224 -0.7085
14545TIP3    H265127   6.552   5.149   3.091 -1.3697 -0.7245 -0.7149
14546TIP3   OH265128   5.370   4.717  12.784  0.1398 -0.6919  0.1727
14546TIP3    H165129   5.294   4.659  12.787 -1.7079  1.5989  0.9103
14546TIP3    H265130   5.379   4.740  12.691  0.4318 -1.5640 -0.0228
14547TIP3   OH265131   4.994   1.419   5.211 -0.3088 -0.2994 -0.0338
14547TIP3    H165132   4.991   1.514   5.225  0.4019 -0.6424  3.3037
14547TIP3    H265133   5.036   1.409   5.126  0.3908  2.3839 -0.1061
14548TIP3   OH265134   5.271   1.252  16.168 -0.0886  0.0301 -0.1660
14548TIP3    H165135   5.320   1.330  16.141  0.7696 -0.3744  0.2113
14548TIP3    H265136   5.180   1.273  16.145  0.1577  1.0539 -0.2775
14549TIP3   OH265137   2.324   0.387  12.372  0.4409 -0.3739 -0.5609
14549TIP3    H165138   2.340   0.463  12.315  0.7768 -0.9246 -1.2175
14549TIP3    H265139   2.373   0.316  12.331 -0.9989 -1.3043 -0.7371
14550TIP3   OH265140   4.964   6.829  13.306 -0.2219 -0.1924  0.3526
14550TIP3    H165141   5.017   6.764  13.351  0.8056  0.8394  0.6967
14550TIP3    H265142   4.953   6.900  13.370 -1.1660  0.0505 -0.0615
14551TIP3   OH265143   2.869   3.650  14.947  0.4964  0.0960 -0.4754
14551TIP3    H165144   2.898   3.559  14.953  1.1940  0.3579  0.3051
14551TIP3    H265145   2.777   3.647  14.971  1.0531 -0.1240  1.8722
14552TIP3   OH265146   4.610   1.816  13.310  0.5519  0.2962  0.3953
14552TIP3    H165147   4.559   1.871  13.369  2.3085  0.8857  1.4407
14552TIP3    H265148   4.562   1.817  13.227 -1.1920  0.6539  1.3825
14553TIP3   OH265149   1.893   5.719  16.989 -0.2547  0.0329  0.0105
14553TIP3    H165150   1.931   5.655  16.929 -0.7734 -0.5462  0.2805
14553TIP3    H265151   1.958   5.788  16.996 -0.0577 -0.0339 -0.9837
14554TIP3   OH265152   3.676   0.300   6.884  0.6177  0.3865  0.7628
14554TIP3    H165153   3.715   0.222   6.925  1.1621 -0.8764 -1.9442
14554TIP3    H265154   3.621   0.265   6.814 -0.7837  2.4146  0.7705
14555TIP3   OH265155   0.602   2.207   4.647 -0.3939  0.2614 -0.0599
14555TIP3    H165156   0.691   2.183   4.674 -0.3584  0.0868 -0.3294
14555TIP3    H265157   0.614   2.254   4.564 -0.1792  3.8517  1.8190
14556TIP3   OH265158   4.441   3.644  11.068 -0.6398 -0.1820  0.2739
14556TIP3    H165159   4.370   3.681  11.015 -0.1172 -0.0403 -0.3505
14556TIP3    H265160   4.473   3.718  11.120  0.3878  0.2819 -0.9538
14557TIP3   OH265161   3.915   4.255   6.176  0.2544  0.5256  0.4564
14557TIP3    H165162   3.916   4.222   6.266 -0.6488  2.3357  1.1736
14557TIP3    H265163   3.928   4.177   6.122  0.1938 -0.6922  2.1209
14558TIP3   OH265164   6.187   0.543   2.881  0.4205  0.0347 -0.6309
14558TIP3    H165165   6.191   0.523   2.787 -2.0455 -0.2954 -0.7388
14558TIP3    H265166   6.261   0.496   2.918  0.3627 -1.4269 -2.1925
14559TIP3   OH265167   2.616   4.338   4.097 -0.2752  0.2762  0.4976
14559TIP3    H165168   2.559   4.262   4.085  1.8254 -1.2561 -0.4315
14559TIP3    H265169   2.595   4.371   4.185 -0.9445 -1.6563  1.1013
14560TIP3   OH265170   3.963   1.167  13.397  0.0686 -0.2426  0.5549
14560TIP3    H165171   4.052   1.132  13.394 -0.3519 -1.4281  1.1602
14560TIP3    H265172   3.971   1.248  13.447  1.0913  0.6270 -0.9602
14561TIP3   OH265173   3.831   4.233  16.152  0.0283 -0.8413 -0.2426
14561TIP3    H165174   3.880   4.164  16.198  2.1228 -0.6608 -2.0454
14561TIP3    H265175   3.845   4.311  16.206  1.6137 -0.8457 -0.5944
14562TIP3   OH265176   3.859   5.162  16.857  0.1274  0.4398  0.2610
14562TIP3    H165177   3.932   5.153  16.796  0.1323  1.4024  0.1119
14562TIP3    H265178   3.882   5.105  16.930  1.2420  1.0458  0.4055
14563TIP3   OH265179   1.142   5.907   4.140 -1.0015 -0.3709 -0.3342
14563TIP3    H165180   1.207   5.977   4.137 -0.6589 -0.7152 -1.3747
14563TIP3    H265181   1.062   5.948   4.108 -0.6008 -0.6457 -1.7387
14564TIP3   OH265182   0.418   5.836   2.861 -0.2509 -0.0337  0.0756
14564TIP3    H165183   0.450   5.894   2.930 -1.1932  0.5186  0.0554
14564TIP3    H265184   0.478   5.851   2.788  0.0127  0.2881  0.3521
14565TIP3   OH265185   4.686   3.039  14.215 -0.0543 -0.3646  0.7433
14565TIP3    H165186   4.667   2.995  14.133 -0.0194  1.5736 -0.3769
14565TIP3    H265187   4.601   3.066  14.249  0.0378  0.2220  0.5158
14566TIP3   OH265188   5.494   5.015   0.889 -0.1023  0.2287 -0.4025
14566TIP3    H165189   5.506   4.972   0.804 -0.7657  0.9173 -0.8555
14566TIP3    H265190   5.553   5.090   0.886 -1.2229  1.1182 -0.8777
14567TIP3   OH265191   1.039   2.175  15.553 -0.4227  0.1454  0.1247
14567TIP3    H165192   1.056   2.102  15.493 -2.1895  0.2398 -0.5499
14567TIP3    H265193   1.023   2.250  15.496 -0.2722  0.6823  0.7718
14568TIP3   OH265194   3.208   4.170   1.872 -0.2640  0.3423  0.0938
14568TIP3    H165195   3.226   4.207   1.959 -0.7002  0.0257  0.3257
14568TIP3    H265196   3.160   4.239   1.826 -0.7135  0.2300  0.3815
14569TIP3   OH265197   2.451   4.448   0.996 -0.6148 -0.1174  0.3587
14569TIP3    H165198   2.494   4.530   1.021  0.4388 -1.0915  1.9077
14569TIP3    H265199   2.389   4.474   0.928 -0.0060  1.8917  0.4911
14570TIP3   OH265200   2.093   5.165   1.214  0.0501  0.4032 -0.5897
14570TIP3    H165201   2.088   5.145   1.120 -0.0865  0.7450 -0.6593
14570TIP3    H265202   2.024   5.230   1.227  1.0825  1.5391 -0.5640
14571TIP3   OH265203   1.681   6.263   4.795 -0.4619 -0.4320 -0.3970
14571TIP3    H165204   1.640   6.348   4.810  0.4994  0.0757 -0.5248
14571TIP3    H265205   1.628   6.222   4.727 -0.8534  0.1303 -0.4386
14572TIP3   OH265206   2.346   3.288   0.155  0.2674 -0.6152  0.2598
14572TIP3    H165207   2.396   3.325   0.082  1.7576 -0.2986  1.4120
14572TIP3    H265208   2.395   3.209   0.180  1.3151  0.6903  2.6014
14573TIP3   OH265209   2.313   2.056  16.301  0.3810 -0.1655 -0.0406
14573TIP3    H165210   2.233   2.108  16.299 -1.2414 -2.5150 -1.6121
14573TIP3    H265211   2.340   2.057  16.393 -1.3866  0.7910  0.5026
14574TIP3   OH265212   2.472   6.321  14.799 -0.6328  0.1917 -0.2165
14574TIP3    H165213   2.418   6.393  14.767  0.9075  1.0234 -1.0888
14574TIP3    H265214   2.465   6.325  14.894  0.5219  2.4607 -0.1640
14575TIP3   OH265215   2.936   4.204   1.324 -0.3727  0.1516  0.3815
14575TIP3    H165216   2.995   4.278   1.328 -0.6999  0.3657  2.7306
14575TIP3    H265217   2.945   4.169   1.235  1.3095  1.7321 -0.0989
14576TIP3   OH265218   4.481   3.777   4.770  0.6967 -0.9495 -0.0235
14576TIP3    H165219   4.437   3.862   4.777  2.6379  0.3910 -2.3789
14576TIP3    H265220   4.548   3.779   4.838  1.3880 -0.1199 -0.7073
14577TIP3   OH265221   0.924   0.757   1.929 -0.7953  0.1625  0.2651
14577TIP3    H165222   0.946   0.850   1.931 -0.1341  0.0435  3.6910
14577TIP3    H265223   0.849   0.751   1.870  0.1079  2.5656 -1.2715
14578TIP3   OH265224   3.388   5.793  11.053 -0.4959  0.7583 -0.2611
14578TIP3    H165225   3.295   5.769  11.056 -0.0730 -1.4603 -2.1455
14578TIP3    H265226   3.432   5.727  11.106  0.2034  0.3754 -1.2816
14579TIP3   OH265227   1.580   5.825  13.693 -0.3664 -0.3511 -0.0038
14579TIP3    H165228   1.502   5.876  13.716 -0.5408 -0.5679 -0.1072
14579TIP3    H265229   1.565   5.740  13.734 -0.9994 -0.9738 -1.4424
14580TIP3   OH265230   1.239   5.240   2.526 -0.1877  0.1298 -0.1453
14580TIP3    H165231   1.205   5.239   2.615  1.1873  0.8071  0.4220
14580TIP3    H265232   1.303   5.169   2.524 -1.4343 -1.0122 -1.1375
14581TIP3   OH265233   5.140   1.151   0.103  0.4394 -0.2098 -0.4751
14581TIP3    H165234   5.222   1.120   0.140 -0.4382  0.0260  1.8366
14581TIP3    H265235   5.110   1.218   0.164 -1.8019 -0.7550 -0.8926
14582TIP3   OH265236   3.604   1.171   5.268 -0.5608 -0.0407  0.0788
14582TIP3    H165237   3.572   1.140   5.184  0.2231  0.0189 -0.2427
14582TIP3    H265238   3.683   1.121   5.285 -1.1132 -0.6027  1.1492
14583TIP3   OH265239   1.524   5.788   0.025  0.2579  0.0295  0.5861
14583TIP3    H165240   1.499   5.879   0.042  0.1877  0.5579 -1.9834
14583TIP3    H265241   1.448   5.749  -0.018  0.6463 -0.9828  0.7791
14584TIP3   OH265242   0.695   1.357   5.371  0.5389 -0.3820 -0.3857
14584TIP3    H165243   0.687   1.338   5.465 -0.3272  0.5141 -0.2546
14584TIP3    H265244   0.703   1.271   5.330 -2.8827 -1.1302  0.1973
14585TIP3   OH265245   0.100   1.741   2.632  0.3402  0.0114  0.5704
14585TIP3    H165246   0.050   1.661   2.617  0.9271 -0.3106  0.2917
14585TIP3    H265247   0.134   1.765   2.545 -0.9190  1.3042  0.4096
14586TIP3   OH265248   6.716   1.432  16.932 -0.4163  1.0502 -0.1444
14586TIP3    H165249   6.714   1.503  16.996 -0.6019  0.4228  0.5526
14586TIP3    H265250   6.638   1.445  16.879 -0.5087  1.2997  0.0530
14587TIP3   OH265251   6.568   2.609   2.081 -0.3059 -0.0603 -0.1360
14587TIP3    H165252   6.473   2.616   2.073 -0.1793  0.0906 -1.9515
14587TIP3    H265253   6.600   2.614   1.991  1.3996 -0.5895  0.4054
14588TIP3   OH265254   1.658   3.961   0.273  0.2703  0.2301  0.1663
14588TIP3    H165255   1.613   4.044   0.260  0.3857  0.0304 -1.8594
14588TIP3    H265256   1.676   3.929   0.184  2.3569 -0.8160  0.8942
14589TIP3   OH265257   3.760   6.421  16.791 -0.0526  0.0297 -0.6959
14589TIP3    H165258   3.760   6.380  16.877  1.5858 -0.6079 -0.9540
14589TIP3    H265259   3.674   6.400  16.755 -0.7113  0.2064  0.7226
14590TIP3   OH265260   3.447   2.231   3.342  0.1952 -0.3099 -0.1158
14590TIP3    H165261   3.508   2.159   3.350  0.1036 -0.5161 -1.0658
14590TIP3    H265262   3.480   2.299   3.401  1.5726 -0.2599 -0.9170
14591TIP3   OH265263   2.535   1.286   3.788  0.2229 -0.2689  0.1103
14591TIP3    H165264   2.535   1.199   3.747 -0.0221 -0.5561  0.7027
14591TIP3    H265265   2.608   1.282   3.851 -0.3725 -0.3774  0.8079
14592TIP3   OH265266   2.363   2.199  14.227 -0.5982 -0.3750 -0.4374
14592TIP3    H165267   2.457   2.194  14.211 -0.9160 -1.3727 -2.2678
14592TIP3    H265268   2.352   2.166  14.316  0.9526  1.8519  0.6851
14593TIP3   OH265269   2.072   1.868  14.699 -0.0426  0.1452 -0.8214
14593TIP3    H165270   2.155   1.845  14.658  1.8797 -1.6574  3.4727
14593TIP3    H265271   2.080   1.962  14.716  2.2741 -0.3544  1.4751
14594TIP3   OH265272   3.220   6.603   0.779  0.8449 -0.6350 -0.3565
14594TIP3    H165273   3.219   6.514   0.746  0.0974 -1.0888  0.8292
14594TIP3    H265274   3.304   6.611   0.826  1.2448 -0.4626 -1.0897
14595TIP3   OH265275   4.440   5.318   5.473  0.3320 -0.1108 -0.1463
14595TIP3    H165276   4.362   5.269   5.499 -0.3527  0.9189 -0.2259
14595TIP3    H265277   4.411   5.373   5.401  1.5848 -1.0329 -1.4269
14596TIP3   OH265278   2.980   1.467  11.458 -0.0979 -0.2576  0.2687
14596TIP3    H165279   2.986   1.561  11.445 -1.1885 -0.2471 -0.1777
14596TIP3    H265280   2.996   1.455  11.552  2.5927  0.1097 -0.0473
14597TIP3   OH265281   1.234   5.886  15.129  0.2588 -0.3046  0.4508
14597TIP3    H165282   1.245   5.820  15.198 -1.2470  0.8721  1.8974
14597TIP3    H265283   1.159   5.856  15.078 -1.5556  1.0208  2.1600
14598TIP3   OH265284   1.369   5.941  11.559  0.0454  0.1853  0.0549
14598TIP3    H165285   1.306   5.875  11.529 -1.1039  0.8997  0.7858
14598TIP3    H265286   1.450   5.920  11.513  0.4976 -3.2229  1.9976
14599TIP3   OH265287   4.961   4.913   4.905  0.5112  0.2448 -0.2154
14599TIP3    H165288   4.999   4.830   4.932 -0.0220 -0.5272 -1.7509
14599TIP3    H265289   5.031   4.977   4.918  0.9325 -0.4288  0.9586
14600TIP3   OH265290   0.108   1.114  16.699  0.3003 -0.1506  0.4763
14600TIP3    H165291   0.032   1.157  16.658 -0.7351 -1.9628  0.4040
14600TIP3    H265292   0.183   1.165  16.668 -0.7070  0.4076 -1.2128
14601TIP3   OH265293   5.226   3.682  16.085  0.7798  0.7057  0.3443
14601TIP3    H165294   5.298   3.737  16.054 -0.3731  1.9664 -0.1799
14601TIP3    H265295   5.189   3.644  16.006 -0.2235  1.4734  0.4248
14602TIP3   OH265296   0.080   5.093  15.554  0.7059  0.0359  0.4943
14602TIP3    H165297   0.165   5.099  15.599  2.1121 -1.0013 -1.8719
14602TIP3    H265298   0.025   5.045  15.615  2.2723 -0.6007  1.4826
14603TIP3   OH265299   6.074   1.979   4.175 -0.1480 -0.0660 -0.6018
14603TIP3    H165300   6.013   1.948   4.242 -1.2491  0.4359 -1.3536
14603TIP3    H265301   6.046   1.935   4.095  1.2644 -0.7945 -0.7262
14604TIP3   OH265302   5.174   2.035   4.065 -0.0128  0.1325  0.1168
14604TIP3    H165303   5.262   2.006   4.090  0.1854  1.0952  0.5945
14604TIP3    H265304   5.186   2.126   4.040 -1.0671  0.6428  1.3742
14605TIP3   OH265305   3.166   5.015   0.748 -0.2317  0.2848  0.1287
14605TIP3    H165306   3.137   4.941   0.801 -0.2556 -0.5106 -0.9551
14605TIP3    H265307   3.261   5.013   0.752 -0.1960 -0.3986 -0.6385
14606TIP3   OH265308   0.140   0.409   5.214 -0.2666  0.4830  0.4746
14606TIP3    H165309   0.229   0.392   5.242  0.7111  1.0767 -2.0167
14606TIP3    H265310   0.133   0.504   5.207 -0.1116  0.3842 -2.0013
14607TIP3   OH265311   3.945   6.488  16.605 -0.4508  0.3600 -0.7301
14607TIP3    H165312   3.881   6.468  16.537  0.4260 -0.6910 -1.2754
14607TIP3    H265313   3.917   6.436  16.681 -0.7474  0.6006 -0.6735
14608TIP3   OH265314   2.993   3.637  11.694 -0.0485  0.9991  0.3501
14608TIP3    H165315   2.950   3.721  11.679  0.7423  1.1324 -1.4527
14608TIP3    H265316   2.929   3.572  11.664 -0.2464  0.9996  0.7576
14609TIP3   OH265317   5.271   6.148  13.233 -0.0091  0.1240 -0.3134
14609TIP3    H165318   5.256   6.174  13.142  1.3078 -1.0332 -0.8981
14609TIP3    H265319   5.344   6.203  13.261 -0.9653  1.0916  0.3618
14610TIP3   OH265320   2.023   0.841   4.824  0.4483 -0.1670  0.4278
14610TIP3    H165321   2.013   0.793   4.906 -0.1076  0.0869  0.5067
14610TIP3    H265322   1.960   0.801   4.764  1.3317 -0.8167 -0.0947
14611TIP3   OH265323   1.749   2.388   5.203  0.3638  0.1344 -0.0667
14611TIP3    H165324   1.820   2.451   5.220  2.1983 -1.7628 -0.3107
14611TIP3    H265325   1.703   2.424   5.128  2.5959  0.2673 -1.4579
14612TIP3   OH265326   2.224   0.527   2.583 -0.0108 -0.4966 -0.4047
14612TIP3    H165327   2.133   0.538   2.555 -0.5416 -2.1848  0.5199
14612TIP3    H265328   2.263   0.469   2.518  0.2727 -0.2038 -0.5028
14613TIP3   OH265329   6.521   3.841   2.018 -0.1597 -0.0907  0.4416
14613TIP3    H165330   6.521   3.937   2.018  0.5179 -0.0523 -1.6311
14613TIP3    H265331   6.611   3.816   2.035 -0.4438 -0.3991  1.5862
14614TIP3   OH265332   3.410   4.636   6.827  0.0190  0.5652 -0.3696
14614TIP3    H165333   3.408   4.626   6.731  0.5010  2.1558 -0.5611
14614TIP3    H265334   3.500   4.618   6.851 -0.6565 -2.7566  0.1952
14615TIP3   OH265335   1.323   2.417   6.250  0.7447 -0.3874 -0.5071
14615TIP3    H165336   1.327   2.452   6.339  0.0950 -0.2666 -0.5221
14615TIP3    H265337   1.398   2.357   6.244  0.1661 -1.2395  0.4926
14616TIP3   OH265338   6.463   4.846  14.942 -0.1612 -0.0469  0.5959
14616TIP3    H165339   6.425   4.760  14.959  0.1938 -0.2605  0.3209
14616TIP3    H265340   6.424   4.903  15.009  1.4755 -0.9326  2.4011
14617TIP3   OH265341   1.291   1.148  11.770  0.0779 -0.3116  0.0731
14617TIP3    H165342   1.279   1.067  11.720 -0.4758  1.4679 -2.8845
14617TIP3    H265343   1.202   1.172  11.798  0.4528 -1.7376  2.9395
14618TIP3   OH265344   4.457   1.120   0.327 -0.1619 -0.4068 -0.3322
14618TIP3    H165345   4.375   1.104   0.281 -0.0704  0.4228 -0.8020
14618TIP3    H265346   4.494   1.033   0.341  0.6691 -0.6962 -3.4214
14619TIP3   OH265347   5.856   3.669  14.564  0.4217  0.0360  0.1747
14619TIP3    H165348   5.948   3.641  14.559  0.8790  1.5823 -0.5944
14619TIP3    H265349   5.806   3.587  14.563  1.7811 -0.8307  0.5282
14620TIP3   OH265350   5.508   4.808   3.199 -0.3021  0.5323 -0.7528
14620TIP3    H165351   5.482   4.793   3.108  1.2460  1.6768 -1.4375
14620TIP3    H265352   5.564   4.885   3.195 -1.4114  1.5457  1.4087
14621TIP3   OH265353   1.816   4.306   2.824  0.0789  0.0132  0.2117
14621TIP3    H165354   1.800   4.304   2.918 -0.5564  0.6393  0.1305
14621TIP3    H265355   1.860   4.390   2.809  1.5885 -0.7644  0.1449
14622TIP3   OH265356   2.083   2.196  16.299  0.3352  0.7229  0.3224
14622TIP3    H165357   2.095   2.282  16.258  0.2051  0.2825 -0.6882
14622TIP3    H265358   1.998   2.202  16.342  0.7871  1.4252  1.1365
14623TIP3   OH265359   4.016   1.567  16.774 -0.3469  0.0713 -0.6530
14623TIP3    H165360   3.998   1.478  16.803  0.7538  0.0522  0.0490
14623TIP3    H265361   3.938   1.617  16.797  0.1354 -0.1303  1.6685
14624TIP3   OH265362   0.860   6.289   4.471  0.5821 -0.0280  0.5568
14624TIP3    H165363   0.854   6.355   4.403  0.5414  1.5998  2.0815
14624TIP3    H265364   0.948   6.299   4.507  1.6062 -2.6692 -0.9302
14625TIP3   OH265365   3.249   3.246   3.679 -0.1379 -0.2315  0.0935
14625TIP3    H165366   3.268   3.313   3.613  0.0813  0.6225  1.0080
14625TIP3    H265367   3.159   3.264   3.707 -1.4337 -2.4839 -2.1222
14626TIP3   OH265368   6.805   4.192   3.888 -0.0154  0.4024 -0.1230
14626TIP3    H165369   6.887   4.185   3.937 -0.9397 -2.5431  1.2845
14626TIP3    H265370   6.831   4.222   3.801  2.2493  1.6225  0.9045
14627TIP3   OH265371   6.118   4.158   4.216 -0.1280 -0.0390  0.4420
14627TIP3    H165372   6.131   4.075   4.263 -1.2514  0.3454  1.4743
14627TIP3    H265373   6.031   4.186   4.241 -0.3221  0.7627 -1.0281
14628TIP3   OH265374   2.370   5.553  13.758 -0.0187 -0.1968 -0.0019
14628TIP3    H165375   2.415   5.534  13.840  0.3719  2.2394  0.4174
14628TIP3    H265376   2.278   5.561  13.782  0.0725  0.3376  0.1848
14629TIP3   OH265377   4.533   0.190  15.940  0.5494  0.2065 -0.5606
14629TIP3    H165378   4.531   0.203  15.845 -2.2293 -0.8094 -0.7140
14629TIP3    H265379   4.488   0.267  15.976 -1.3313 -0.9241 -0.3612
14630TIP3   OH265380   4.806   4.487   3.587 -0.4938  0.1387 -0.1829
14630TIP3    H165381   4.773   4.577   3.592 -0.6320  0.3141 -2.7525
14630TIP3    H265382   4.897   4.496   3.559 -0.5057 -0.5289 -0.4486
14631TIP3   OH265383   1.055   1.693   4.154 -0.1007  0.0398 -0.4222
14631TIP3    H165384   0.997   1.626   4.192 -1.7061  1.0734 -0.9320
14631TIP3    H265385   1.114   1.644   4.097  0.2443 -1.1772  0.8956
14632TIP3   OH265386   6.303   5.582   4.909  0.1504  0.3231 -0.6329
14632TIP3    H165387   6.275   5.673   4.917  1.3851  0.5754  1.4069
14632TIP3    H265388   6.377   5.574   4.969 -0.8901 -2.4233  0.4412
14633TIP3   OH265389   4.356   2.260   0.620 -0.4003  0.0473  0.3264
14633TIP3    H165390   4.447   2.233   0.629  0.1070  0.6793 -2.1621
14633TIP3    H265391   4.360   2.352   0.596 -1.6242 -0.1134 -0.6153
14634TIP3   OH265392   2.195   0.174   3.061 -0.1142 -0.4834 -0.6708
14634TIP3    H165393   2.176   0.161   2.968  0.6176  0.7157 -1.0141
14634TIP3    H265394   2.151   0.257   3.082 -0.1565 -0.6790  0.0117
14635TIP3   OH265395   2.410   1.717   3.662  0.0075  0.2740  0.8188
14635TIP3    H165396   2.378   1.667   3.586  1.0340  0.7846  0.0236
14635TIP3    H265397   2.374   1.671   3.738 -1.8573  0.3047  0.0155
14636TIP3   OH265398   5.427   0.862  16.002 -0.1414  0.0058  0.1128
14636TIP3    H165399   5.461   0.932  15.946  0.6435 -0.9160 -0.5835
14636TIP3    H265400   5.343   0.896  16.033 -1.2179  0.0569 -2.5972
14637TIP3   OH265401   0.405   3.413  14.653  0.3811  0.5615 -0.3534
14637TIP3    H165402   0.325   3.362  14.654  1.0398 -0.4972 -0.0699
14637TIP3    H265403   0.447   3.389  14.570  1.0623  0.0275  0.1297
14638TIP3   OH265404   1.923   0.437  13.386  0.3922 -0.1463  0.7362
14638TIP3    H165405   1.854   0.387  13.428  0.8424 -0.1497  1.4975
14638TIP3    H265406   1.968   0.375  13.329 -0.4672 -0.0489 -0.0743
14639TIP3   OH265407   2.102   1.211   3.829  0.1444 -0.1923  0.4375
14639TIP3    H165408   2.029   1.270   3.809 -0.5664 -1.5412 -1.1772
14639TIP3    H265409   2.178   1.250   3.786 -0.3485 -0.4675 -0.7314
14640TIP3   OH265410   2.587   6.722  12.278  0.1450  0.2337  0.1885
14640TIP3    H165411   2.618   6.643  12.322  0.4534  0.5498  0.5493
14640TIP3    H265412   2.628   6.719  12.192  0.4159  0.1641  0.3191
14641TIP3   OH265413   5.655   3.177  16.542 -0.3789  0.2069  0.2820
14641TIP3    H165414   5.708   3.125  16.601 -0.2818 -0.1976 -0.1515
14641TIP3    H265415   5.612   3.242  16.598  1.4098  1.2523  0.5060
14642TIP3   OH265416   2.008   0.518  15.748  0.2633  0.6116  0.2192
14642TIP3    H165417   1.987   0.553  15.661 -1.5675  0.0204  0.3923
14642TIP3    H265418   2.032   0.595  15.800 -0.1473  1.1534 -0.3844
14643TIP3   OH265419   0.502   1.286  16.473 -0.5685 -0.2856 -0.4855
14643TIP3    H165420   0.443   1.291  16.397 -0.7297 -1.9881 -0.5200
14643TIP3    H265421   0.526   1.193  16.477 -1.5008 -0.4777  2.2623
14644TIP3   OH265422   6.653   3.137  14.444  0.2226  0.2137 -0.7963
14644TIP3    H165423   6.723   3.101  14.498 -1.0788  1.4814  1.9937
14644TIP3    H265424   6.694   3.208  14.395  0.9997  0.8267  0.6708
14645TIP3   OH265425   5.530   0.590   3.482 -0.3707  0.2126 -0.3998
14645TIP3    H165426   5.537   0.678   3.445 -0.3505  0.4759  0.2221
14645TIP3    H265427   5.570   0.533   3.416 -0.4726  0.6576 -0.8496
14646TIP3   OH265428   1.298   6.646  11.219 -0.1899 -0.6679 -0.0843
14646TIP3    H165429   1.258   6.569  11.259  1.1596 -0.5713  1.5903
14646TIP3    H265430   1.369   6.611  11.165  0.6734 -0.6306  0.9826
14647TIP3   OH265431   3.049   4.072  13.431 -0.6553  0.6392 -0.4262
14647TIP3    H165432   3.097   4.074  13.514 -0.2958  0.1298 -0.6147
14647TIP3    H265433   2.961   4.042  13.455 -0.4600  0.1874 -0.2674
14648TIP3   OH265434   5.611   4.254   4.357 -0.4633  0.0988 -0.1175
14648TIP3    H165435   5.705   4.240   4.369 -0.6765 -0.2937  1.3305
14648TIP3    H265436   5.602   4.350   4.352 -0.0235  0.1615  0.1549
14649TIP3   OH265437   2.252   0.927  13.483  0.3032  0.7680 -0.6186
14649TIP3    H165438   2.189   0.910  13.553  0.4856  0.9451 -0.4104
14649TIP3    H265439   2.233   0.860  13.417 -0.8755  1.5034 -1.0782
14650TIP3   OH265440   5.680   5.707  16.208  0.6114 -0.3178 -0.3394
14650TIP3    H165441   5.716   5.785  16.249 -1.6420  1.3128 -1.2123
14650TIP3    H265442   5.731   5.697  16.127  1.1939 -0.0052 -0.0193
14651TIP3   OH265443   3.911   1.147   3.960  0.1282 -0.5382  0.1046
14651TIP3    H165444   3.992   1.142   3.910  0.4411 -1.7982  0.6891
14651TIP3    H265445   3.880   1.056   3.964 -0.1555 -0.3973  1.7391
14652TIP3   OH265446   2.606   2.705  14.699 -0.3082  0.0012 -0.5792
14652TIP3    H165447   2.578   2.734  14.785  1.4297  0.2819 -0.0637
14652TIP3    H265448   2.549   2.630  14.679 -1.3254  0.4785  0.3983
14653TIP3   OH265449   5.602   4.878  16.180 -0.3881  0.0204  0.1089
14653TIP3    H165450   5.671   4.930  16.222  1.1440 -2.3003  0.6701
14653TIP3    H265451   5.618   4.888  16.087  1.8494 -1.7892  0.2326
14654TIP3   OH265452   1.975   2.311  14.811  0.1600 -0.1628  0.1029
14654TIP3    H165453   2.043   2.250  14.783 -0.2750 -0.6011 -0.0134
14654TIP3    H265454   2.001   2.395  14.773  2.0444  0.2997  2.2154
14655TIP3   OH265455   2.095   5.553   0.927 -0.3437 -0.0559 -0.1304
14655TIP3    H165456   2.042   5.498   0.984 -1.7471 -0.1175 -1.4433
14655TIP3    H265457   2.042   5.565   0.848 -0.5675  3.9046  0.3904
14656TIP3   OH265458   1.973   0.998   6.690 -0.3085  0.1950 -0.2620
14656TIP3    H165459   2.053   0.990   6.741  0.2385  0.0966 -1.1171
14656TIP3    H265460   1.981   0.932   6.621 -1.0447  0.2982 -0.4622
14657TIP3   OH265461   4.980   5.332  12.075  0.6981 -0.1307 -0.0016
14657TIP3    H165462   5.066   5.292  12.086  0.1117 -0.9850  1.7224
14657TIP3    H265463   4.925   5.293  12.143 -0.8062  1.1265 -0.4197
14658TIP3   OH265464   5.310   4.754  13.829 -0.5286 -0.0211 -0.1708
14658TIP3    H165465   5.383   4.728  13.885  0.0371  2.3729  0.3163
14658TIP3    H265466   5.261   4.819  13.880 -2.1671 -0.4901 -1.0485
14659TIP3   OH265467   1.350   4.399  12.504 -0.2438  0.0566  0.2128
14659TIP3    H165468   1.344   4.445  12.588  1.0679 -2.2344  1.6632
14659TIP3    H265469   1.384   4.313  12.527 -2.1034 -1.5083 -2.4063
14660TIP3   OH265470   1.139   0.749  16.144  0.3102 -0.1992 -0.0777
14660TIP3    H165471   1.208   0.780  16.203 -0.5981  1.5528  0.1346
14660TIP3    H265472   1.182   0.737  16.060  1.3343 -1.3961  0.5861
14661TIP3   OH265473   4.757   4.712   5.115  0.3246 -0.1254 -0.2128
14661TIP3    H165474   4.777   4.803   5.136 -1.6688  0.0846  1.1238
14661TIP3    H265475   4.709   4.716   5.032 -1.2918  0.2891  0.7007
14662TIP3   OH265476   6.406   6.820  14.016 -0.2596 -0.8089 -0.0399
14662TIP3    H165477   6.336   6.881  13.996 -0.4325 -1.0233 -0.0932
14662TIP3    H265478   6.370   6.734  13.996  0.1017 -0.9034 -0.3025
14663TIP3   OH265479   1.802   0.751   0.649 -0.0336  0.4781  0.0362
14663TIP3    H165480   1.815   0.838   0.611  0.2845 -0.6951 -2.7967
14663TIP3    H265481   1.890   0.716   0.660 -0.2002 -0.2921 -0.9542
14664TIP3   OH265482   6.141   4.570   3.506 -0.5673  0.0868 -0.0674
14664TIP3    H165483   6.052   4.602   3.497 -0.6519 -0.3357 -0.8188
14664TIP3    H265484   6.131   4.478   3.529 -0.3518 -0.4484 -1.9566
14665TIP3   OH265485   1.102   4.838   5.570 -0.2667  0.0281 -0.1123
14665TIP3    H165486   1.108   4.813   5.478  1.8648  1.3448 -0.3814
14665TIP3    H265487   1.160   4.777   5.615  0.5126  0.8243 -0.0009
14666TIP3   OH265488   5.532   5.336   4.595 -0.1313 -0.2137  0.2725
14666TIP3    H165489   5.598   5.343   4.526  0.4323  1.2442  0.9247
14666TIP3    H265490   5.506   5.244   4.594  2.5005 -1.0451  0.5219
14667TIP3   OH265491   5.079   6.661   0.910 -0.0972  0.6539  0.3648
14667TIP3    H165492   5.042   6.712   0.838  0.5681  0.2095 -0.3188
14667TIP3    H265493   5.171   6.649   0.885 -0.0329 -0.1162  0.9366
14668TIP3   OH265494   3.689   2.124  11.390  0.3197 -0.2722  0.1320
14668TIP3    H165495   3.715   2.211  11.419 -1.6843  1.3299 -2.3967
14668TIP3    H265496   3.629   2.093  11.457 -0.1102  0.9767  0.3440
14669TIP3   OH265497   0.970   3.186  13.539 -0.2238 -0.0962  0.3865
14669TIP3    H165498   0.975   3.246  13.465  1.3559  0.0038  0.5493
14669TIP3    H265499   1.053   3.138  13.538 -0.9902 -1.5017  0.9230
14670TIP3   OH265500   5.824   4.600  16.215  0.2094 -0.4849  0.2333
14670TIP3    H165501   5.851   4.691  16.202  0.1458 -0.6600 -1.2923
14670TIP3    H265502   5.822   4.562  16.127 -1.9679 -1.3445  0.5695
14671TIP3   OH265503   6.150   2.009   3.140 -0.1354  0.0922 -0.1167
14671TIP3    H165504   6.064   2.029   3.102  0.2259  1.0139 -0.4571
14671TIP3    H265505   6.142   2.034   3.232 -0.1394  0.4297 -0.2109
14672TIP3   OH265506   3.507   3.988   5.554  0.6864 -0.1905  0.2148
14672TIP3    H165507   3.590   3.948   5.529  0.9073  0.2853  0.1783
14672TIP3    H265508   3.506   4.073   5.509  0.1841 -0.1875  0.2189
14673TIP3   OH265509   6.522   4.998  10.688  0.1306  0.8743 -0.3443
14673TIP3    H165510   6.544   5.053  10.613  1.1584  1.1163  0.1093
14673TIP3    H265511   6.603   4.949  10.705 -0.9326 -1.2528 -1.1254
14674TIP3   OH265512   1.584   0.003   1.429 -0.4627  0.3296 -0.1806
14674TIP3    H165513   1.566  -0.057   1.502 -0.2279  1.9677  1.2863
14674TIP3    H265514   1.527  -0.028   1.358  0.2805 -2.1176  0.2134
14675TIP3   OH265515   3.962   3.115  14.597 -1.1228  0.0554 -0.1323
14675TIP3    H165516   4.033   3.052  14.586 -1.2955 -0.7133  2.5127
14675TIP3    H265517   3.959   3.132  14.691 -3.4617  1.2292 -0.3456
14676TIP3   OH265518   3.695   0.064   3.365  0.5884  0.7582 -0.4727
14676TIP3    H165519   3.743   0.009   3.302 -2.2817 -1.0932 -1.2487
14676TIP3    H265520   3.698   0.152   3.327  3.7082  0.9310 -0.1631
14677TIP3   OH265521   6.557   1.802   5.910 -0.0083  0.1184 -0.2158
14677TIP3    H165522   6.563   1.895   5.929  1.6908  0.1489 -0.7680
14677TIP3    H265523   6.643   1.767   5.931 -1.1419 -1.7220  1.7589
14678TIP3   OH265524   1.589   6.216  16.480  0.4205  0.2526  0.2478
14678TIP3    H165525   1.548   6.156  16.418  2.1379 -1.2277  0.4745
14678TIP3    H265526   1.600   6.297  16.431 -2.8520  0.8593  0.2256
14679TIP3   OH265527   2.342   1.196   1.169  0.1042  0.0549 -0.3905
14679TIP3    H165528   2.428   1.163   1.141  0.3725  0.0211  0.4429
14679TIP3    H265529   2.304   1.233   1.090  1.7090  1.8430 -0.4017
14680TIP3   OH265530   0.311   5.246  10.375 -0.2785  0.3479  0.3476
14680TIP3    H165531   0.365   5.188  10.321  0.6397  0.5523  1.0212
14680TIP3    H265532   0.221   5.223  10.353  0.0803 -0.6513 -0.1187
14681TIP3   OH265533   6.702   3.503   0.110 -0.2358  0.2156  0.3134
14681TIP3    H165534   6.728   3.413   0.093 -2.5803 -0.5226  0.3599
14681TIP3    H265535   6.723   3.517   0.203 -0.2525 -0.4102  0.4102
14682TIP3   OH265536   5.576   4.430  13.637  0.5241  0.3884 -0.6884
14682TIP3    H165537   5.570   4.385  13.553 -0.6020 -0.5678 -0.1401
14682TIP3    H265538   5.665   4.412  13.668  0.5777 -0.2246 -1.1670
14683TIP3   OH265539   0.166   5.124  12.592 -0.2137  0.3456 -0.0028
14683TIP3    H165540   0.116   5.167  12.661 -1.2587 -0.5968 -0.1505
14683TIP3    H265541   0.103   5.108  12.522  0.9183  1.6741 -1.3914
14684TIP3   OH265542   4.675   1.928   5.835 -0.0454  0.1324 -0.0683
14684TIP3    H165543   4.676   1.966   5.747 -0.7324  0.3165  0.0015
14684TIP3    H265544   4.638   1.840   5.823  0.3453 -0.0380 -0.0382
14685TIP3   OH265545   5.189   2.959   2.907  0.0367  0.2903  0.1084
14685TIP3    H165546   5.145   3.036   2.945  0.6148 -0.9918  3.7673
14685TIP3    H265547   5.279   2.988   2.891  0.4160  0.3075  2.0324
14686TIP3   OH265548   2.822   1.040  17.169  0.0454  0.3649  0.4747
14686TIP3    H165549   2.733   1.008  17.186  0.5711 -0.4815  1.7727
14686TIP3    H265550   2.809   1.126  17.128 -1.4039  1.5390  3.1442
14687TIP3   OH265551   4.554   3.329   3.124  0.2277 -0.4808 -0.3836
14687TIP3    H165552   4.644   3.333   3.157 -0.5383 -3.1922  2.6881
14687TIP3    H265553   4.507   3.394   3.176 -0.0897 -1.3152  0.4139
14688TIP3   OH265554   2.563   5.256  13.581  0.0222 -0.0492 -0.0164
14688TIP3    H165555   2.485   5.277  13.631  1.1298 -0.3031  1.9247
14688TIP3    H265556   2.583   5.165  13.603 -0.1742 -0.6213 -1.9973
14689TIP3   OH265557   1.266   3.576  16.271 -0.3828 -0.1961 -0.4867
14689TIP3    H165558   1.184   3.592  16.224 -0.1667  1.8373 -0.2771
14689TIP3    H265559   1.258   3.487  16.304 -2.3232 -0.2035 -0.8524
14690TIP3   OH265560   3.648   1.709   4.879  0.4378 -0.3521  0.6658
14690TIP3    H165561   3.636   1.784   4.936  0.6139 -0.5924  1.0277
14690TIP3    H265562   3.708   1.651   4.928  1.3855 -0.1172 -0.1806
14691TIP3   OH265563   4.380   0.340   1.157  0.1721  0.3923 -0.2458
14691TIP3    H165564   4.470   0.354   1.126 -0.2018  3.7423 -0.1965
14691TIP3    H265565   4.325   0.372   1.085 -0.8979  0.9083  0.7843
14692TIP3   OH265566   4.057   3.761   0.463  0.0459 -0.1944 -0.0676
14692TIP3    H165567   4.061   3.751   0.558  0.0737  0.9591  0.0715
14692TIP3    H265568   3.965   3.746   0.441  0.1355 -0.9722  0.0681
14693TIP3   OH265569   6.573   5.125  10.453  0.2438  0.2903  0.9747
14693TIP3    H165570   6.581   5.217  10.427  0.4470  0.1889  0.6842
14693TIP3    H265571   6.545   5.079  10.374 -1.1050  0.2899  1.4128
14694TIP3   OH265572   1.105   2.653  12.208  0.3388 -0.4036 -0.2004
14694TIP3    H165573   1.081   2.728  12.153 -0.1943 -1.2645 -1.1883
14694TIP3    H265574   1.096   2.577  12.150  1.4218 -1.1823  0.6133
14695TIP3   OH265575   4.241   2.076  13.937 -0.1299 -0.0859 -0.6654
14695TIP3    H165576   4.159   2.030  13.914 -0.3144 -1.1445  1.8461
14695TIP3    H265577   4.217   2.131  14.011  1.5288 -0.7536  0.3959
14696TIP3   OH265578   3.707   3.401   0.858 -0.2189 -0.4098  0.2318
14696TIP3    H165579   3.768   3.329   0.872  0.7765  0.2078 -0.7629
14696TIP3    H265580   3.623   3.368   0.891  0.6225 -1.2855  1.6162
14697TIP3   OH265581   1.206   2.305  16.991 -0.2934  0.4803  0.0712
14697TIP3    H165582   1.237   2.307  16.901 -0.7223 -0.5507 -0.1204
14697TIP3    H265583   1.279   2.340  17.043  1.9698 -3.2719 -0.1701
14698TIP3   OH265584   0.268   5.759   4.845 -0.5941  0.0922  0.0411
14698TIP3    H165585   0.178   5.764   4.812 -0.4342  0.3363 -0.3673
14698TIP3    H265586   0.269   5.818   4.920 -1.0884 -0.8376  0.7982
14699TIP3   OH265587   1.101   0.737  14.280 -0.1847 -0.6755 -0.3206
14699TIP3    H165588   1.174   0.690  14.240  1.1504 -0.5061  1.8080
14699TIP3    H265589   1.057   0.779  14.206 -0.3053 -3.6295 -2.1081
14700TIP3   OH265590   5.833   0.502   6.192  0.0915  0.3388  0.3703
14700TIP3    H165591   5.914   0.529   6.148  0.0643  1.7044  1.1179
14700TIP3    H265592   5.827   0.408   6.175  1.6534  0.2781  0.0024
14701TIP3   OH265593   0.731   5.882   6.447  0.1102 -0.1678 -0.0915
14701TIP3    H165594   0.738   5.788   6.430  0.8050 -0.2089  0.3991
14701TIP3    H265595   0.671   5.889   6.522  1.3941 -0.3402  0.9809
14702TIP3   OH265596   1.456   2.770  16.454 -0.2038  0.0288 -0.0843
14702TIP3    H165597   1.547   2.789  16.477  0.9442 -0.7896 -3.3806
14702TIP3    H265598   1.450   2.674  16.456 -0.5818  0.0165 -1.1243
14703TIP3   OH265599   5.888   0.902   5.583  0.6367 -0.0542 -0.3767
14703TIP3    H165600   5.976   0.865   5.581  1.5802  2.0493 -1.1784
14703TIP3    H265601   5.888   0.966   5.511 -0.1149  2.9978  2.1330
14704TIP3   OH265602   1.113   5.397  17.092  0.4799  0.2084 -0.1690
14704TIP3    H165603   1.103   5.305  17.066 -0.6917  0.1754  0.3449
14704TIP3    H265604   1.123   5.444  17.009  0.1864 -0.2744 -0.4834
14705TIP3   OH265605   0.568   6.339  13.104  0.1363 -0.5581 -0.5822
14705TIP3    H165606   0.639   6.285  13.138  0.7045  0.8710  0.6105
14705TIP3    H265607   0.496   6.326  13.165 -0.0467 -0.6972 -0.8261
14706TIP3   OH265608   1.905   2.027   3.795 -0.4118 -0.0421  0.2715
14706TIP3    H165609   1.984   1.981   3.823 -0.2627  0.9383  1.4829
14706TIP3    H265610   1.932   2.076   3.717  0.2526  0.4911  0.8281
14707TIP3   OH265611   6.709   1.730  13.881  0.2874  0.4430 -0.2828
14707TIP3    H165612   6.792   1.762  13.917  1.0887 -1.1892 -0.5826
14707TIP3    H265613   6.701   1.774  13.796  0.8686  0.5685 -0.2788
14708TIP3   OH265614   3.019   4.037   3.914 -0.7104  0.1475 -0.1247
14708TIP3    H165615   3.067   4.093   3.976 -2.3989 -0.0360  1.4321
14708TIP3    H265616   3.079   4.027   3.840 -0.0379  3.3731 -0.1486
14709TIP3   OH265617   3.964   3.044  11.717 -0.7203 -0.1348  0.2698
14709TIP3    H165618   3.927   3.129  11.743 -0.0120  0.4808 -0.6794
14709TIP3    H265619   4.054   3.046  11.750 -0.1656  0.1989 -1.1993
14710TIP3   OH265620   3.113   2.065  17.046  0.0302  0.2273  0.1147
14710TIP3    H165621   3.134   2.158  17.054 -0.9032  0.3209  2.2592
14710TIP3    H265622   3.030   2.056  17.092  0.2014 -1.7134  0.1047
14711TIP3   OH265623   2.833   6.211  15.470  0.0141  0.8197  0.1020
14711TIP3    H165624   2.854   6.163  15.390  0.0282  0.2598  0.4328
14711TIP3    H265625   2.916   6.247  15.499 -0.2192  2.2302 -0.8887
14712TIP3   OH265626   5.987   2.818  12.802  0.0630 -0.0128 -0.1712
14712TIP3    H165627   5.970   2.877  12.729  0.9264  0.1073 -0.2885
14712TIP3    H265628   6.020   2.875  12.872 -1.2017 -0.0593  0.4884
14713TIP3   OH265629   6.735   2.785  13.522  0.3532 -0.2765 -1.0959
14713TIP3    H165630   6.831   2.795  13.518  0.4760  0.4239  1.4617
14713TIP3    H265631   6.720   2.742  13.607 -1.7305  2.5503  0.1170
14714TIP3   OH265632   2.272   4.903  11.100  0.1816 -0.0944  0.0559
14714TIP3    H165633   2.247   4.977  11.045  2.3821  0.1025 -0.7703
14714TIP3    H265634   2.211   4.833  11.076  0.8830  0.0734 -2.4844
14715TIP3   OH265635   4.882   6.647   4.612 -0.0184  0.3153  0.1370
14715TIP3    H165636   4.961   6.693   4.642  0.8150  0.2490 -1.7654
14715TIP3    H265637   4.861   6.688   4.528 -1.6806 -0.0859  0.3189
14716TIP3   OH265638   1.756   4.160   2.502 -0.4270 -0.1355 -0.2991
14716TIP3    H165639   1.694   4.132   2.570  0.3611  0.1268  0.5493
14716TIP3    H265640   1.751   4.091   2.436 -0.3089 -1.0651  0.6200
14717TIP3   OH265641   3.101   2.519  11.451 -0.0848 -0.2573  0.3655
14717TIP3    H165642   3.074   2.579  11.381 -1.1845  1.5701  2.2191
14717TIP3    H265643   3.197   2.521  11.449 -0.0994  1.0366 -0.0887
14718TIP3   OH265644   0.235   0.620  13.837  0.2411 -0.4110  0.2659
14718TIP3    H165645   0.187   0.578  13.766  0.8786  0.3228 -0.6202
14718TIP3    H265646   0.223   0.561  13.912 -4.2210  0.9131  0.9148
14719TIP3   OH265647   5.352   0.447  12.193 -0.8098 -0.0999 -0.1513
14719TIP3    H165648   5.297   0.516  12.157  0.6273  0.5282 -1.2567
14719TIP3    H265649   5.308   0.366  12.167 -1.3825  0.3813 -0.7276
14720TIP3   OH265650   2.193   3.529   5.474 -0.2235 -0.1250 -0.4562
14720TIP3    H165651   2.135   3.582   5.529  0.1455 -0.4706  0.2852
14720TIP3    H265652   2.248   3.593   5.429  2.8729  0.2384  3.2695
14721TIP3   OH265653   2.568   4.279  16.789 -0.0419 -0.0898 -0.3118
14721TIP3    H165654   2.566   4.188  16.818 -2.1900  0.3060  0.9964
14721TIP3    H265655   2.530   4.278  16.701 -0.4886 -0.4213 -0.1181
14722TIP3   OH265656   3.800   3.415   5.916 -0.1122 -0.2442  0.0748
14722TIP3    H165657   3.706   3.403   5.904 -0.4924  1.6945  0.6033
14722TIP3    H265658   3.833   3.441   5.829  0.0426 -1.3884 -0.2199
14723TIP3   OH265659   5.969   0.174  12.586 -0.5486  0.1887 -0.1054
14723TIP3    H165660   6.039   0.183  12.521 -1.1493  1.6043 -0.6002
14723TIP3    H265661   5.963   0.080  12.603  1.1601  0.0013 -0.3844
14724TIP3   OH265662   4.484   1.236   5.390 -0.1220 -0.0426  0.3876
14724TIP3    H165663   4.470   1.240   5.485 -1.7306 -2.2292  0.3358
14724TIP3    H265664   4.424   1.302   5.354  0.2978  0.6105  0.8713
14725TIP3   OH265665   3.973   5.056  15.726 -0.6278 -0.0463 -0.3580
14725TIP3    H165666   4.036   4.985  15.738 -2.6421 -1.6073  2.0036
14725TIP3    H265667   4.009   5.130  15.775 -1.3403 -1.5138  2.6390
14726TIP3   OH265668   1.463   6.678   5.693 -0.4456 -0.0760  0.7516
14726TIP3    H165669   1.530   6.622   5.655 -1.4604 -0.3873 -0.6306
14726TIP3    H265670   1.449   6.643   5.781  1.0779 -0.0900  1.0130
14727TIP3   OH265671   1.498   5.613   3.552  0.1639 -0.2287 -0.1995
14727TIP3    H165672   1.547   5.535   3.579  0.3710  1.0001  3.4859
14727TIP3    H265673   1.418   5.579   3.513  0.5326 -2.3170  0.7486
14728TIP3   OH265674   2.485   5.164   5.976 -0.0039 -0.2719 -0.3387
14728TIP3    H165675   2.499   5.214   6.057  2.8033  1.0482 -1.5255
14728TIP3    H265676   2.393   5.178   5.956 -0.4062  0.6661  1.7841
14729TIP3   OH265677   2.234   4.313   5.019 -0.4016  0.2819 -0.1939
14729TIP3    H165678   2.279   4.230   5.037 -0.7468 -0.0015 -0.6129
14729TIP3    H265679   2.142   4.289   5.008 -0.4251  0.6422 -0.8433
14730TIP3   OH265680   0.050   2.529  16.193 -0.4333  0.2955  0.1567
14730TIP3    H165681  -0.017   2.505  16.129  0.3150  1.9719 -1.3142
14730TIP3    H265682   0.072   2.620  16.172  0.3921  0.6508  2.3196
14731TIP3   OH265683   0.193   2.483  17.116  0.0582  0.2412 -0.0642
14731TIP3    H165684   0.234   2.441  17.192  0.4126  1.4508  0.4363
14731TIP3    H265685   0.156   2.411  17.066 -0.1256 -0.5950  1.2285
14732TIP3   OH265686   6.513   6.218   5.205  0.1607 -0.2295  0.3690
14732TIP3    H165687   6.546   6.128   5.208  1.3646  0.1131 -1.1791
14732TIP3    H265688   6.419   6.210   5.219  0.3254 -1.6611  0.8413
14733TIP3   OH265689   6.499   3.093  15.415 -0.3924 -0.0623 -0.4328
14733TIP3    H165690   6.434   3.047  15.468 -1.9969  2.9401  0.4691
14733TIP3    H265691   6.576   3.100  15.471 -1.3508  1.2670  0.7873
14734TIP3   OH265692   0.795   5.092  16.960 -0.7564 -0.7499 -0.1092
14734TIP3    H165693   0.734   5.063  16.892  0.0677 -0.6738 -0.9121
14734TIP3    H265694   0.816   5.183  16.936  0.0362 -0.9310 -0.1346
14735TIP3   OH265695   2.279   6.588   0.070  0.0647 -0.1465  0.5336
14735TIP3    H165696   2.195   6.629   0.046  0.8201  2.4438  1.9160
14735TIP3    H265697   2.329   6.589  -0.011 -0.9196 -0.9204 -0.1073
14736TIP3   OH265698   5.304   5.210  11.469  0.2156 -0.1556  0.5276
14736TIP3    H165699   5.365   5.137  11.466 -1.2982 -1.4741  0.5459
14736TIP3    H265700   5.263   5.211  11.382 -1.0079 -0.4707  1.0685
14737TIP3   OH265701   1.995   5.275  14.119 -0.2060 -0.3351  0.1450
14737TIP3    H165702   1.920   5.225  14.151  0.1629 -1.1959 -0.3048
14737TIP3    H265703   1.967   5.306  14.032 -0.1813 -0.3412  0.1352
14738TIP3   OH265704   2.454   0.749  12.556  0.1647 -0.5396 -0.5080
14738TIP3    H165705   2.499   0.743  12.641 -1.6295  1.2489  0.6704
14738TIP3    H265706   2.523   0.737  12.491  2.0440  0.3694  1.2133
14739TIP3   OH265707   3.807   2.211   4.258 -0.2938  0.1172 -0.4759
14739TIP3    H165708   3.820   2.297   4.218 -3.6557  1.2629  0.4976
14739TIP3    H265709   3.745   2.166   4.200 -2.1608  0.2578  1.2869
14740TIP3   OH265710   0.708   0.803  12.713  0.1305 -0.3435 -0.0332
14740TIP3    H165711   0.791   0.762  12.738 -0.7730 -1.1395  1.9028
14740TIP3    H265712   0.733   0.875  12.655  2.0129 -1.7069 -1.0202
14741TIP3   OH265713   3.942   1.321  16.826  0.3690  0.1923 -0.9706
14741TIP3    H165714   4.027   1.280  16.839 -0.2073 -0.5098  0.8756
14741TIP3    H265715   3.883   1.247  16.808 -0.4047  0.2973  0.9146
14742TIP3   OH265716   2.040   6.257  13.921 -0.0306 -0.1007  0.2424
14742TIP3    H165717   2.113   6.300  13.877 -0.0038 -0.2194  0.1719
14742TIP3    H265718   1.995   6.328  13.968  2.2788 -0.5124  3.3833
14743TIP3   OH265719   3.637   2.382   1.419 -0.1741 -0.1658  0.2189
14743TIP3    H165720   3.588   2.378   1.337  1.2765  0.1908 -0.7070
14743TIP3    H265721   3.599   2.455   1.467 -1.8851 -1.1714  0.4644
14744TIP3   OH265722   3.353   0.164  10.956 -0.0463 -0.1485  0.0594
14744TIP3    H165723   3.384   0.230  11.018 -0.3362  1.2196 -1.2261
14744TIP3    H265724   3.389   0.082  10.990  0.7114  0.7078  1.4271
14745TIP3   OH265725   6.035   4.697   2.440  0.2284  0.3084 -0.0381
14745TIP3    H165726   6.009   4.694   2.347 -2.2262  1.6899  0.5125
14745TIP3    H265727   5.970   4.642   2.484  0.6771  0.6019  1.0107
14746TIP3   OH265728   2.708   3.990  16.288  0.0915  0.2000 -0.3633
14746TIP3    H165729   2.797   3.962  16.307 -0.4371 -0.6329  1.0804
14746TIP3    H265730   2.657   3.909  16.286 -0.4387  0.5298 -2.5436
14747TIP3   OH265731   0.056   5.072   4.278 -0.5058  0.3644  0.3808
14747TIP3    H165732   0.087   5.151   4.234  0.1808  0.3514  0.8274
14747TIP3    H265733   0.031   5.101   4.365 -1.4075  0.3004  0.1505
14748TIP3   OH265734   2.519   4.511   5.125  0.4635 -0.0422 -0.2616
14748TIP3    H165735   2.537   4.418   5.140  2.4463  0.4843  1.1138
14748TIP3    H265736   2.548   4.526   5.035  0.9348 -0.5985 -0.2115
14749TIP3   OH265737   5.585   5.951  14.458 -0.3728 -0.2708 -0.1778
14749TIP3    H165738   5.506   6.004  14.448 -0.2162 -0.0460 -0.2303
14749TIP3    H265739   5.653   6.014  14.483 -1.2525 -1.0239  5.2515
14750TIP3   OH265740   5.480   6.733  16.135  0.0052  0.0558  0.0642
14750TIP3    H165741   5.466   6.724  16.041  0.2174 -0.2973  0.0667
14750TIP3    H265742   5.558   6.681  16.153  0.1128  0.3238  0.3946
14751TIP3   OH265743   6.047   3.506   2.062 -0.2851  0.0166 -0.2563
14751TIP3    H165744   6.087   3.429   2.103 -0.4658 -0.3029 -0.6705
14751TIP3    H265745   6.028   3.478   1.973 -2.0922 -0.0775  0.1306
14752TIP3   OH265746   5.383   5.798  15.644  0.5077  0.2728  0.5112
14752TIP3    H165747   5.421   5.727  15.592  0.1460 -0.8117  1.6835
14752TIP3    H265748   5.293   5.771  15.660  0.6932  0.4186  1.9565
14753TIP3   OH265749   0.202   6.516   4.318 -0.6050  0.0484  0.3601
14753TIP3    H165750   0.154   6.454   4.374 -1.0288 -0.2078 -0.2774
14753TIP3    H265751   0.134   6.576   4.285 -0.4518 -0.1523 -0.3321
14754TIP3   OH265752   2.372   2.340  17.009  0.2782 -0.6278  0.0560
14754TIP3    H165753   2.424   2.263  17.033  0.2313 -1.0092 -1.0192
14754TIP3    H265754   2.425   2.414  17.037  0.3735 -1.0412  1.0024
14755TIP3   OH265755   5.461   5.408  14.665 -0.0605  0.1243  0.0921
14755TIP3    H165756   5.415   5.371  14.591  2.0396 -0.8253 -0.8193
14755TIP3    H265757   5.478   5.499  14.640  0.3647 -0.1072 -0.4868
14756TIP3   OH265758   6.641   2.103   5.515  0.1153 -0.0325 -0.2614
14756TIP3    H165759   6.700   2.042   5.559  0.7360  0.7105 -0.0508
14756TIP3    H265760   6.683   2.188   5.524 -1.8537  0.8318  1.4495
14757TIP3   OH265761   1.516   1.248   1.790  0.0356 -0.1293  0.4866
14757TIP3    H165762   1.518   1.206   1.704  0.3388 -0.9384  0.8737
14757TIP3    H265763   1.566   1.329   1.779  0.9798 -0.7447  0.1510
14758TIP3   OH265764   1.918   6.450   2.285 -0.0185  0.2657 -0.8197
14758TIP3    H165765   1.888   6.541   2.281  0.8649  0.5542 -1.1762
14758TIP3    H265766   2.005   6.456   2.326 -0.3840 -0.5294  0.1062
14759TIP3   OH265767   6.350   5.668  14.535  0.0640 -0.4642 -0.7317
14759TIP3    H165768   6.409   5.688  14.607 -1.7915 -0.4323  0.8619
14759TIP3    H265769   6.323   5.753  14.500  0.4979 -0.4686 -1.0876
14760TIP3   OH265770   4.527   1.998   4.636  0.1116 -0.2688 -0.0271
14760TIP3    H165771   4.497   1.952   4.558 -2.0060 -0.4640  0.8236
14760TIP3    H265772   4.448   2.010   4.688  1.4050  0.0929  1.9643
14761TIP3   OH265773   3.652   3.592  14.948 -0.2585 -0.3299  0.2134
14761TIP3    H165774   3.726   3.598  14.888 -1.3696  0.0044 -1.1920
14761TIP3    H265775   3.584   3.545  14.899 -0.9524 -0.7448  1.4996
14762TIP3   OH265776   5.833   0.587   2.344 -0.1279  0.3227 -0.2503
14762TIP3    H165777   5.886   0.619   2.271  0.4305  1.8816  0.7960
14762TIP3    H265778   5.750   0.634   2.336 -0.3970 -0.1655 -0.3738
14763TIP3   OH265779   4.506   0.986  16.088  0.0062  0.0221  0.3014
14763TIP3    H165780   4.543   0.912  16.039  0.0892  0.8411 -0.9004
14763TIP3    H265781   4.520   0.962  16.180 -0.1845 -1.5614 -0.0427
14764TIP3   OH265782   1.228   6.068   2.904  0.1986 -0.1119 -0.3922
14764TIP3    H165783   1.322   6.075   2.892  0.0356 -0.6170 -2.3304
14764TIP3    H265784   1.203   6.148   2.951  1.6337 -0.2656  0.7153
14765TIP3   OH265785   4.023   3.812  14.164 -0.5220  0.4213 -0.1511
14765TIP3    H165786   4.005   3.867  14.088 -0.9998  0.8428  0.2647
14765TIP3    H265787   4.085   3.863  14.216  0.4712 -0.2257 -0.6593
14766TIP3   OH265788   6.713   5.593  13.729  0.6188  0.6263 -0.2805
14766TIP3    H165789   6.746   5.529  13.792  0.0969  1.6078  1.0303
14766TIP3    H265790   6.774   5.666  13.734 -0.4013  1.4582  0.4330
14767TIP3   OH265791   3.245   4.676  11.075 -0.1420  0.2577 -0.1711
14767TIP3    H165792   3.191   4.608  11.033 -1.0425 -0.5099  2.0817
14767TIP3    H265793   3.331   4.667  11.033 -0.9323 -0.5210 -1.7248
14768TIP3   OH265794   4.294   0.998   4.153 -0.3908 -0.5883  0.8033
14768TIP3    H165795   4.251   1.025   4.072  0.5763 -2.5545 -0.4320
14768TIP3    H265796   4.364   1.063   4.165 -0.1341 -0.6368 -0.2967
14769TIP3   OH265797   5.970   5.938  15.713 -0.1251  0.2701  0.6309
14769TIP3    H165798   5.886   5.942  15.668  1.4466  2.6601 -2.4667
14769TIP3    H265799   5.972   6.017  15.767  0.2830  0.4856  0.3117
14770TIP3   OH265800   2.627   3.145  11.304 -0.5503 -0.2316 -0.0959
14770TIP3    H165801   2.558   3.191  11.352 -0.2968 -0.5786  0.6065
14770TIP3    H265802   2.634   3.193  11.221  0.1796  1.4170  0.8792
14771TIP3   OH265803   2.028   6.064   3.509  0.0725  0.8135  0.6978
14771TIP3    H165804   2.117   6.063   3.474 -0.4048  0.0556 -0.6061
14771TIP3    H265805   1.999   5.973   3.502 -2.0046  1.5424 -2.3438
14772TIP3   OH265806   5.292   4.956  10.877  0.1880 -0.4114  0.3433
14772TIP3    H165807   5.283   4.981  10.785  1.1626  0.1427  0.3819
14772TIP3    H265808   5.381   4.983  10.900 -0.3000  0.1286  1.6639
14773TIP3   OH265809   5.410   5.643   4.939  0.4684 -0.3956 -0.2448
14773TIP3    H165810   5.449   5.582   5.001  1.4424 -0.8224 -1.2407
14773TIP3    H265811   5.368   5.587   4.874 -1.0119  0.0488  0.2807
14774TIP3   OH265812   1.931   3.144   2.665 -0.4969 -0.0894  0.3488
14774TIP3    H165813   1.915   3.102   2.749  2.6901  0.0391  1.1541
14774TIP3    H265814   1.933   3.072   2.602 -1.5402 -0.3460  0.5936
14775TIP3   OH265815   3.890   5.446   5.260 -0.0854  0.1149  0.2540
14775TIP3    H165816   3.808   5.447   5.310 -1.2361 -0.4461 -1.5163
14775TIP3    H265817   3.884   5.368   5.205  0.1490  1.7199 -2.2085
14776TIP3   OH265818   5.269   1.823  12.950  0.1035  0.7466 -0.8386
14776TIP3    H165819   5.322   1.744  12.953 -0.9394 -0.0093 -1.4046
14776TIP3    H265820   5.209   1.815  13.025 -1.4029 -0.0656 -2.0727
14777TIP3   OH265821   2.737   2.995   4.916 -0.1898  0.0207 -0.6644
14777TIP3    H165822   2.756   3.073   4.970 -1.3442  0.0359 -0.2497
14777TIP3    H265823   2.721   2.926   4.980 -3.6464  0.5131 -0.8430
14778TIP3   OH265824   3.606   0.335  10.190  0.3056 -0.1236 -0.0161
14778TIP3    H165825   3.592   0.426  10.217 -1.1614 -0.1956 -0.4519
14778TIP3    H265826   3.699   0.319  10.206  0.6857  1.5996 -0.3580
14779TIP3   OH265827   5.569   0.980  16.456 -0.4858  0.2407  0.2785
14779TIP3    H165828   5.514   1.051  16.487 -1.0347 -1.1570  2.7756
14779TIP3    H265829   5.659   1.013  16.464 -0.7803  1.1298  0.0191
14780TIP3   OH265830   2.425   3.479  14.583  0.1749 -0.9558 -0.1106
14780TIP3    H165831   2.371   3.402  14.599 -0.0720 -0.4029  1.9054
14780TIP3    H265832   2.383   3.523  14.510 -2.2292 -0.4819  1.4564
14781TIP3   OH265833   3.327   4.675   5.812  0.6751  0.2114 -0.1790
14781TIP3    H165834   3.282   4.594   5.836  0.1673 -0.3755 -2.8474
14781TIP3    H265835   3.258   4.734   5.783  0.9815  1.8754  2.1289
14782TIP3   OH265836   6.566   5.830  13.906  0.1150 -0.2603 -0.1919
14782TIP3    H165837   6.608   5.798  13.827 -0.6072 -0.0480 -0.6717
14782TIP3    H265838   6.473   5.811  13.894  0.2441 -2.5069  1.7051
14783TIP3   OH265839   3.313   4.142   1.270 -0.6243  0.0847 -0.0518
14783TIP3    H165840   3.383   4.207   1.275 -0.8366  0.2752  0.6280
14783TIP3    H265841   3.296   4.119   1.362 -1.0041 -0.4399 -0.2504
14784TIP3   OH265842   4.986   0.406   0.701 -0.1832 -0.0354  0.4473
14784TIP3    H165843   5.009   0.334   0.758  1.6261  2.1238  2.6574
14784TIP3    H265844   4.896   0.429   0.726  0.2436  0.2595  1.7897
14785TIP3   OH265845   5.746   2.282  13.381  0.0990 -0.0798 -0.2225
14785TIP3    H165846   5.694   2.351  13.421  0.7564 -0.3244  1.0910
14785TIP3    H265847   5.773   2.318  13.297  0.5841  1.3431  0.5188
14786TIP3   OH265848   4.304   6.610  12.381 -0.3710  0.2452 -0.6536
14786TIP3    H165849   4.351   6.553  12.442  0.5402  0.8620 -0.7682
14786TIP3    H265850   4.217   6.570  12.372 -1.2121  1.1033  2.4667
14787TIP3   OH265851   3.366   2.929   4.492  0.4551  0.0248  0.3111
14787TIP3    H165852   3.434   2.870   4.525  1.4858  0.2031 -1.3839
14787TIP3    H265853   3.377   2.928   4.397 -2.0418 -0.0712 -0.0571
14788TIP3   OH265854   5.784   0.811  12.898 -0.1688  0.5346  0.2999
14788TIP3    H165855   5.766   0.732  12.847 -1.1564  1.1805 -0.3811
14788TIP3    H265856   5.861   0.849  12.856 -1.2885  1.3480 -1.1039
14789TIP3   OH265857   4.417   4.296   2.686 -0.2590 -0.0253  0.3929
14789TIP3    H165858   4.459   4.262   2.765 -0.2467  0.9155  0.8018
14789TIP3    H265859   4.441   4.388   2.683  0.3054 -0.1859 -1.0863
14790TIP3   OH265860   5.290   1.435  15.145  0.1467  0.1622 -0.6815
14790TIP3    H165861   5.273   1.379  15.069 -0.5747  0.1012 -0.4883
14790TIP3    H265862   5.222   1.503  15.140 -0.5898 -0.4515  0.4791
14791TIP3   OH265863   2.171   2.487  12.642  0.3227 -0.0943  0.1654
14791TIP3    H165864   2.093   2.434  12.662  0.5458 -0.8326 -0.8716
14791TIP3    H265865   2.181   2.480  12.548 -0.3998  2.8657 -0.2448
14792TIP3   OH265866   4.889   2.399  14.442  0.1078 -0.2259  0.1974
14792TIP3    H165867   4.818   2.426  14.383  1.2167 -1.4073 -1.7962
14792TIP3    H265868   4.863   2.312  14.473  0.3392 -0.3521  0.0395
14793TIP3   OH265869   3.712   3.680  16.508 -0.0676 -0.1796 -0.0877
14793TIP3    H165870   3.761   3.747  16.461  0.0914  0.3282  0.7762
14793TIP3    H265871   3.694   3.719  16.594 -1.7497 -0.4405 -0.2785
14794TIP3   OH265872   6.693   1.635  12.514  0.4424  0.3603  0.2725
14794TIP3    H165873   6.638   1.581  12.457 -0.3694 -0.2015  1.5486
14794TIP3    H265874   6.697   1.720  12.470 -0.7385  0.1472 -0.2736
14795TIP3   OH265875   4.688   3.018   1.407  0.6836  0.1252 -0.7542
14795TIP3    H165876   4.624   2.964   1.452  0.8931  1.5458  1.3554
14795TIP3    H265877   4.674   2.999   1.314 -1.0356 -1.4836 -0.2213
14796TIP3   OH265878   3.264   0.434   0.376  0.4658  0.1357  0.1958
14796TIP3    H165879   3.232   0.375   0.444  1.5321 -0.8577 -0.1352
14796TIP3    H265880   3.258   0.383   0.295 -0.0262  1.0174 -0.3397
14797TIP3   OH265881   6.078   1.332   2.626 -0.2726  0.2582  0.2776
14797TIP3    H165882   6.099   1.338   2.533 -0.1133  1.0676  0.3596
14797TIP3    H265883   6.096   1.241   2.649  2.8400  0.7453  0.2372
14798TIP3   OH265884   0.720   2.020  15.122  0.6733 -0.4536  0.1563
14798TIP3    H165885   0.725   2.043  15.215  2.0593 -0.2036  0.0398
14798TIP3    H265886   0.734   2.103  15.076 -0.4957 -0.4881 -0.2968
14799TIP3   OH265887   4.108   3.242   4.277 -0.1968 -0.4876  0.2078
14799TIP3    H165888   4.070   3.155   4.276  0.1096 -0.6627  1.5818
14799TIP3    H265889   4.184   3.234   4.335  1.1182  0.1832 -1.3436
14800TIP3   OH265890   0.454   2.201   4.230 -0.2528 -0.0600 -0.2666
14800TIP3    H165891   0.402   2.187   4.309  1.8903  0.7294  1.3874
14800TIP3    H265892   0.442   2.294   4.210  0.8089  0.2490  0.4156
14801TIP3   OH265893   3.829   6.440   3.307 -0.1155  0.0434 -0.8237
14801TIP3    H165894   3.856   6.431   3.398 -1.1613 -0.6490 -0.5720
14801TIP3    H265895   3.840   6.353   3.270  0.2565  0.3102 -1.3591
14802TIP3   OH265896   3.015   3.159  14.234 -0.3243 -0.2629  0.4339
14802TIP3    H165897   3.075   3.085  14.242 -0.4521 -0.3729  0.3648
14802TIP3    H265898   3.073   3.234  14.221 -0.2372 -0.5025 -0.6101
14803TIP3   OH265899   5.783   0.500  12.817 -0.8185  0.2432  0.0487
14803TIP3    H165900   5.762   0.463  12.731  2.1037  0.6318 -0.9517
14803TIP3    H265901   5.836   0.433  12.860 -1.4359  0.4540  1.1894
14804TIP3   OH265902   1.033   3.059  16.088  0.1435 -0.7250  0.8473
14804TIP3    H165903   0.986   2.977  16.108 -0.8190 -0.1060  1.2127
14804TIP3    H265904   0.988   3.093  16.011 -0.6142  0.3179  1.7147
14805TIP3   OH265905   0.023   5.429  14.351 -0.1301  0.5311 -0.3794
14805TIP3    H165906   0.065   5.401  14.432  1.0198  1.1745 -0.7193
14805TIP3    H265907  -0.015   5.350  14.314  0.0930  0.0723  0.3593
14806TIP3   OH265908   0.163   2.028   1.242 -0.1149  0.5363 -0.6437
14806TIP3    H165909   0.230   2.056   1.305 -0.8507 -0.0560  0.4477
14806TIP3    H265910   0.206   2.035   1.157  0.5622  2.4009 -0.1904
14807TIP3   OH265911   4.167   0.077  14.842 -0.3665  0.0006 -0.0944
14807TIP3    H165912   4.088   0.048  14.886  0.5838  1.0880  2.5687
14807TIP3    H265913   4.224   0.000  14.840 -0.3562 -0.0302  0.8361
14808TIP3   OH265914   2.929   4.824   1.875 -0.0721  0.4273 -0.0537
14808TIP3    H165915   2.971   4.804   1.959 -0.4489 -0.6604 -0.1037
14808TIP3    H265916   2.842   4.856   1.899  0.4137  1.7547  0.0147
14809TIP3   OH265917   1.457   6.299  14.364 -0.4298  0.5893 -0.1913
14809TIP3    H165918   1.520   6.369  14.380  0.1363  0.1960 -0.6450
14809TIP3    H265919   1.462   6.284  14.269 -1.3051  0.6391 -0.2570
14810TIP3   OH265920   2.053   4.357  11.550  0.1201  0.5217 -0.2690
14810TIP3    H165921   2.020   4.340  11.461  0.4720  1.9100 -0.6889
14810TIP3    H265922   2.080   4.271  11.582 -3.1370 -0.6143 -0.1720
14811TIP3   OH265923   4.320   1.247   0.717  0.1027 -0.1488  1.1607
14811TIP3    H165924   4.352   1.228   0.628 -0.5667 -2.6726  1.3980
14811TIP3    H265925   4.322   1.343   0.722 -0.6526  0.1367 -1.8701
14812TIP3   OH265926   3.585   2.959   1.405  0.0097 -0.4169 -0.1001
14812TIP3    H165927   3.588   2.927   1.495 -1.8163  0.4128  0.3029
14812TIP3    H265928   3.525   2.900   1.361  1.9304 -1.6607 -1.2009
14813TIP3   OH265929   6.289   2.846   5.480  0.3107  0.3736 -0.0774
14813TIP3    H165930   6.198   2.873   5.476  0.4543  0.8763  0.0316
14813TIP3    H265931   6.307   2.833   5.573  0.2860  0.0486 -0.1171
14814TIP3   OH265932   5.001   3.625  17.202  0.4448  0.3880 -0.1635
14814TIP3    H165933   4.988   3.689  17.272 -1.7707 -0.7096  0.5362
14814TIP3    H265934   4.961   3.666  17.125 -1.3428 -0.2584  0.3802
14815TIP3   OH265935   6.027   5.236  10.349 -0.0407 -0.3263  0.3816
14815TIP3    H165936   6.107   5.184  10.347 -0.2529 -0.6327 -1.3352
14815TIP3    H265937   5.957   5.174  10.369 -0.2782 -0.7349 -1.5515
14816TIP3   OH265938   2.161   6.463  11.411  0.4758  0.3636  0.0143
14816TIP3    H165939   2.246   6.503  11.428 -0.3723  1.6170  1.6434
14816TIP3    H265940   2.181   6.372  11.391  2.1577  0.4065  1.2642
14817TIP3   OH265941   6.324   5.941  14.915 -0.2124 -0.1887  0.0670
14817TIP3    H165942   6.240   5.971  14.883  0.3831  0.2234 -1.1880
14817TIP3    H265943   6.305   5.899  14.999 -1.2655  2.4178  1.2286
14818TIP3   OH265944   5.150   5.829   2.987 -0.1816  0.7302 -0.2539
14818TIP3    H165945   5.228   5.881   3.009 -1.4180  1.9757  1.4289
14818TIP3    H265946   5.124   5.788   3.069 -0.7310 -0.4941 -1.0193
14819TIP3   OH265947   2.517   3.082   5.069 -0.4634  0.3022 -0.1349
14819TIP3    H165948   2.577   3.149   5.101 -0.1165  0.1014 -0.3659
14819TIP3    H265949   2.538   3.004   5.120 -0.3647  0.1654 -0.3816
14820TIP3   OH265950   4.198   1.617  15.074 -0.2907  0.5270  0.6079
14820TIP3    H165951   4.287   1.652  15.075 -0.8030  1.9674 -0.4400
14820TIP3    H265952   4.160   1.645  15.157 -0.1389  0.9596  0.5341
14821TIP3   OH265953   1.104   2.499  14.570  0.1620  0.7541  0.0204
14821TIP3    H165954   1.161   2.443  14.517 -0.7701  0.2666 -0.5069
14821TIP3    H265955   1.163   2.561  14.611  0.9558  1.0419 -1.4653
14822TIP3   OH265956   3.981   1.391   4.600  0.0380 -0.1257 -0.7117
14822TIP3    H165957   3.984   1.297   4.615  0.1355  0.1456  1.3896
14822TIP3    H265958   3.891   1.409   4.573 -1.0431 -0.4792  2.2740
14823TIP3   OH265959   3.231   0.315   4.230  0.6388  0.6169  0.2311
14823TIP3    H165960   3.292   0.248   4.199 -1.1908 -1.2270  0.3475
14823TIP3    H265961   3.183   0.273   4.301 -0.1592  2.2848  0.7362
14824TIP3   OH265962   2.948   1.219   2.478  0.8912 -0.3158 -0.7289
14824TIP3    H165963   2.853   1.217   2.466  0.6327  1.4263  0.7245
14824TIP3    H265964   2.975   1.127   2.472 -1.2095 -1.1277  1.2208
14825TIP3   OH265965   5.742   0.937   1.595 -0.0083  0.5152 -0.3149
14825TIP3    H165966   5.714   1.020   1.633 -2.2857  0.1834 -1.1079
14825TIP3    H265967   5.662   0.885   1.588  1.1191 -1.2229 -1.1512
14826TIP3   OH265968   2.472   1.193   2.069  0.1473 -0.0899  0.5759
14826TIP3    H165969   2.558   1.234   2.064  0.2220 -0.2270  0.7218
14826TIP3    H265970   2.425   1.241   2.137 -0.3868  0.8881 -0.4405
14827TIP3   OH265971   1.675   1.208   5.726 -1.4241 -0.0907 -0.4784
14827TIP3    H165972   1.591   1.244   5.700 -1.4954 -0.1670 -0.3509
14827TIP3    H265973   1.657   1.156   5.805 -0.9005  1.6314  0.8359
14828TIP3   OH265974   4.472   2.238  12.567 -0.4791 -0.4298  0.9625
14828TIP3    H165975   4.439   2.328  12.566  2.3129  0.7491  1.7987
14828TIP3    H265976   4.413   2.191  12.626 -0.9590  1.3595  1.9879
14829TIP3   OH265977   4.877   2.673  15.828 -0.3326 -0.2504  0.5243
14829TIP3    H165978   4.919   2.591  15.799  2.5244  1.1063  0.4413
14829TIP3    H265979   4.851   2.716  15.747 -1.9597 -1.0795  0.5732
14830TIP3   OH265980   4.400   3.809  11.854  0.5530 -0.3332  0.4628
14830TIP3    H165981   4.490   3.779  11.868  0.4169 -0.8877  0.1713
14830TIP3    H265982   4.349   3.728  11.849  0.4539 -0.1976 -2.3873
14831TIP3   OH265983   5.911   5.204  13.294  0.2694 -0.3165 -0.0835
14831TIP3    H165984   5.998   5.191  13.333  1.2174 -0.2886 -2.0637
14831TIP3    H265985   5.902   5.133  13.231 -2.7543 -2.5395  2.5031
14832TIP3   OH265986   3.050   4.006   5.334 -0.7216 -0.6782 -0.2077
14832TIP3    H165987   2.977   4.067   5.319 -0.2572  0.6598  2.3971
14832TIP3    H265988   3.123   4.063   5.357 -0.0393 -2.1700  1.4721
14833TIP3   OH265989   4.669   3.283  11.016 -0.3228 -0.0734  0.1525
14833TIP3    H165990   4.672   3.301  10.922  2.0171 -0.6166  0.0624
14833TIP3    H265991   4.647   3.190  11.021  0.9559 -0.4097  0.0318
14834TIP3   OH265992   4.151   0.658   4.092 -0.1070  0.2128  0.6867
14834TIP3    H165993   4.057   0.673   4.090 -0.4456 -1.7244 -0.2297
14834TIP3    H265994   4.187   0.733   4.140 -2.3223 -0.0286  2.9280
14835TIP3   OH265995   1.944   1.100  16.472  0.2039 -0.0422  0.7670
14835TIP3    H165996   1.883   1.086  16.543  0.1529  1.1838  0.9942
14835TIP3    H265997   1.965   1.013  16.439 -0.6262 -0.5437  1.5569
14836TIP3   OH265998   5.325   4.593  13.349 -0.3207  0.0321 -0.5168
14836TIP3    H165999   5.320   4.596  13.445 -0.7986 -1.3010 -0.4731
14836TIP3    H266000   5.235   4.609  13.320 -0.7113 -1.9788 -0.6082
14837TIP3   OH266001   4.922   4.434   1.894 -0.0360 -0.5957  0.3823
14837TIP3    H166002   4.842   4.436   1.841 -1.7186 -1.5322  2.7021
14837TIP3    H266003   4.912   4.507   1.955 -0.5021 -2.2357  2.4059
14838TIP3   OH266004   0.004   5.265   2.217 -0.5261 -0.2504  0.3339
14838TIP3    H166005   0.017   5.345   2.166  2.6585 -0.0365  1.2510
14838TIP3    H266006   0.059   5.199   2.174 -0.9989 -1.2069  1.1327
14839TIP3   OH266007   1.765   2.658   1.392 -0.1144 -0.5245 -0.5489
14839TIP3    H166008   1.741   2.633   1.303  0.9282 -0.8836 -0.7361
14839TIP3    H266009   1.812   2.583   1.427 -0.6189 -0.4352  0.3585
14840TIP3   OH266010   5.569   3.426   0.874 -0.0340 -0.0005 -0.2604
14840TIP3    H166011   5.652   3.463   0.843  0.4411 -0.6319  0.1957
14840TIP3    H266012   5.593   3.337   0.902 -0.8444 -0.1379  0.0092
14841TIP3   OH266013   0.373   0.365   3.779 -0.0439  0.1004  0.5366
14841TIP3    H166014   0.308   0.315   3.829 -1.4013  0.9970 -0.2859
14841TIP3    H266015   0.455   0.351   3.827 -0.6330 -1.7891  1.0898
14842TIP3   OH266016   2.924   0.536  14.582  0.3742 -0.4495 -0.1007
14842TIP3    H166017   2.873   0.486  14.519 -1.1403  0.4892  0.3316
14842TIP3    H266018   2.920   0.626  14.550 -3.8973  0.8625  3.2750
14843TIP3   OH266019   1.686   3.364   0.162  0.4258  0.9501  0.8912
14843TIP3    H166020   1.709   3.370   0.070 -2.6675 -0.0344 -0.0711
14843TIP3    H266021   1.645   3.448   0.182  0.3793  0.8745  1.1206
14844TIP3   OH266022   4.336   6.489  13.104  0.7300 -0.0788 -0.6170
14844TIP3    H166023   4.281   6.489  13.182  1.2250 -0.5781 -0.2603
14844TIP3    H266024   4.381   6.405  13.106  0.0998 -0.4671 -1.9167
14845TIP3   OH266025   3.714   1.162  11.630  0.4507 -0.6789 -0.5281
14845TIP3    H166026   3.763   1.206  11.699 -0.9250  3.2083 -1.7697
14845TIP3    H266027   3.781   1.135  11.566  1.3745 -0.3947  0.3024
14846TIP3   OH266028   3.340   5.993   4.561  0.3874  0.2189 -0.2224
14846TIP3    H166029   3.382   6.079   4.560  2.7148 -0.8405 -0.0410
14846TIP3    H266030   3.357   5.958   4.474  0.6329 -0.5641  0.1342
14847TIP3   OH266031   0.136   5.792   1.646 -0.0363  0.3732  0.5537
14847TIP3    H166032   0.141   5.848   1.723 -0.9112 -0.0802  0.9575
14847TIP3    H266033   0.213   5.815   1.594  0.3450  0.9704  1.3653
14848TIP3   OH266034   3.590   6.666  11.283 -0.3842 -0.3018  0.2752
14848TIP3    H166035   3.556   6.666  11.373  1.0378  1.0328  0.8545
14848TIP3    H266036   3.607   6.574  11.264 -0.4105 -0.5806  1.5064
14849TIP3   OH266037   2.227   6.592  11.706  0.1226  0.2211  0.4093
14849TIP3    H166038   2.289   6.579  11.777 -0.0887  2.1357  0.9970
14849TIP3    H266039   2.259   6.669  11.660 -0.5199 -0.1680 -0.7431
14850TIP3   OH266040   5.912   6.054  12.930  0.1411 -0.3127  0.3815
14850TIP3    H166041   5.927   6.033  13.022  1.1996  1.4500  0.6484
14850TIP3    H266042   5.948   5.979  12.882  1.0681 -0.5134  1.3494
14851TIP3   OH266043   6.119   3.589   1.750 -0.2472  0.6251  0.7088
14851TIP3    H166044   6.209   3.601   1.781 -0.2717  2.1129  0.2623
14851TIP3    H266045   6.103   3.663   1.693 -1.0309 -0.7797 -0.9963
14852TIP3   OH266046   2.643   4.736   0.693 -0.7047  0.5924  0.2501
14852TIP3    H166047   2.604   4.674   0.632 -1.5970  1.1500  0.2356
14852TIP3    H266048   2.606   4.712   0.778 -0.6207  0.7564  0.3333
14853TIP3   OH266049   6.384   4.318   1.229 -0.0237  0.3019 -0.2096
14853TIP3    H166050   6.365   4.237   1.276 -0.5601  0.2631 -0.4872
14853TIP3    H266051   6.480   4.323   1.227  0.0075  0.3160  0.8999
14854TIP3   OH266052   3.082   1.200   4.040  0.0549 -0.7684 -0.2620
14854TIP3    H166053   3.065   1.293   4.027  0.2930 -0.2158  2.5670
14854TIP3    H266054   2.997   1.158   4.026 -0.5728  0.1870  0.4784
14855TIP3   OH266055   6.745   2.557  14.272 -0.1928  0.1313 -0.6777
14855TIP3    H166056   6.781   2.568  14.360  2.4822 -1.6254 -1.4523
14855TIP3    H266057   6.651   2.570  14.283  0.3301  2.7528  1.8998
14856TIP3   OH266058   0.344   2.094   6.174  0.5451  0.4775 -0.2240
14856TIP3    H166059   0.261   2.092   6.221  0.9163  0.8543  0.4575
14856TIP3    H266060   0.406   2.130   6.236  1.2743 -0.0207 -0.6462
14857TIP3   OH266061   0.145   1.809   1.005 -1.0271  0.5095 -0.5356
14857TIP3    H166062   0.061   1.851   0.989 -0.5889  1.4052 -0.5351
14857TIP3    H266063   0.136   1.723   0.965 -1.5333  1.0352 -1.5944
14858TIP3   OH266064   0.893   2.748  14.869  0.0558  0.9000  0.3658
14858TIP3    H166065   0.804   2.750  14.833  0.7051 -1.2437 -1.5486
14858TIP3    H266066   0.888   2.685  14.941 -0.1940  1.6670  1.0394
14859TIP3   OH266067   4.215   6.219   6.330  0.2876 -0.0259  0.5619
14859TIP3    H166068   4.165   6.293   6.294  0.8356  0.8038  1.4627
14859TIP3    H266069   4.152   6.147   6.331  0.0960  0.0658 -1.4897
14860TIP3   OH266070   1.997   2.325   0.553  0.2862 -0.1194 -0.1592
14860TIP3    H166071   2.064   2.381   0.515 -0.2866 -0.1991 -1.3076
14860TIP3    H266072   2.013   2.330   0.648  1.0837  0.8971 -0.3314
14861TIP3   OH266073   4.748   0.239   4.501 -0.0860  0.3924 -0.1716
14861TIP3    H166074   4.735   0.178   4.573 -0.9156  2.1609  1.2572
14861TIP3    H266075   4.661   0.255   4.466  0.1034  0.8496 -0.4461
14862TIP3   OH266076   0.512   0.669   5.433 -0.0184  0.2457 -0.5536
14862TIP3    H166077   0.580   0.610   5.466 -1.0042 -0.5482  0.1185
14862TIP3    H266078   0.514   0.744   5.492  0.8124  0.6085 -1.0282
14863TIP3   OH266079   2.643   3.034  13.479  0.2480  0.2026  0.3341
14863TIP3    H166080   2.703   3.016  13.407  0.3041  0.0267  0.4247
14863TIP3    H266081   2.585   2.958  13.482  1.2587 -0.5564  1.5048
14864TIP3   OH266082   0.697   4.244  14.784  0.1835  0.2726  0.1878
14864TIP3    H166083   0.623   4.197  14.746  0.1993  1.7975 -1.9414
14864TIP3    H266084   0.768   4.180  14.786 -0.0718 -0.1124 -1.6597
14865TIP3   OH266085   5.901   5.665  11.422 -0.6168 -0.1735  0.1487
14865TIP3    H166086   5.917   5.578  11.458 -0.1955 -1.2884 -2.5547
14865TIP3    H266087   5.815   5.660  11.382 -0.2484  0.3995 -0.7385
14866TIP3   OH266088   5.355   4.172   2.998  0.1500  0.7785 -0.3262
14866TIP3    H166089   5.270   4.216   2.996 -1.5428 -2.2016  0.2218
14866TIP3    H266090   5.376   4.164   3.091 -0.4200 -0.9757 -0.3226
14867TIP3   OH266091   3.926   3.726   4.516 -0.3736 -0.2670  0.3014
14867TIP3    H166092   3.943   3.809   4.470 -0.3420 -0.1018  0.6089
14867TIP3    H266093   3.980   3.662   4.469 -0.6007 -0.1674 -0.1043
14868TIP3   OH266094   6.576   4.631   1.150 -0.0496  0.0246 -0.4239
14868TIP3    H166095   6.556   4.696   1.083  0.0635  1.8776  1.2541
14868TIP3    H266096   6.657   4.590   1.121  0.6002  1.5794 -0.8908
14869TIP3   OH266097   4.841   1.164  16.651  0.5545 -0.5104  0.4119
14869TIP3    H166098   4.844   1.077  16.690  0.2686 -0.8982 -0.4092
14869TIP3    H266099   4.800   1.151  16.565 -0.5998  0.5994  0.7477
14870TIP3   OH266100   2.519   5.803  16.050  0.2485 -0.5528 -0.7599
14870TIP3    H166101   2.473   5.778  15.970 -1.0599  0.2967 -0.3105
14870TIP3    H266102   2.543   5.894  16.038 -0.8621 -0.1066  0.1848
14871TIP3   OH266103   0.873   2.903  13.290  0.1976  0.2385  0.6960
14871TIP3    H166104   0.938   2.857  13.342  1.7039  0.0501 -1.2576
14871TIP3    H266105   0.797   2.844  13.288  1.0516 -0.8876  0.5895
14872TIP3   OH266106   4.009   2.757   1.511  0.1634  0.3938  0.1183
14872TIP3    H166107   4.027   2.708   1.430  0.1594  0.8256 -0.1495
14872TIP3    H266108   3.991   2.690   1.576  0.5890  0.0196 -0.1373
14873TIP3   OH266109   2.437   6.261  13.519 -0.2670 -0.4496 -0.4297
14873TIP3    H166110   2.383   6.257  13.598 -1.0617 -0.4854 -0.9574
14873TIP3    H266111   2.500   6.331  13.537 -0.0911 -0.8156  0.4405
14874TIP3   OH266112   1.381   4.998  11.677  0.4680  0.3030 -0.3479
14874TIP3    H166113   1.357   4.946  11.754  4.3573 -1.2783  0.0109
14874TIP3    H266114   1.352   4.946  11.603  0.1384 -0.0647  0.0354
14875TIP3   OH266115   3.291   6.066  16.144  0.1079 -0.3758 -0.0988
14875TIP3    H166116   3.316   5.979  16.175  0.9797  0.5570  1.9586
14875TIP3    H266117   3.373   6.106  16.117  0.1276  0.7462  1.5155
14876TIP3   OH266118   1.517   1.888   1.920 -0.9755 -0.2990  1.0014
14876TIP3    H166119   1.590   1.829   1.901  0.0342  0.7357  1.5633
14876TIP3    H266120   1.547   1.974   1.890 -1.4395  0.3777  2.4089
14877TIP3   OH266121   2.650   2.835   0.262 -0.4773 -0.2771 -0.4189
14877TIP3    H166122   2.634   2.839   0.357 -3.2263  1.4784 -0.8270
14877TIP3    H266123   2.633   2.744   0.239 -1.0010 -0.4685  0.6206
14878TIP3   OH266124   3.352   6.122  14.795 -0.2712  0.0904  0.5115
14878TIP3    H166125   3.282   6.061  14.818  0.1179 -0.9397 -0.9133
14878TIP3    H266126   3.415   6.113  14.866 -0.1379 -1.3259  0.2400
14879TIP3   OH266127   6.119   5.509   2.010  0.1397  0.6520 -0.0094
14879TIP3    H166128   6.185   5.538   2.073 -0.2499 -0.6206  1.0273
14879TIP3    H266129   6.157   5.529   1.925  1.7934  0.1279  0.5639
14880TIP3   OH266130   3.060   3.214  15.455 -0.4127 -0.4459  0.5505
14880TIP3    H166131   3.063   3.267  15.534 -1.8335  1.6143 -0.6741
14880TIP3    H266132   2.983   3.158  15.466 -0.8090  0.0839  0.5043
14881TIP3   OH266133   1.382   5.981  13.814  0.7988  0.2482  0.7418
14881TIP3    H166134   1.302   5.940  13.780  0.7008  1.7348 -0.9918
14881TIP3    H266135   1.356   6.071  13.834  1.9343  0.6332  0.5488
14882TIP3   OH266136   3.255   0.083   2.726 -0.0245  0.0620 -0.2191
14882TIP3    H166137   3.198   0.128   2.789 -1.5315 -0.0258 -1.4673
14882TIP3    H266138   3.260  -0.007   2.759 -1.9415 -0.3414 -0.9087
14883TIP3   OH266139   5.297   6.782  12.019 -0.5567 -0.3445 -0.1075
14883TIP3    H166140   5.335   6.697  12.039 -0.8803  0.0450  2.4434
14883TIP3    H266141   5.306   6.832  12.100 -0.1391  2.1667 -1.5893
14884TIP3   OH266142   2.383   6.159   5.309  0.0361  0.2564 -0.5473
14884TIP3    H166143   2.468   6.192   5.341 -0.3119 -0.1401  0.8579
14884TIP3    H266144   2.391   6.064   5.315 -0.7535  0.2231  0.3516
14885TIP3   OH266145   1.529   4.997  12.266 -0.0376  0.4863  0.2504
14885TIP3    H166146   1.485   4.959  12.342  0.1766 -0.2048  0.0406
14885TIP3    H266147   1.529   5.091  12.283 -0.9350  0.4343  0.5932
14886TIP3   OH266148   0.997   4.735  13.871 -0.8260 -0.4528  0.5983
14886TIP3    H166149   1.040   4.737  13.786 -1.5076 -1.0774  0.2234
14886TIP3    H266150   1.032   4.656  13.913 -1.5451 -0.9428  0.3058
14887TIP3   OH266151   6.809   2.739  12.262 -0.8875  0.6582  0.2720
14887TIP3    H166152   6.895   2.707  12.289 -0.6537 -0.8382 -2.0220
14887TIP3    H266153   6.749   2.706  12.330  0.1038  0.1758  0.9315
14888TIP3   OH266154   2.606   0.263   4.814 -0.8059  0.8576  0.4710
14888TIP3    H166155   2.587   0.254   4.721 -2.2854  2.7093  0.5185
14888TIP3    H266156   2.701   0.271   4.819 -0.7957  2.1522 -1.0627
14889TIP3   OH266157   0.993   2.663   1.424 -0.2740  0.0911 -0.0582
14889TIP3    H166158   1.052   2.718   1.474 -0.5386 -0.5148  0.9383
14889TIP3    H266159   0.914   2.716   1.414  0.0352  0.4816 -0.4482
14890TIP3   OH266160   2.865   1.852   4.951 -0.4609 -0.2141  0.6744
14890TIP3    H166161   2.814   1.930   4.929 -0.0473 -0.1087  0.0309
14890TIP3    H266162   2.912   1.831   4.870 -0.8919 -1.3902  0.7072
14891TIP3   OH266163   3.166   5.467  16.405 -0.0322 -0.4365  0.0365
14891TIP3    H166164   3.105   5.393  16.403 -0.6833 -0.0046 -3.6533
14891TIP3    H266165   3.114   5.541  16.435 -1.5130 -0.1011 -2.9489
14892TIP3   OH266166   6.223   6.832   2.129 -0.0685 -0.2753  0.6124
14892TIP3    H166167   6.223   6.841   2.224  0.5766  2.5103  0.4488
14892TIP3    H266168   6.287   6.897   2.099 -2.1184  0.8067 -1.8208
14893TIP3   OH266169   5.864   3.616  10.840  0.1530  0.2734 -0.1741
14893TIP3    H166170   5.818   3.595  10.759 -0.5552  0.4880  0.1592
14893TIP3    H266171   5.844   3.544  10.899  1.2861 -0.2580 -0.4248
14894TIP3   OH266172   2.675   1.109   1.681  0.1659 -1.5225 -0.0599
14894TIP3    H166173   2.592   1.061   1.680 -0.5500 -0.4218  1.9348
14894TIP3    H266174   2.676   1.156   1.598 -2.0719 -0.2026  0.5759
14895TIP3   OH266175   6.328   5.635  14.249  0.1099  0.2108  0.7299
14895TIP3    H166176   6.423   5.630  14.248  0.0832 -1.6243 -1.0417
14895TIP3    H266177   6.301   5.579  14.322  0.3844  0.3118  0.9074
14896TIP3   OH266178   4.885   1.068   5.809  0.2333  0.3336 -0.1261
14896TIP3    H166179   4.834   0.988   5.823  0.4330  0.2764  0.2636
14896TIP3    H266180   4.822   1.139   5.823  0.1129  0.2538 -0.2493
14897TIP3   OH266181   5.988   5.240   2.376 -0.1611  0.2826 -0.3146
14897TIP3    H166182   6.005   5.326   2.414 -2.5709  0.6187  0.2190
14897TIP3    H266183   5.996   5.252   2.282  1.0071  0.6898 -0.1748
14898TIP3   OH266184   2.475   6.592  13.867 -0.2966 -0.0505  0.0517
14898TIP3    H166185   2.423   6.666  13.836  0.6745 -0.0915 -1.8209
14898TIP3    H266186   2.413   6.536  13.912 -1.5259  0.7343 -0.6176
14899TIP3   OH266187   6.158   0.323  11.830  0.0099 -0.0473 -0.0062
14899TIP3    H166188   6.088   0.386  11.845 -0.7290 -0.9982  0.6899
14899TIP3    H266189   6.113   0.244  11.798  0.6849 -0.8748  1.0170
14900TIP3   OH266190   0.640   2.769  12.746  0.5969 -0.2288  0.2141
14900TIP3    H166191   0.563   2.818  12.718  0.2986 -0.6116  0.3647
14900TIP3    H266192   0.606   2.701  12.803  1.3630  1.6804  3.1487
14901TIP3   OH266193   4.814   2.407  11.408  0.4247 -0.3961 -0.3999
14901TIP3    H166194   4.777   2.353  11.338  0.5220 -0.0573 -0.7117
14901TIP3    H266195   4.809   2.351  11.486 -2.4889  0.2594  0.0101
14902TIP3   OH266196   1.882   4.260   0.332 -0.7255 -0.4652  0.2478
14902TIP3    H166197   1.927   4.302   0.405 -0.4586  1.8042 -1.1168
14902TIP3    H266198   1.931   4.288   0.254 -1.8532 -1.6002 -0.9283
14903TIP3   OH266199   4.151   6.264   2.414  0.3719  0.1052  0.5076
14903TIP3    H166200   4.129   6.200   2.481  0.0067 -0.8685 -0.5089
14903TIP3    H266201   4.246   6.269   2.416  0.3944 -0.3581  0.6904
14904TIP3   OH266202   3.615   4.282   2.191  0.0470 -0.2303 -0.6245
14904TIP3    H166203   3.521   4.265   2.184 -0.1042 -0.8435  1.9344
14904TIP3    H266204   3.628   4.309   2.282  2.6093 -2.1216 -0.3286
14905TIP3   OH266205   6.707   1.806   6.487  0.3255 -0.0623 -0.2969
14905TIP3    H166206   6.707   1.741   6.557 -0.7799 -1.5637 -1.6187
14905TIP3    H266207   6.793   1.797   6.446  0.5655  0.0577  0.1741
14906TIP3   OH266208   1.002   5.764  11.791  0.1833 -0.5402  0.3799
14906TIP3    H166209   1.048   5.797  11.714  0.3349 -1.4938  0.0502
14906TIP3    H266210   0.940   5.700  11.756  1.3039 -2.1307  1.1503
14907TIP3   OH266211   0.754   1.485  15.439 -0.2417 -0.1580  0.5436
14907TIP3    H166212   0.825   1.459  15.380  0.7650  1.0850  1.1678
14907TIP3    H266213   0.791   1.555  15.492 -1.6367 -0.1569  1.5715
14908TIP3   OH266214   3.989   6.012   4.198 -0.2324 -0.3200 -0.1173
14908TIP3    H166215   3.965   5.935   4.250 -0.3036 -1.1011 -1.2779
14908TIP3    H266216   3.984   6.085   4.260 -1.5305 -1.0435  0.6791
14909TIP3   OH266217   6.254   0.802  12.246  0.4550 -0.3261  0.5678
14909TIP3    H166218   6.321   0.857  12.206  0.1785  0.0786  0.6521
14909TIP3    H266219   6.175   0.857  12.247  0.3508 -0.4863  1.2758
14910TIP3   OH266220   2.938   4.120   0.270 -0.3096 -0.2088 -0.6769
14910TIP3    H166221   2.868   4.113   0.335 -0.0124  0.9705 -0.2063
14910TIP3    H266222   2.896   4.162   0.194 -0.0933  0.6275 -0.3428
14911TIP3   OH266223   2.228   4.596  15.941 -0.4178 -0.2714 -0.0082
14911TIP3    H166224   2.216   4.570  15.850 -1.4141 -1.8736  0.5354
14911TIP3    H266225   2.316   4.564  15.963 -0.4091 -0.4181 -0.2464
14912TIP3   OH266226   2.547   6.620   4.479 -0.4842  0.4930  0.6575
14912TIP3    H166227   2.561   6.664   4.563 -2.4755 -0.0390  1.3088
14912TIP3    H266228   2.620   6.559   4.472  0.4548  1.4775  1.3356
14913TIP3   OH266229   1.601   2.438   4.366  0.0839 -0.4216  0.0854
14913TIP3    H166230   1.672   2.378   4.343 -0.4239 -0.7635 -0.6529
14913TIP3    H266231   1.525   2.403   4.319 -0.3194  0.5589 -0.0100
14914TIP3   OH266232   6.451   3.573   0.007 -0.0482  0.4421  0.1828
14914TIP3    H166233   6.452   3.606  -0.083  0.9833 -1.3313 -0.5018
14914TIP3    H266234   6.544   3.560   0.029 -0.3213  0.1702  1.2298
14915TIP3   OH266235   5.515   6.042   0.064 -0.2516  0.0329 -0.4631
14915TIP3    H166236   5.588   6.075   0.116 -0.5751 -1.1971  0.8666
14915TIP3    H266237   5.479   6.119   0.021 -1.1706  1.5214  2.6920
14916TIP3   OH266238   2.234   5.624  11.227  0.1691  0.3337 -0.1787
14916TIP3    H166239   2.286   5.545  11.209  0.4603  0.6340 -0.6932
14916TIP3    H266240   2.292   5.696  11.204  0.2181  0.7348  1.1239
14917TIP3   OH266241   1.846   5.351   4.766 -0.3424  0.3034 -0.0440
14917TIP3    H166242   1.928   5.328   4.722 -0.0544 -1.4467  1.2638
14917TIP3    H266243   1.790   5.386   4.697  1.0832  0.4338 -1.1920
14918TIP3   OH266244   6.804   5.173  14.252 -0.6670  0.3397  0.1557
14918TIP3    H166245   6.861   5.143  14.181  0.7554 -0.8121  1.6964
14918TIP3    H266246   6.719   5.134  14.232 -0.2718 -0.0455 -0.8606
14919TIP3   OH266247   3.255   1.822   3.725  0.1798 -0.1068 -0.0611
14919TIP3    H166248   3.337   1.862   3.754  0.3641 -1.2513  1.0592
14919TIP3    H266249   3.258   1.733   3.759 -1.6341 -0.1043  0.2029
14920TIP3   OH266250   6.835   5.354  11.634  0.5164 -0.0612  0.8324
14920TIP3    H166251   6.898   5.292  11.670  1.0369  0.2281  0.4256
14920TIP3    H266252   6.848   5.435  11.684  0.7920  0.1399  0.4440
14921TIP3   OH266253   6.443   1.885  11.333  0.2514 -0.4569 -0.6193
14921TIP3    H166254   6.532   1.883  11.296  1.2927  1.5718  1.5155
14921TIP3    H266255   6.389   1.918  11.262  1.7631  1.1668 -1.0908
14922TIP3   OH266256   0.871   3.473   2.227  0.3192 -0.3039  0.2225
14922TIP3    H166257   0.957   3.442   2.198  0.3730  0.5562 -0.6009
14922TIP3    H266258   0.877   3.569   2.223 -1.0194 -0.2349 -0.9509
14923TIP3   OH266259   4.461   6.204   4.998  0.5998 -0.6585 -0.3472
14923TIP3    H166260   4.552   6.175   4.991  0.5713 -0.4042 -2.3055
14923TIP3    H266261   4.415   6.131   5.038  1.9730 -0.0418  2.5747
14924TIP3   OH266262   4.745   2.502  10.453 -0.0391  0.2443 -0.0822
14924TIP3    H166263   4.728   2.484  10.545 -0.5927  1.1155  0.0032
14924TIP3    H266264   4.821   2.449  10.431 -0.1956 -0.3295  0.7496
14925TIP3   OH266265   3.960   1.708  11.229 -0.1418  0.3177 -0.2413
14925TIP3    H166266   4.016   1.677  11.300 -1.3337  1.0434  1.0773
14925TIP3    H266267   3.873   1.716  11.269 -0.5666  2.0896 -1.3852
14926TIP3   OH266268   3.850   4.874  11.446 -0.0099 -0.3480  1.1770
14926TIP3    H166269   3.774   4.819  11.428 -0.0724 -0.4623  1.7615
14926TIP3    H266270   3.828   4.959  11.409  0.0824 -0.7105  0.2740
14927TIP3   OH266271   4.155   1.547  11.777  0.1359  0.1461  0.1038
14927TIP3    H166272   4.075   1.566  11.728 -0.0303  2.0263  1.0056
14927TIP3    H266273   4.159   1.451  11.780 -2.2201 -0.0067  0.2430
14928TIP3   OH266274   4.173   2.818   6.228  0.5746 -0.3747 -0.0090
14928TIP3    H166275   4.105   2.854   6.286  1.6613 -0.8220  1.6190
14928TIP3    H266276   4.249   2.808   6.285  0.8768 -3.5613 -0.8056
14929TIP3   OH266277   3.798   1.261  13.148  0.2021  0.0530  0.4638
14929TIP3    H166278   3.835   1.212  13.221  0.3357 -0.6107 -0.0376
14929TIP3    H266279   3.706   1.274  13.172 -0.1232 -1.4334  0.1109
14930TIP3   OH266280   3.682   3.201   5.109 -0.6924  0.3948  0.0685
14930TIP3    H166281   3.754   3.250   5.148 -0.3639  0.7992 -1.0023
14930TIP3    H266282   3.643   3.152   5.181  1.0581 -0.3316  0.5451
14931TIP3   OH266283   6.570   0.653   4.485  0.1388  0.0017 -0.2168
14931TIP3    H166284   6.493   0.611   4.445  1.6284 -1.6573 -1.5107
14931TIP3    H266285   6.628   0.671   4.412  1.3799  0.3915  0.8249
14932TIP3   OH266286   3.884   3.812  14.496 -0.1071  0.1422  0.2832
14932TIP3    H166287   3.856   3.723  14.476 -3.3951  0.0592  4.1248
14932TIP3    H266288   3.817   3.868  14.458  0.1148  0.7078  0.7084
14933TIP3   OH266289   5.034   3.025   2.375 -0.2027 -0.4152  0.2157
14933TIP3    H166290   4.992   3.022   2.288  2.2672  0.4579 -1.0907
14933TIP3    H266291   5.026   2.935   2.407 -3.5312 -0.2045  0.3774
14934TIP3   OH266292   2.441   3.560  12.732 -0.5022  0.2504  0.0354
14934TIP3    H166293   2.411   3.554  12.641  2.6954 -3.1790 -1.0496
14934TIP3    H266294   2.377   3.510  12.782  0.0186 -1.7151 -1.1743
14935TIP3   OH266295   0.767   5.513  12.015  0.1746 -0.2938  0.3455
14935TIP3    H166296   0.860   5.497  12.033  0.1874  1.2442  1.8252
14935TIP3    H266297   0.737   5.567  12.088 -1.6369  0.1438 -0.6712
14936TIP3   OH266298   5.964   3.319  16.517  0.2486  0.0726  0.0177
14936TIP3    H166299   5.939   3.235  16.555 -0.0782 -0.1577 -0.6997
14936TIP3    H266300   6.057   3.309  16.497 -0.0894 -0.6102 -1.3107
14937TIP3   OH266301   1.410   1.133   5.786  0.5875 -0.3923  0.0574
14937TIP3    H166302   1.344   1.143   5.855 -0.9686 -0.3615 -1.3767
14937TIP3    H266303   1.383   1.055   5.738  1.4149 -0.1908 -0.7593
14938TIP3   OH266304   2.632   5.013  13.777  0.4951  0.5023  0.2134
14938TIP3    H166305   2.581   4.974  13.848  0.0539 -0.0288 -0.3873
14938TIP3    H266306   2.701   4.949  13.759 -0.0991  0.0620 -0.6232
14939TIP3   OH266307   2.490   5.382  10.643 -0.0955 -0.0459 -1.0185
14939TIP3    H166308   2.435   5.311  10.611  0.1338  0.6680 -3.1305
14939TIP3    H266309   2.461   5.459  10.596  0.8013  0.9374 -0.0376
14940TIP3   OH266310   5.593   3.264   2.413  0.1196 -0.1090 -0.2190
14940TIP3    H166311   5.633   3.349   2.396 -3.3155  1.3875 -1.9312
14940TIP3    H266312   5.501   3.275   2.387 -1.2278 -3.4950  2.2693
14941TIP3   OH266313   1.938   2.101   2.425  0.4658  0.3976 -0.3731
14941TIP3    H166314   1.937   2.196   2.412  0.6534  0.5808  0.8393
14941TIP3    H266315   1.883   2.067   2.355 -1.0420  1.5404  0.1975
14942TIP3   OH266316   0.327   6.282  15.013 -1.0281 -0.2159  0.1278
14942TIP3    H166317   0.238   6.299  15.045 -1.8274 -2.4453 -0.6966
14942TIP3    H266318   0.325   6.312  14.922 -0.1244  2.0091  0.7888
14943TIP3   OH266319   6.636   2.297   4.881 -0.1028 -0.2973  0.3423
14943TIP3    H166320   6.678   2.292   4.796  2.0509 -2.7637  1.4237
14943TIP3    H266321   6.568   2.230   4.878 -1.6031  1.1701 -0.1281
14944TIP3   OH266322   2.537   5.448  14.294 -0.3847 -0.3789 -0.5499
14944TIP3    H166323   2.545   5.353  14.287  0.6954 -0.2128 -1.9428
14944TIP3    H266324   2.602   5.482  14.233 -1.3447  1.2564 -0.7103
14945TIP3   OH266325   6.725   4.728  12.641  0.5686 -0.5324  0.1684
14945TIP3    H166326   6.785   4.726  12.566 -0.6888  2.7041 -1.0921
14945TIP3    H266327   6.780   4.756  12.715  1.1485 -0.3475 -0.3280
14946TIP3   OH266328   2.617   3.311   3.536 -0.2303  0.9107 -0.0284
14946TIP3    H166329   2.681   3.358   3.483 -0.7846  1.7436  0.0341
14946TIP3    H266330   2.612   3.224   3.496  0.9085  0.8424 -0.0536
14947TIP3   OH266331   2.025   1.086   4.335  0.2777  0.5506 -0.1640
14947TIP3    H166332   2.059   1.074   4.246 -0.5016  0.1136 -0.4007
14947TIP3    H266333   2.046   1.005   4.381 -2.1235 -0.5460 -0.8601
14948TIP3   OH266334   2.416   1.039  11.730  0.5498  0.6633  0.6314
14948TIP3    H166335   2.389   0.951  11.702 -0.5446  1.4908 -1.0761
14948TIP3    H266336   2.511   1.039  11.720  0.4582  0.0085 -0.3978
14949TIP3   OH266337   1.402   0.347  15.915  0.0650  0.0731  1.0034
14949TIP3    H166338   1.336   0.413  15.897 -0.0414  0.5790  2.9677
14949TIP3    H266339   1.483   0.397  15.931  0.6012 -0.4490 -0.0015
14950TIP3   OH266340   3.936   2.219   5.550 -0.2990  0.2005  0.2083
14950TIP3    H166341   4.029   2.237   5.562  0.0234 -0.9982 -0.3056
14950TIP3    H266342   3.927   2.125   5.568 -1.0335 -0.1341 -1.6639
14951TIP3   OH266343   0.624   6.651  16.455 -0.4402 -0.1972  0.2449
14951TIP3    H166344   0.628   6.746  16.459 -1.2725 -0.0212 -1.9306
14951TIP3    H266345   0.599   6.624  16.544  1.3398  1.4621  1.3365
14952TIP3   OH266346   0.413   3.824   1.868  0.0262  0.3384 -0.2278
14952TIP3    H166347   0.467   3.897   1.838  0.7675 -0.2774 -0.4115
14952TIP3    H266348   0.475   3.761   1.903 -0.4520 -0.9389 -1.6080
14953TIP3   OH266349   2.719   5.637   3.758  1.1069  0.0839 -0.2165
14953TIP3    H166350   2.794   5.654   3.815  0.0944  1.7443  0.6807
14953TIP3    H266351   2.662   5.581   3.811  0.9486  0.1928 -0.2750
14954TIP3   OH266352   0.884   2.239   1.094 -0.3729  0.1088  0.1750
14954TIP3    H166353   0.812   2.189   1.056  0.9120 -1.4901 -0.2324
14954TIP3    H266354   0.904   2.305   1.028  1.3593 -2.1929 -1.7742
14955TIP3   OH266355   3.904   4.637  14.113  0.1154 -0.0226 -0.4711
14955TIP3    H166356   3.836   4.644  14.046 -0.1539 -0.3857 -0.2381
14955TIP3    H266357   3.975   4.692  14.080  0.6038 -1.3761 -1.8221
14956TIP3   OH266358   4.793   2.497   2.232 -0.4547 -0.6086  0.4015
14956TIP3    H166359   4.720   2.504   2.171  0.3304 -3.0013 -0.9517
14956TIP3    H266360   4.811   2.403   2.238  3.8625 -0.1066 -1.0222
14957TIP3   OH266361   1.310   2.951  11.517  0.3885 -0.5728  0.2336
14957TIP3    H166362   1.380   2.889  11.534 -0.3665 -1.3842  0.4555
14957TIP3    H266363   1.299   2.950  11.422  2.6863  1.8311 -0.1506
14958TIP3   OH266364   0.346   1.455   4.061 -0.5634 -0.1867  0.1452
14958TIP3    H166365   0.435   1.448   4.097 -0.8820 -1.6009  0.7446
14958TIP3    H266366   0.290   1.419   4.130 -1.4773 -0.3441 -0.6690
14959TIP3   OH266367   6.208   5.049  15.608  0.3206 -0.6076  0.4966
14959TIP3    H166368   6.249   5.096  15.680 -2.2568 -0.3784  1.9078
14959TIP3    H266369   6.117   5.035  15.636 -1.3966  1.1709 -3.4159
14960TIP3   OH266370   2.936   3.468  12.451  0.7141  0.1050 -0.6104
14960TIP3    H166371   2.910   3.498  12.364 -0.8016  1.3152  0.2078
14960TIP3    H266372   2.860   3.485  12.506  1.3099 -1.4962  0.7884
14961TIP3   OH266373   2.551   0.425   1.368  0.0088  0.0681 -0.5332
14961TIP3    H166374   2.620   0.363   1.392 -0.1406 -0.5629 -1.6630
14961TIP3    H266375   2.517   0.456   1.452  0.2398 -1.1993  0.0614
14962TIP3   OH266376   0.776   0.401   6.040 -0.4783  0.6140 -0.2964
14962TIP3    H166377   0.806   0.344   5.969 -0.3926  2.5882 -1.9403
14962TIP3    H266378   0.833   0.380   6.114 -0.3885 -1.3211 -0.8701
14963TIP3   OH266379   2.380   2.529   1.150  0.4195 -0.1253 -0.0184
14963TIP3    H166380   2.473   2.516   1.166  0.7642  0.5274 -1.3407
14963TIP3    H266381   2.340   2.530   1.237  1.6889 -0.0542  0.5816
14964TIP3   OH266382   3.079   5.408   3.076 -0.2984  0.1151  0.0705
14964TIP3    H166383   2.984   5.423   3.067 -0.4414  0.4778  1.8239
14964TIP3    H266384   3.086   5.316   3.100 -0.1589 -0.0371 -0.5387
14965TIP3   OH266385   5.965   0.886   1.062 -0.1505  0.7049  0.1865
14965TIP3    H166386   5.905   0.813   1.077  1.1289 -0.2451  0.9367
14965TIP3    H266387   6.030   0.878   1.131  0.8573  1.6780 -0.6097
14966TIP3   OH266388   5.348   2.939  14.298 -0.2545  0.5416 -0.2902
14966TIP3    H166389   5.356   2.846  14.316  0.7854  0.7704  0.5073
14966TIP3    H266390   5.279   2.945  14.232 -2.5309 -0.5366  1.8538
14967TIP3   OH266391   1.192   2.746  14.713  0.7895 -0.1297 -0.6581
14967TIP3    H166392   1.213   2.820  14.770  1.9862  1.0646 -2.5432
14967TIP3    H266393   1.121   2.701  14.758 -0.4725  2.5548  0.2491
14968TIP3   OH266394   1.560   6.605   2.332  0.1571  0.5548  0.0908
14968TIP3    H166395   1.562   6.557   2.414 -0.2238 -1.2837 -0.9253
14968TIP3    H266396   1.568   6.697   2.358  1.7325 -0.0519  2.0625
14969TIP3   OH266397   1.799   1.757   4.076  0.5346 -0.5767 -0.1557
14969TIP3    H166398   1.844   1.752   4.161 -0.4214  1.1519  0.4956
14969TIP3    H266399   1.838   1.686   4.025  2.3783 -0.5701  1.1278
14970TIP3   OH266400   2.303   4.282  14.995 -0.0366 -0.0590  1.3702
14970TIP3    H166401   2.353   4.210  15.035  0.6906  0.8176  2.0643
14970TIP3    H266402   2.321   4.358  15.050 -0.9643  0.6270  0.7644
14971TIP3   OH266403   5.039   1.471  14.141  0.0992  0.1060 -0.5041
14971TIP3    H166404   5.057   1.390  14.188  0.0040  0.3791  0.0065
14971TIP3    H266405   4.949   1.462  14.110 -0.4249  0.6248  0.8173
14972TIP3   OH266406   5.971   4.402   2.039  0.3833 -0.0725  0.0834
14972TIP3    H166407   6.052   4.354   2.057  0.2595 -0.0212  0.8399
14972TIP3    H266408   5.923   4.346   1.977  0.1121 -1.0937  1.1626
14973TIP3   OH266409   4.433   5.758  13.284 -0.4560  0.5931 -0.2199
14973TIP3    H166410   4.460   5.712  13.364 -0.4222  0.8743 -0.0679
14973TIP3    H266411   4.338   5.746  13.280 -0.5590  1.2073  0.2638
14974TIP3   OH266412   5.630   6.620   6.092 -0.3367 -0.4973  0.6336
14974TIP3    H166413   5.640   6.715   6.101 -1.7435 -0.4201  1.8033
14974TIP3    H266414   5.592   6.608   6.005  4.3928 -0.4535 -1.7223
14975TIP3   OH266415   2.012   6.330   3.621  0.0293 -0.1102 -0.2606
14975TIP3    H166416   1.957   6.283   3.683 -0.1739 -0.9541 -1.0549
14975TIP3    H266417   2.023   6.270   3.547  2.3969 -0.1515  0.0423
14976TIP3   OH266418   4.918   5.860  11.866 -0.2364 -0.6148 -0.1484
14976TIP3    H166419   4.826   5.835  11.871 -0.2802 -0.7668 -1.4539
14976TIP3    H266420   4.933   5.881  11.774  0.9045 -0.0677  0.1394
14977TIP3   OH266421   4.582   1.154  14.582  0.2936  0.2216 -0.8462
14977TIP3    H166422   4.547   1.149  14.493 -1.9645  0.5932 -0.0489
14977TIP3    H266423   4.558   1.242  14.611  1.3592  0.2433  0.0046
14978TIP3   OH266424   5.059   5.070  11.926 -0.2456 -0.2861  0.9065
14978TIP3    H166425   5.105   5.135  11.873 -0.7486  1.0365  2.0218
14978TIP3    H266426   4.975   5.058  11.882  0.2772 -1.0256  0.0929
14979TIP3   OH266427   1.654   3.775  15.804 -0.1957  0.3984  0.2110
14979TIP3    H166428   1.572   3.818  15.829 -1.0334 -0.3310 -1.1337
14979TIP3    H266429   1.650   3.771  15.708  0.1053 -2.0984  0.2281
14980TIP3   OH266430   1.159   5.091  11.383 -1.0710 -0.4014  0.3162
14980TIP3    H166431   1.113   5.172  11.361  0.5731  0.2173 -0.9967
14980TIP3    H266432   1.141   5.032  11.309 -0.0298 -0.2582 -0.0633
14981TIP3   OH266433   0.210   6.693  11.334  0.0209 -0.0824  0.3475
14981TIP3    H166434   0.132   6.748  11.336 -0.2959 -0.5164  0.2011
14981TIP3    H266435   0.240   6.696  11.243  0.4208  0.4222  0.4952
14982TIP3   OH266436   5.698   5.093   1.758  0.0129 -0.1332  0.1060
14982TIP3    H166437   5.637   5.165   1.742 -2.4687 -1.8679  1.2347
14982TIP3    H266438   5.695   5.041   1.678  0.8529  0.3131 -0.2297
14983TIP3   OH266439   0.451   3.333   5.050 -0.6084  0.4749  1.0380
14983TIP3    H166440   0.528   3.366   5.095 -0.7421 -2.0771  3.3841
14983TIP3    H266441   0.476   3.245   5.021 -1.2152  1.2474 -2.3020
14984TIP3   OH266442   2.470   0.852  13.750 -0.6438  0.1532 -0.4595
14984TIP3    H166443   2.564   0.836  13.755 -0.3845  1.4675 -0.8996
14984TIP3    H266444   2.434   0.797  13.820  0.6487  1.0696  1.0091
14985TIP3   OH266445   4.408   5.461   3.154 -0.3597  0.3169 -0.3530
14985TIP3    H166446   4.432   5.440   3.244 -0.8241 -1.0843 -0.5434
14985TIP3    H266447   4.445   5.548   3.139  1.2120 -0.1589  0.6258
14986TIP3   OH266448   0.733   0.094   1.201  0.1387 -0.2061 -0.5915
14986TIP3    H166449   0.672   0.051   1.141 -0.6385  0.6011 -0.3991
14986TIP3    H266450   0.702   0.184   1.206  1.6864  0.3681 -0.9045
14987TIP3   OH266451   3.643   6.404   2.992 -0.5034 -0.1784  0.1659
14987TIP3    H166452   3.661   6.312   2.975  0.2070 -0.4489  2.1210
14987TIP3    H266453   3.729   6.444   3.004 -0.8631  0.2590  1.4755
14988TIP3   OH266454   6.807   3.339   5.636  0.3170 -0.1807 -0.4609
14988TIP3    H166455   6.795   3.434   5.644 -2.3120 -0.4449 -0.5682
14988TIP3    H266456   6.897   3.329   5.605  0.6722  2.2715 -0.3876
14989TIP3   OH266457   0.220   6.340   5.701  0.1275  0.7315 -0.1196
14989TIP3    H166458   0.212   6.389   5.783  0.3190  1.5643 -0.5819
14989TIP3    H266459   0.299   6.288   5.712 -1.0626 -0.9374  1.1015
14990TIP3   OH266460   6.015   0.446  10.840 -0.1374 -0.2593 -0.2620
14990TIP3    H166461   6.076   0.429  10.768  0.7884 -2.0686  0.8764
14990TIP3    H266462   6.031   0.537  10.863  1.7454 -0.5128 -0.3845
14991TIP3   OH266463   3.817   0.458   3.578 -0.4338  0.4821 -0.8015
14991TIP3    H166464   3.869   0.386   3.542 -1.4531 -1.4707  1.3788
14991TIP3    H266465   3.732   0.450   3.535 -0.0520  1.5075 -1.8042
14992TIP3   OH266466   4.267   2.951   0.698  0.4615  0.1248 -0.2188
14992TIP3    H166467   4.256   3.034   0.652 -1.0486 -0.3000 -0.6947
14992TIP3    H266468   4.234   2.968   0.787 -1.5932 -0.3935 -0.8281
14993TIP3   OH266469   3.838   3.656  11.416 -0.0655  0.6279 -0.1213
14993TIP3    H166470   3.743   3.646  11.421  0.0696 -0.2717  3.6815
14993TIP3    H266471   3.873   3.570  11.438  1.7421  0.7670 -2.0640
14994TIP3   OH266472   1.304   1.856   5.594 -0.1959  0.1243 -0.1328
14994TIP3    H166473   1.320   1.931   5.652  1.3029 -1.1019  1.1229
14994TIP3    H266474   1.391   1.827   5.568 -0.7811 -0.8635 -1.0490
14995TIP3   OH266475   2.873   6.180  12.992  0.0413  0.1890  0.1338
14995TIP3    H166476   2.957   6.219  12.969  0.5588 -0.1318  1.3978
14995TIP3    H266477   2.826   6.174  12.909  1.5736 -0.3819 -0.7438
14996TIP3   OH266478   4.201   6.785  16.984 -0.3142 -0.3985  0.6696
14996TIP3    H166479   4.249   6.824  16.912  1.1074 -1.0562  1.2037
14996TIP3    H266480   4.175   6.859  17.039 -0.2878  0.0073  0.1426
14997TIP3   OH266481   5.856   4.314  16.665  0.4016  0.2536  0.4709
14997TIP3    H166482   5.852   4.324  16.570 -1.2199  1.2679  0.6104
14997TIP3    H266483   5.946   4.336  16.688  0.3681  1.7598 -0.6649
14998TIP3   OH266484   6.126   3.896   1.540 -0.1295 -0.3845  0.4917
14998TIP3    H166485   6.107   3.925   1.629 -1.7679  1.5010 -0.3964
14998TIP3    H266486   6.070   3.818   1.528 -0.3559 -0.2916  0.9146
14999TIP3   OH266487   1.399   3.352  10.530  0.2078  0.1151 -0.3288
14999TIP3    H166488   1.419   3.305  10.449  0.2770  1.9480 -1.4542
14999TIP3    H266489   1.303   3.359  10.531  0.1124 -1.1008  0.4953
15000TIP3   OH266490   6.002   5.029   4.410 -0.4898  0.7011  0.3150
15000TIP3    H166491   6.082   4.984   4.383  0.1767  2.1830 -0.3073
15000TIP3    H266492   5.954   5.044   4.328 -0.7667  1.0025  0.5318
15001TIP3   OH266493   0.555   4.778   0.302 -0.6268 -0.4116  0.0085
15001TIP3    H166494   0.619   4.711   0.275 -1.3891 -0.6088 -1.3576
15001TIP3    H266495   0.485   4.728   0.343  0.1848 -0.1704  1.8020
15002TIP3   OH266496   5.176   3.870  15.235  0.3044 -0.3212 -0.1859
15002TIP3    H166497   5.164   3.870  15.330 -0.1353  0.8586 -0.2214
15002TIP3    H266498   5.115   3.803  15.204 -1.6411  1.1891  0.1769
15003TIP3   OH266499   6.226   0.540   3.240 -0.7629  0.7183 -0.1141
15003TIP3    H166500   6.285   0.501   3.176  1.1474  1.6538  1.0067
15003TIP3    H266501   6.139   0.506   3.216  0.4548 -2.4298 -0.5294
15004TIP3   OH266502   6.166   5.077   4.953  0.7682 -0.1475  0.2105
15004TIP3    H166503   6.097   5.118   5.005 -0.2460 -2.1804  0.5798
15004TIP3    H266504   6.214   5.150   4.915 -1.4989  1.3686  0.0514
15005TIP3   OH266505   5.367   6.153   0.294  0.3606 -0.0785 -0.1232
15005TIP3    H166506   5.358   6.080   0.233  2.0356  0.1716 -0.7271
15005TIP3    H266507   5.377   6.112   0.380 -1.1083 -0.4619 -0.1148
15006TIP3   OH266508   2.251   0.299   3.361 -0.0563  0.6063  0.5939
15006TIP3    H166509   2.296   0.380   3.385 -0.4652  1.5465 -1.5836
15006TIP3    H266510   2.320   0.234   3.353  0.6287  1.4213 -0.2836
15007TIP3   OH266511   0.202   4.865   0.052 -0.6397 -0.8667  0.8739
15007TIP3    H166512   0.136   4.905   0.109 -2.8037 -0.0683 -1.9770
15007TIP3    H266513   0.275   4.927   0.051 -2.4368  1.3566 -0.6142
15008TIP3   OH266514   6.794   6.266   2.966 -0.3969 -0.7943 -0.5942
15008TIP3    H166515   6.855   6.295   3.034  0.0939 -2.3907 -0.3201
15008TIP3    H266516   6.841   6.280   2.884 -0.3336 -0.4421 -0.5008
15009TIP3   OH266517   4.985   3.770   5.898 -0.1703  0.1530 -0.1417
15009TIP3    H166518   5.042   3.841   5.929  0.6409  0.0583 -1.3320
15009TIP3    H266519   5.025   3.690   5.932 -1.4377  0.2489  1.7368
15010TIP3   OH266520   2.572   3.250   2.314 -0.4309  0.2057 -0.6865
15010TIP3    H166521   2.518   3.309   2.367 -2.0306 -1.6771 -0.0838
15010TIP3    H266522   2.513   3.221   2.244 -0.1178 -1.5567 -0.2759
15011TIP3   OH266523   4.633   4.420  13.753 -0.0410 -0.4309  0.4133
15011TIP3    H166524   4.572   4.346  13.749  0.0101 -0.4401 -0.3917
15011TIP3    H266525   4.709   4.391  13.703 -0.4403  0.5389 -0.8026
15012TIP3   OH266526   3.134   6.184   1.234  0.0255  0.1461  0.5404
15012TIP3    H166527   3.058   6.232   1.268  0.7068  0.7732  1.1935
15012TIP3    H266528   3.192   6.251   1.199 -0.0100 -0.3864 -0.5832
15013TIP3   OH266529   0.560   4.730  13.029  0.5642 -0.1604  0.1379
15013TIP3    H166530   0.639   4.746  13.081  1.0980  1.3136 -1.0633
15013TIP3    H266531   0.594   4.702  12.943 -0.2322 -0.1789 -0.1780
15014TIP3   OH266532   3.371   5.317   0.296 -0.2400 -0.2887  0.3376
15014TIP3    H166533   3.409   5.245   0.246  0.5938 -1.3995  2.4258
15014TIP3    H266534   3.378   5.288   0.387 -1.1907  1.8512  1.1451
15015TIP3   OH266535   5.876   2.707  14.757  0.2189 -0.2166  0.5948
15015TIP3    H166536   5.816   2.747  14.694  1.3527 -0.1282 -0.4515
15015TIP3    H266537   5.872   2.765  14.833  0.7602  1.1175 -0.3608
15016TIP3   OH266538   6.119   0.504   1.896 -0.2517 -0.2856 -0.1602
15016TIP3    H166539   6.212   0.525   1.897 -0.7752  2.3062 -0.4763
15016TIP3    H266540   6.089   0.518   1.986 -0.3305 -1.2203 -0.0327
15017TIP3   OH266541   4.281   4.183   1.565 -0.4758  0.0405  0.1570
15017TIP3    H166542   4.210   4.182   1.629  0.7451 -0.3387  1.5664
15017TIP3    H266543   4.237   4.180   1.481 -2.1286 -0.7222  0.9913
15018TIP3   OH266544   2.256   3.000  15.115 -0.0142 -0.3769  0.6375
15018TIP3    H166545   2.323   2.968  15.176  0.2801  1.2140  1.1909
15018TIP3    H266546   2.286   2.969  15.029  0.7003 -0.8392  1.0380
15019TIP3   OH266547   1.601   6.691  15.732 -0.0365  0.2800  0.6452
15019TIP3    H166548   1.551   6.718  15.809  0.7042 -0.5595  1.4465
15019TIP3    H266549   1.566   6.745  15.660 -1.3248  0.4645  1.3829
15020TIP3   OH266550   5.246   2.698   1.920 -0.3769 -0.4676 -0.5169
15020TIP3    H166551   5.204   2.638   1.858 -0.0405 -2.2195  0.8693
15020TIP3    H266552   5.204   2.679   2.004  0.7593  0.2315  0.2367
15021TIP3   OH266553   6.709   0.669   0.445  1.2008  0.5075  0.0998
15021TIP3    H166554   6.654   0.606   0.397  0.9063  0.9722 -0.1730
15021TIP3    H266555   6.793   0.624   0.454  1.0330  0.1203 -0.2027
15022TIP3   OH266556   0.442   4.743  11.335  0.4894  0.8070 -0.2902
15022TIP3    H166557   0.451   4.833  11.368 -0.6056  1.0656 -0.6643
15022TIP3    H266558   0.384   4.700  11.398 -0.0283  0.7358 -0.8160
15023TIP3   OH266559   0.448   1.905  15.769 -0.3438 -0.3905  0.0007
15023TIP3    H166560   0.397   1.890  15.849  1.5853 -0.5680  1.2654
15023TIP3    H266561   0.447   1.999  15.756  0.0242 -0.2818  0.7312
15024TIP3   OH266562   0.815   3.236   6.051 -0.7386  0.0393  0.4016
15024TIP3    H166563   0.770   3.297   6.109 -0.5204  0.6755 -0.0869
15024TIP3    H266564   0.763   3.235   5.971  0.3932  1.2398 -0.3974
15025TIP3   OH266565   1.405   4.826   0.812 -0.6061 -0.5042 -0.3660
15025TIP3    H166566   1.455   4.832   0.730  0.0482  0.8689  0.0860
15025TIP3    H266567   1.385   4.917   0.834 -1.8531 -0.9285  0.3679
15026TIP3   OH266568   4.221   3.666  13.422  0.4856 -1.0922 -0.3342
15026TIP3    H166569   4.220   3.660  13.517 -0.1024  2.6657  0.0706
15026TIP3    H266570   4.304   3.708  13.402 -0.8659  1.4967 -1.0058
15027TIP3   OH266571   6.671   3.057  11.127  0.0727 -0.4114 -0.5548
15027TIP3    H166572   6.763   3.064  11.151  0.1013 -0.1703 -0.7312
15027TIP3    H266573   6.656   2.963  11.117 -0.1693 -0.5946  1.2835
15028TIP3   OH266574   5.857   4.516   2.571  0.2813 -0.5879 -0.2184
15028TIP3    H166575   5.878   4.515   2.665  0.7917 -0.8388 -0.3318
15028TIP3    H266576   5.771   4.475   2.565 -0.8529  1.5488  0.3985
15029TIP3   OH266577   1.105   4.691  11.863  0.6160  0.4021  0.2413
15029TIP3    H166578   1.188   4.668  11.820  0.3314 -1.4829  0.6149
15029TIP3    H266579   1.040   4.687  11.793  0.1647 -2.5994  0.6885
15030TIP3   OH266580   2.929   1.261   0.828  0.1244  0.0242 -0.6492
15030TIP3    H166581   2.915   1.283   0.920  1.0197  1.3787 -0.7937
15030TIP3    H266582   3.021   1.285   0.812 -0.4153  1.1788 -2.2474
15031TIP3   OH266583   5.905   6.364   0.114 -0.0760  0.6526 -0.0661
15031TIP3    H166584   5.909   6.419   0.191 -0.9025  0.5721  0.0463
15031TIP3    H266585   5.989   6.318   0.112 -0.2596  0.2531  1.0817
15032TIP3   OH266586   6.595   4.455   3.372 -0.1897  0.4125 -0.6188
15032TIP3    H166587   6.547   4.374   3.359  0.0897  0.3640 -1.3791
15032TIP3    H266588   6.684   4.436   3.340 -0.2880  1.1963 -1.3908
15033TIP3   OH266589   3.018   5.842  13.005 -0.1203  0.4036  0.0927
15033TIP3    H166590   2.970   5.806  12.930 -0.8130  0.1137  0.6685
15033TIP3    H266591   3.078   5.772  13.030  0.3872  0.6437 -0.4215
15034TIP3   OH266592   0.203   1.827  16.751  0.3841 -0.1575 -0.5143
15034TIP3    H166593   0.197   1.781  16.667 -0.8210 -1.4370  0.2215
15034TIP3    H266594   0.225   1.759  16.814  2.0268  0.9147  0.1334
15035TIP3   OH266595   0.814   3.894   4.629  0.2200  0.8601 -0.3480
15035TIP3    H166596   0.852   3.928   4.710 -0.3592  1.7770 -0.4422
15035TIP3    H266597   0.724   3.928   4.628  0.0363  0.3832 -1.0905
15036TIP3   OH266598   4.258   5.167  15.547 -0.8030 -0.2963  0.9736
15036TIP3    H166599   4.182   5.110  15.538  0.1381 -1.6000  0.9136
15036TIP3    H266600   4.273   5.202  15.459 -0.5031 -1.1749  0.6584
15037TIP3   OH266601   1.894   5.071  16.592  0.0664 -0.6030  0.1529
15037TIP3    H166602   1.931   5.020  16.519 -2.7312 -1.2771 -0.9162
15037TIP3    H266603   1.835   5.009  16.636  1.5645 -0.1723  3.0010
15038TIP3   OH266604   4.228   5.958  13.828  0.2470 -0.1162  0.0285
15038TIP3    H166605   4.295   5.985  13.766  1.1183 -0.5610  0.7500
15038TIP3    H266606   4.146   5.991  13.791  0.9744  1.3929 -0.3231
15039TIP3   OH266607   1.134   4.956   0.789  0.2271  0.2943  0.1723
15039TIP3    H166608   1.066   4.997   0.843 -1.1619 -0.4366 -0.9645
15039TIP3    H266609   1.157   5.022   0.725 -0.7324 -0.0453 -0.5513
15040TIP3   OH266610   2.164   3.676   1.191  0.1698 -0.7200  0.0364
15040TIP3    H166611   2.189   3.746   1.252  0.9076 -1.7340  0.9353
15040TIP3    H266612   2.069   3.683   1.185  0.0876 -0.5117  1.2113
15041TIP3   OH266613   0.792   4.048   4.873 -0.4879 -0.2935 -0.8802
15041TIP3    H166614   0.721   4.050   4.936 -1.7048 -2.2876 -2.0623
15041TIP3    H266615   0.870   4.027   4.925 -0.8866  1.0712  0.3165
15042TIP3   OH266616   1.822   1.212  15.981 -0.1545 -0.0645  0.0454
15042TIP3    H166617   1.874   1.142  16.021 -0.9803  0.0671  1.4182
15042TIP3    H266618   1.834   1.287  16.040 -0.3566  0.5568 -0.6804
15043TIP3   OH266619   4.219   3.722  11.360 -0.1427 -0.5228  0.4726
15043TIP3    H166620   4.243   3.809  11.327 -4.7863  0.2578 -1.5393
15043TIP3    H266621   4.212   3.734  11.455  0.9661  0.7525  0.4281
15044TIP3   OH266622   3.404   4.896  14.244 -0.5288  0.3804 -0.1673
15044TIP3    H166623   3.405   4.990  14.230 -1.8768  0.4840  0.2234
15044TIP3    H266624   3.456   4.882  14.323 -1.1845  0.9359  0.3782
15045TIP3   OH266625   3.470   5.160   2.912 -0.6380  0.1715  0.1470
15045TIP3    H166626   3.436   5.139   2.999  0.8195 -1.6978  0.3168
15045TIP3    H266627   3.429   5.095   2.855 -0.9629  0.8866 -0.4403
15046TIP3   OH266628   4.515   3.274  13.202 -0.4461 -0.0968  0.0902
15046TIP3    H166629   4.534   3.218  13.127  0.7269  0.8391 -0.3330
15046TIP3    H266630   4.534   3.363  13.171 -1.3821  0.4527  1.0358
15047TIP3   OH266631   1.001   5.688  12.246 -0.1810  0.1417  0.5100
15047TIP3    H166632   1.048   5.668  12.327 -0.5164  0.3530  0.7646
15047TIP3    H266633   0.993   5.604  12.201 -0.1278 -0.0041  0.7710
15048TIP3   OH266634   0.774   1.796   1.169 -0.1271  0.6932  0.4802
15048TIP3    H166635   0.747   1.762   1.254 -0.9855  0.1428 -0.0019
15048TIP3    H266636   0.731   1.740   1.105  0.5147  1.0899 -0.3275
15049TIP3   OH266637   5.596   0.382   1.382 -0.2385 -0.0600 -0.2769
15049TIP3    H166638   5.564   0.451   1.324  0.9752 -0.3983 -1.3991
15049TIP3    H266639   5.549   0.396   1.464 -0.9672  1.2976 -0.8909
15050TIP3   OH266640   4.390   6.158  16.922  0.1780  0.4245  0.3075
15050TIP3    H166641   4.353   6.239  16.955 -0.8375  0.1085 -0.0269
15050TIP3    H266642   4.352   6.089  16.977  1.0441  0.1670  0.6017
15051TIP3   OH266643   3.577   2.286   2.180 -0.2810  0.6797  0.3943
15051TIP3    H166644   3.628   2.249   2.108 -0.8163  0.0274  0.3395
15051TIP3    H266645   3.559   2.212   2.237 -0.0234  1.1585  1.1122
15052TIP3   OH266646   2.317   3.252   3.609 -0.2285 -0.8088  0.0536
15052TIP3    H166647   2.297   3.232   3.518  0.3447 -0.8521 -0.0682
15052TIP3    H266648   2.260   3.194   3.660 -0.2426 -1.0936 -0.2834
15053TIP3   OH266649   2.062   1.254   6.155  0.0570 -0.3690  0.4294
15053TIP3    H166650   2.155   1.275   6.147 -0.1272  0.9165  1.4245
15053TIP3    H266651   2.036   1.288   6.241 -1.5650  0.2551 -0.2592
15054TIP3   OH266652   1.207   0.175   4.454  0.0933  0.3033  0.4199
15054TIP3    H166653   1.229   0.157   4.362  0.3208 -2.0294  0.8553
15054TIP3    H266654   1.291   0.181   4.498 -0.0275  0.6982  0.5983
15055TIP3   OH266655   2.386   2.049   6.115 -0.3949  0.2395  0.2199
15055TIP3    H166656   2.423   1.976   6.164  1.8471  1.0104 -0.1761
15055TIP3    H266657   2.292   2.041   6.126 -0.1668 -2.1462  0.9571
15056TIP3   OH266658   4.724   0.776  14.890  0.3392 -0.3476 -0.4155
15056TIP3    H166659   4.697   0.843  14.827 -3.9845 -0.9251  0.4897
15056TIP3    H266660   4.673   0.698  14.865  0.6084 -1.4425  2.1101
15057TIP3   OH266661   0.683   3.833  13.032 -0.2457 -0.0384 -0.4624
15057TIP3    H166662   0.721   3.913  12.998 -0.3960 -0.0628 -0.6893
15057TIP3    H266663   0.652   3.856  13.120 -0.0096  0.0677 -0.4075
15058TIP3   OH266664   4.493   0.329   4.473  0.0363  0.0518 -0.9797
15058TIP3    H166665   4.450   0.409   4.442 -2.1716 -0.2697  1.0135
15058TIP3    H266666   4.471   0.325   4.566  0.5443 -2.6015 -0.9194
15059TIP3   OH266667   4.146   5.724   0.424 -0.0507  0.1910  0.1799
15059TIP3    H166668   4.078   5.679   0.474 -1.0979  0.6726 -0.7401
15059TIP3    H266669   4.225   5.673   0.439 -1.0345 -1.5595 -0.2723
15060TIP3   OH266670   2.339   5.242   0.407 -0.0207  0.3996 -0.2594
15060TIP3    H166671   2.306   5.157   0.379  0.8417  0.7125 -2.4901
15060TIP3    H266672   2.429   5.245   0.374 -0.0227  2.1247 -0.2082
15061TIP3   OH266673   0.715   5.656   5.030  0.1304  0.6830 -0.2893
15061TIP3    H166674   0.647   5.626   4.970 -0.5202  1.7460 -0.1177
15061TIP3    H266675   0.786   5.593   5.019 -0.3551  0.3021 -1.4511
15062TIP3   OH266676   4.821   0.849  17.085  0.2603  0.2249 -0.3115
15062TIP3    H166677   4.754   0.797  17.042 -0.5741  0.2405  0.9155
15062TIP3    H266678   4.777   0.931  17.109  1.3058  1.1482 -1.4027
15063TIP3   OH266679   0.283   4.046   6.492 -0.2047 -0.0445 -0.0330
15063TIP3    H166680   0.217   4.097   6.447 -0.7330  0.3821  1.1867
15063TIP3    H266681   0.267   3.956   6.465 -1.2672  0.0631  0.2172
15064TIP3   OH266682   2.605   4.477   2.617 -0.1666  0.5671  0.9562
15064TIP3    H166683   2.610   4.462   2.523  0.2189  0.0470  1.0477
15064TIP3    H266684   2.572   4.394   2.653 -3.0302  1.6388  1.0559
15065TIP3   OH266685   5.864   1.075  13.457 -0.2357  0.5170 -0.2088
15065TIP3    H166686   5.947   1.031  13.475  0.0482  0.7088 -1.0012
15065TIP3    H266687   5.858   1.143  13.523 -0.0072  0.1804  0.1653
15066TIP3   OH266688   1.537   5.947   5.239 -0.1380 -0.0042 -0.8142
15066TIP3    H166689   1.451   5.906   5.225 -0.0238 -1.0288  1.0903
15066TIP3    H266690   1.519   6.021   5.297  0.2019  0.0364 -0.7581
15067TIP3   OH266691   3.230   1.859  13.543  0.2844  0.6907 -0.1492
15067TIP3    H166692   3.136   1.858  13.559  0.4685  3.1598  1.7834
15067TIP3    H266693   3.239   1.895  13.455 -0.5508 -0.6339 -0.8085
15068TIP3   OH266694   1.275   3.488  15.364  0.3623  0.0525  0.5520
15068TIP3    H166695   1.198   3.480  15.308  0.2289 -0.2824  0.7840
15068TIP3    H266696   1.345   3.514  15.304  0.4242 -1.1682  0.0693
15069TIP3   OH266697   6.794   3.716   1.063 -0.0870 -0.3032 -0.7755
15069TIP3    H166698   6.760   3.636   1.102 -1.5537  1.0345  0.8160
15069TIP3    H266699   6.719   3.757   1.020  0.8784 -0.2847 -2.5470
15070TIP3   OH266700   0.335   1.339   4.368  0.3574  0.0281  0.0257
15070TIP3    H166701   0.365   1.377   4.451  1.4255  1.9558 -1.1544
15070TIP3    H266702   0.241   1.358   4.366  0.2236 -0.4831  0.9970
15071TIP3   OH266703   2.884   5.164   3.350 -0.0848 -0.6640  0.7447
15071TIP3    H166704   2.829   5.236   3.382  2.0632  0.9816  0.9567
15071TIP3    H266705   2.897   5.183   3.258  1.4848 -0.0576  1.0682
15072TIP3   OH266706   2.228   5.958  15.771 -0.5117  0.4013 -0.7237
15072TIP3    H166707   2.179   5.886  15.811 -0.6764  0.8993 -0.0055
15072TIP3    H266708   2.162   6.007  15.723 -1.1343  2.0427  1.6019
15073TIP3   OH266709   3.443   4.040  13.080  0.0154  0.6369  0.3640
15073TIP3    H166710   3.404   4.108  13.026 -0.4956 -0.0857 -0.1929
15073TIP3    H266711   3.417   4.062  13.170 -0.9068  0.6747  0.0942
15074TIP3   OH266712   4.157   0.851   3.399  0.0194 -0.4698  0.1610
15074TIP3    H166713   4.227   0.787   3.387  1.4615  1.1867 -0.7525
15074TIP3    H266714   4.077   0.798   3.405  0.5243 -2.2914 -4.7799
15075TIP3   OH266715   2.943   5.105   2.824  0.3307 -0.2529  0.1002
15075TIP3    H166716   3.016   5.154   2.787  1.6813  0.2459  3.0928
15075TIP3    H266717   2.954   5.016   2.793  0.1589  0.4760 -2.2203
15076TIP3   OH266718   4.099   3.179  13.012 -0.3221  0.6958  0.1866
15076TIP3    H166719   4.181   3.136  12.987 -0.5491 -0.1229  0.8163
15076TIP3    H266720   4.032   3.114  12.991 -0.7773  1.1960  0.0842
15077TIP3   OH266721   5.026   0.021   3.119  0.2903  0.3030  0.1400
15077TIP3    H166722   5.117   0.026   3.149  0.0713 -0.8377  1.0494
15077TIP3    H266723   5.002   0.113   3.105  1.2051  0.7195  1.0705
15078TIP3   OH266724   5.886   6.710   3.700 -0.5674 -0.5236  0.2004
15078TIP3    H166725   5.858   6.620   3.684 -1.7727 -0.3002  0.9684
15078TIP3    H266726   5.872   6.754   3.616 -0.6937 -0.8710  0.0364
15079TIP3   OH266727   3.606   5.775  15.456  0.8651  0.0305  1.0587
15079TIP3    H166728   3.619   5.863  15.420  1.0116 -0.2895  0.3185
15079TIP3    H266729   3.629   5.784  15.548  0.8890  0.7677  0.9933
15080TIP3   OH266730   0.927   1.593  14.842 -0.2440  0.3467  0.1185
15080TIP3    H166731   0.973   1.672  14.871 -0.3717  0.3705  0.2581
15080TIP3    H266732   0.855   1.626  14.787  0.6330  0.2518 -1.1124
15081TIP3   OH266733   4.367   4.584  13.926  0.1651 -0.3404 -0.4409
15081TIP3    H166734   4.326   4.559  13.844 -1.1361 -0.4872  0.2398
15081TIP3    H266735   4.398   4.502  13.964  2.3834 -0.1205 -1.5642
15082TIP3   OH266736   2.432   5.511   4.564  0.3912 -0.3636  0.4077
15082TIP3    H166737   2.349   5.510   4.611 -0.0664 -1.4133 -0.3760
15082TIP3    H266738   2.430   5.432   4.510  1.8425 -0.3302  0.2667
15083TIP3   OH266739   4.817   2.148   0.138 -0.3272  0.0369 -0.3856
15083TIP3    H166740   4.739   2.166   0.192 -1.6285  0.9899 -2.4748
15083TIP3    H266741   4.782   2.125   0.052  1.7114 -0.6068 -1.0898
15084TIP3   OH266742   5.003   3.690  11.992 -0.1178  0.0393  0.4775
15084TIP3    H166743   5.096   3.681  12.010 -0.1588 -1.5232  0.0417
15084TIP3    H266744   4.982   3.617  11.934 -2.0208 -0.8493  2.1730
15085TIP3   OH266745   5.813   6.677  14.575  0.0313  0.0936 -0.2052
15085TIP3    H166746   5.868   6.629  14.514  0.1100  0.4271 -0.3973
15085TIP3    H266747   5.874   6.723  14.632  0.0021 -1.6260  1.2865
15086TIP3   OH266748   2.413   1.523  10.596 -0.2509  0.2676  0.2841
15086TIP3    H166749   2.387   1.431  10.587 -1.9853  0.5656  1.5253
15086TIP3    H266750   2.476   1.538  10.526  1.5116 -2.3464  1.1736
15087TIP3   OH266751   0.909   1.109  13.748 -0.3585  0.0712  0.2832
15087TIP3    H166752   0.919   1.200  13.776  1.1386  0.2982 -0.8646
15087TIP3    H266753   0.998   1.079  13.730 -0.8526 -1.5493  0.4081
15088TIP3   OH266754   4.078   3.251   0.921  0.7592 -0.3523  0.3491
15088TIP3    H166755   4.119   3.167   0.939  0.1019 -0.4193  1.6687
15088TIP3    H266756   4.005   3.230   0.863  1.8482 -0.3853 -1.0485
15089TIP3   OH266757   1.397   5.239   5.147  0.1407  0.2975 -0.2297
15089TIP3    H166758   1.307   5.216   5.125  0.0375  1.5104 -1.1533
15089TIP3    H266759   1.450   5.170   5.105 -0.3334 -0.4324  0.3391
15090TIP3   OH266760   1.155   2.873  12.466 -0.3858  0.2444  0.0545
15090TIP3    H166761   1.133   2.824  12.545  0.9697  2.1540  1.7048
15090TIP3    H266762   1.229   2.825  12.428 -1.5432 -1.1261 -0.5696
15091TIP3   OH266763   1.331   4.643  15.190  0.1975  0.0296  0.0888
15091TIP3    H166764   1.377   4.565  15.160  0.1333 -0.3869  1.0431
15091TIP3    H266765   1.239   4.620  15.185  0.2019 -0.2522  1.1284
15092TIP3   OH266766   5.174   1.162  15.778  0.0722 -0.0776 -0.1954
15092TIP3    H166767   5.142   1.093  15.720  1.4831 -0.8233 -0.1316
15092TIP3    H266768   5.110   1.164  15.850 -0.6846 -0.4105 -0.8410
15093TIP3   OH266769   0.049   2.014   3.572 -0.0455  0.9190  0.1747
15093TIP3    H166770  -0.027   1.966   3.606  1.4237 -1.1537  0.6614
15093TIP3    H266771   0.058   1.984   3.481 -0.2892  1.8300 -0.1688
15094TIP3   OH266772   4.537   6.547  16.629  0.0841  0.3772  0.1051
15094TIP3    H166773   4.527   6.490  16.705  0.0154  1.8686  1.2570
15094TIP3    H266774   4.540   6.636  16.665 -1.3662  1.2519 -1.7186
15095TIP3   OH266775   3.342   1.006   5.582 -0.2911 -0.6349  0.4648
15095TIP3    H166776   3.307   1.008   5.671 -0.9740 -0.0837  0.1965
15095TIP3    H266777   3.272   1.042   5.528  0.9198  1.1370 -0.0093
15096TIP3   OH266778   4.242   1.397   5.397 -0.1324  0.2631  0.1300
15096TIP3    H166779   4.185   1.333   5.355  2.3855 -0.9739 -1.6450
15096TIP3    H266780   4.254   1.466   5.331  0.3994  0.5190  0.4838
15097TIP3   OH266781   3.350   4.875   1.202 -0.0782  0.2112  0.1390
15097TIP3    H166782   3.271   4.849   1.250 -0.7173  0.6437 -0.6629
15097TIP3    H266783   3.358   4.969   1.218  0.4959  0.1009  0.5281
15098TIP3   OH266784   0.385   3.321  11.399  0.1503  0.8046  0.4887
15098TIP3    H166785   0.422   3.365  11.475 -1.6197  0.8657  1.3727
15098TIP3    H266786   0.420   3.369  11.324  0.7434  1.7100  1.3195
15099TIP3   OH266787   6.806   6.725   5.041 -0.1149 -0.3414 -0.1726
15099TIP3    H166788   6.864   6.729   4.965 -0.9958 -0.9245 -0.8943
15099TIP3    H266789   6.836   6.650   5.091  0.8390  0.3876  0.3921
15100TIP3   OH266790   0.078   3.096   3.178 -0.0384 -0.1608  0.4579
15100TIP3    H166791   0.128   3.054   3.248  0.3695  0.2760  0.4351
15100TIP3    H266792  -0.013   3.089   3.205  0.1026 -0.1931  0.9236
15101TIP3   OH266793   0.070   5.325   4.171  0.1137  0.1505 -0.1579
15101TIP3    H166794  -0.025   5.338   4.174  0.2768  1.3326  0.2827
15101TIP3    H266795   0.106   5.390   4.231  1.1141 -1.4439  1.0614
15102TIP3   OH266796   5.086   4.516   3.412  0.1775  0.6839 -0.3083
15102TIP3    H166797   5.135   4.596   3.395 -0.8527  1.7538  1.4839
15102TIP3    H266798   5.126   4.479   3.491 -1.7484  1.5432  1.1535
15103TIP3   OH266799   1.057   3.939  12.724 -0.1708  0.0322 -0.1706
15103TIP3    H166800   0.997   3.866  12.735 -0.8976  0.6227 -0.1694
15103TIP3    H266801   1.036   3.999  12.795 -1.5209  1.5484 -1.7584
15104TIP3   OH266802   2.023   5.054  12.324  0.5916  0.0849 -0.0697
15104TIP3    H166803   2.116   5.049  12.302  0.1466 -1.3586 -1.8944
15104TIP3    H266804   2.013   4.996  12.399  0.8438 -1.6003 -1.2783
15105TIP3   OH266805   2.671   0.821  12.753 -0.0391  0.0096  0.2176
15105TIP3    H166806   2.694   0.861  12.669  0.7845 -1.3878 -0.2502
15105TIP3    H266807   2.755   0.807  12.796 -0.3668 -0.5615  0.6727
15106TIP3   OH266808   4.633   6.115   5.879 -0.4513  0.2068  0.2280
15106TIP3    H166809   4.580   6.069   5.814  0.2978 -1.7820  0.9489
15106TIP3    H266810   4.685   6.177   5.827 -2.4983  1.3357 -0.6142
15107TIP3   OH266811   4.201   0.638  11.791  0.0950  0.1704 -0.0618
15107TIP3    H166812   4.266   0.570  11.803  2.3594  2.2206  0.0981
15107TIP3    H266813   4.170   0.658  11.880 -0.5173 -0.5549 -0.1031
15108TIP3   OH266814   1.497   6.539   2.631 -0.4503 -0.2386  0.7088
15108TIP3    H166815   1.410   6.509   2.656  0.0072  0.2563  3.1321
15108TIP3    H266816   1.553   6.463   2.644 -0.2048  0.0218  1.1872
15109TIP3   OH266817   0.775   1.120  12.604 -0.2987  0.5802  0.3614
15109TIP3    H166818   0.685   1.119  12.571  0.6229  1.3092 -2.4155
15109TIP3    H266819   0.801   1.212  12.600  0.8005  0.2867  0.4694
15110TIP3   OH266820   2.388   6.380   5.667  0.4059 -0.0986 -0.3702
15110TIP3    H166821   2.300   6.342   5.673 -0.0732  1.0696  0.2661
15110TIP3    H266822   2.418   6.386   5.757  0.1218  1.7981 -0.3731
15111TIP3   OH266823   1.762   6.415   3.749  0.4972  1.3615 -0.7022
15111TIP3    H166824   1.749   6.327   3.785 -0.8434  2.3909  1.4878
15111TIP3    H266825   1.702   6.419   3.674 -0.1815  0.7368 -0.2086
15112TIP3   OH266826   5.935   1.944  13.678  0.4174  0.5859 -0.4600
15112TIP3    H166827   5.847   1.979  13.692 -0.0054 -0.2864 -0.8448
15112TIP3    H266828   5.993   2.009  13.718 -0.2732  2.0327 -1.7225
15113TIP3   OH266829   6.655   2.057   0.672 -0.0529  0.0262 -0.2538
15113TIP3    H166830   6.568   2.077   0.636 -0.1291  0.7817  0.3341
15113TIP3    H266831   6.704   2.139   0.662  0.9334 -0.6805 -1.5249
15114TIP3   OH266832   1.473   1.121  15.663  0.3959  0.0630 -0.2562
15114TIP3    H166833   1.491   1.037  15.706  1.5614  0.4150 -0.0122
15114TIP3    H266834   1.515   1.186  15.720 -1.4818  0.9545  0.1975
15115TIP3   OH266835   1.115   4.602   1.608  0.2236 -0.3873 -0.0719
15115TIP3    H166836   1.170   4.625   1.683  0.6961  0.0784 -0.5537
15115TIP3    H266837   1.176   4.563   1.545  0.1164  0.6019 -0.8186
15116TIP3   OH266838   5.201   1.679   1.922 -0.3006  0.1819  0.3736
15116TIP3    H166839   5.146   1.619   1.872 -0.6947 -0.3189  1.3820
15116TIP3    H266840   5.165   1.676   2.011  0.2280  1.2386  0.6370
15117TIP3   OH266841   1.702   0.906   4.684 -0.3666 -0.4063 -0.0701
15117TIP3    H166842   1.758   0.973   4.644 -0.9148  0.3560  0.4134
15117TIP3    H266843   1.751   0.824   4.672 -0.0974 -0.0719 -1.4756
15118TIP3   OH266844   5.211   0.679  11.641  0.5121  0.4535 -0.1740
15118TIP3    H166845   5.177   0.598  11.679 -1.3055  1.9369  1.5293
15118TIP3    H266846   5.291   0.652  11.595 -0.7803 -2.5239 -0.9108
15119TIP3   OH266847   0.886   0.231  12.130 -0.0667  0.3636  0.2102
15119TIP3    H166848   0.936   0.305  12.093  1.6958  0.4265  2.4738
15119TIP3    H266849   0.797   0.265  12.141  1.1611  3.1892  3.3999
15120TIP3   OH266850   0.937   6.785   5.316  0.1109  0.7281  0.4356
15120TIP3    H166851   0.848   6.817   5.303 -0.0859  0.5992  1.3998
15120TIP3    H266852   0.984   6.861   5.350  0.6488  1.0967 -1.0429
15121TIP3   OH266853   1.313   1.272   0.148  0.5169  0.4074  0.5351
15121TIP3    H166854   1.227   1.300   0.118 -0.7887 -1.0482  2.5994
15121TIP3    H266855   1.347   1.348   0.196  0.1253  0.8078  0.1867
15122TIP3   OH266856   1.694   4.978  10.994  0.4344 -0.2302 -0.0536
15122TIP3    H166857   1.789   4.987  10.985  0.2062  1.2061 -1.5822
15122TIP3    H266858   1.658   5.038  10.928 -1.5367 -2.3088 -1.0117
15123TIP3   OH266859   2.899   2.351  11.303  0.4113 -0.0727  0.6286
15123TIP3    H166860   2.991   2.372  11.315  0.8989 -1.9437  0.4064
15123TIP3    H266861   2.887   2.342  11.209 -0.0612  0.3573  0.6386
15124TIP3   OH266862   1.977   4.248  14.087 -0.5194 -0.0438  0.0040
15124TIP3    H166863   2.010   4.324  14.039  1.4274  0.0078  1.3104
15124TIP3    H266864   1.933   4.284  14.163  2.2458 -0.1299  1.7799
15125TIP3   OH266865   1.248   1.046  13.194  0.7430 -0.0355 -0.4518
15125TIP3    H166866   1.276   1.127  13.151 -1.6141  1.4011  0.4509
15125TIP3    H266867   1.220   1.075  13.281 -2.8578 -1.2282 -1.0366
15126TIP3   OH266868   0.058   0.307   0.337  0.4608 -0.3653  0.0284
15126TIP3    H166869   0.036   0.379   0.396 -0.5572 -1.0564  0.5219
15126TIP3    H266870   0.119   0.346   0.274  0.3150  0.7959  0.5665
15127TIP3   OH266871   2.519   3.734   3.194 -0.0659 -0.1555 -0.1482
15127TIP3    H166872   2.595   3.780   3.158 -0.2774 -0.1049 -0.5384
15127TIP3    H266873   2.443   3.782   3.159 -0.2749  0.0581  0.5810
15128TIP3   OH266874   3.985   5.141  11.542  0.8956  0.1396 -0.1875
15128TIP3    H166875   4.062   5.115  11.492  0.9825 -0.6091  0.3233
15128TIP3    H266876   3.920   5.165  11.475  1.8193  1.5827 -0.6078
15129TIP3   OH266877   0.896   1.966  14.215 -0.1686  0.0121  0.1696
15129TIP3    H166878   0.818   1.935  14.260 -0.6364  0.0555 -0.5911
15129TIP3    H266879   0.943   1.885  14.191  0.8651  0.0066  2.0249
15130TIP3   OH266880   1.768   1.486  14.531  0.1923 -0.1549 -0.2657
15130TIP3    H166881   1.789   1.516  14.442  1.0163  1.6463  0.4948
15130TIP3    H266882   1.756   1.566  14.581 -1.1418 -1.1407  1.0862
15131TIP3   OH266883   4.110   3.284   5.277 -0.1160  0.0093 -0.3291
15131TIP3    H166884   4.121   3.358   5.336 -3.8340 -0.0617  0.7178
15131TIP3    H266885   4.062   3.319   5.203 -1.8884 -1.2530  0.1499
15132TIP3   OH266886   6.581   4.941   5.976  0.3945  0.2162 -0.0022
15132TIP3    H166887   6.567   5.008   5.909 -1.7141 -1.4893 -1.3904
15132TIP3    H266888   6.511   4.878   5.962 -0.6707  0.1006  4.3138
15133TIP3   OH266889   2.869   5.734  12.241 -0.7420  0.2083  0.1231
15133TIP3    H166890   2.888   5.641  12.258 -0.5742  0.0736 -0.7376
15133TIP3    H266891   2.825   5.734  12.155  1.4805  1.1138 -1.1025
15134TIP3   OH266892   2.035   5.559  16.786  0.3677 -0.9255 -0.1859
15134TIP3    H166893   2.082   5.610  16.720  1.7165  2.4403  3.0404
15134TIP3    H266894   2.098   5.545  16.855 -1.2586 -3.4061  0.9368
15135TIP3   OH266895   5.497   6.556  16.508  0.6698  0.1411  0.0677
15135TIP3    H166896   5.427   6.612  16.474 -0.9286 -0.8878  1.4686
15135TIP3    H266897   5.525   6.598  16.589  0.0989 -0.5612  0.6502
15136TIP3   OH266898   5.674   0.188  15.230  0.2309 -0.2906 -0.0598
15136TIP3    H166899   5.691   0.175  15.323  1.6857  0.5464 -0.1770
15136TIP3    H266900   5.760   0.205  15.192  0.1336 -3.6499 -2.1123
15137TIP3   OH266901   5.922   0.045  13.173  0.1724 -0.6938 -0.1180
15137TIP3    H166902   5.925  -0.032  13.117 -2.6070 -0.5634 -0.6140
15137TIP3    H266903   5.843   0.033  13.226  1.5504  0.1938  2.3333
15138TIP3   OH266904   2.770   0.127   0.409 -0.0837  0.0197  0.0366
15138TIP3    H166905   2.753   0.218   0.432 -1.9851  0.4547 -2.7056
15138TIP3    H266906   2.840   0.131   0.344 -1.4539 -0.2244 -1.5215
15139TIP3   OH266907   2.238   4.048   4.585  0.1883 -0.0265  0.2018
15139TIP3    H166908   2.286   4.083   4.510  0.0290  0.8145  0.4804
15139TIP3    H266909   2.300   4.053   4.658  0.2041 -0.4577  0.2238
15140TIP3   OH266910   2.297   2.200   3.421  0.3874 -0.3800  0.1177
15140TIP3    H166911   2.379   2.217   3.469  0.1579 -1.8816  1.0959
15140TIP3    H266912   2.287   2.105   3.423 -0.2799 -0.4095 -1.8920
15141TIP3   OH266913   4.763   6.494   1.374  0.0286 -0.3527 -0.1402
15141TIP3    H166914   4.747   6.413   1.325  0.5475 -1.6368  1.6925
15141TIP3    H266915   4.707   6.486   1.451 -1.4891  2.0470 -0.8694
15142TIP3   OH266916   0.730   3.094  12.520 -0.1761 -0.0657  0.5813
15142TIP3    H166917   0.711   3.151  12.595  0.0274 -0.2160  0.7500
15142TIP3    H266918   0.647   3.048  12.504  0.0290 -0.7281  1.3265
15143TIP3   OH266919   5.950   3.127   0.765  0.0006 -0.2936 -0.5062
15143TIP3    H166920   5.900   3.085   0.695 -0.7136 -0.5023  0.1219
15143TIP3    H266921   6.042   3.114   0.739 -0.2064 -1.8305 -0.5746
15144TIP3   OH266922   5.379   4.459   4.636  0.3327  0.0252  0.0386
15144TIP3    H166923   5.406   4.368   4.630  0.2757 -0.0449  0.7652
15144TIP3    H266924   5.456   4.504   4.670  0.6014  0.3760 -0.9922
15145TIP3   OH266925   3.424   0.317  12.440  0.5689  0.0769 -0.5534
15145TIP3    H166926   3.399   0.273  12.522  0.6130  0.8773 -0.0991
15145TIP3    H266927   3.444   0.407  12.467  0.0214  0.5076 -1.5319
15146TIP3   OH266928   6.306   3.638  12.425  0.8045 -0.1468  0.1790
15146TIP3    H166929   6.353   3.635  12.342 -0.2262 -1.0020 -0.3880
15146TIP3    H266930   6.352   3.576  12.481 -0.0545 -1.5464 -0.6128
15147TIP3   OH266931   5.126   1.734  16.751  0.3237  0.5059 -0.0607
15147TIP3    H166932   5.054   1.678  16.778  1.6143 -0.5687  1.3790
15147TIP3    H266933   5.110   1.752  16.658 -2.0016  0.7128  0.3330
15148TIP3   OH266934   1.707   2.881  14.888  0.0762 -0.0759 -0.0006
15148TIP3    H166935   1.763   2.955  14.909  2.7143 -1.6949 -0.7775
15148TIP3    H266936   1.763   2.824  14.835 -2.2662 -1.9733 -0.5821
15149TIP3   OH266937   0.816   5.819  13.656 -0.0382  0.2563 -0.2153
15149TIP3    H166938   0.825   5.911  13.630 -2.3246  0.6858  0.2929
15149TIP3    H266939   0.794   5.822  13.749 -0.3595 -0.7957 -0.2440
15150TIP3   OH266940   4.516   5.140   2.614 -0.0618 -0.5309  0.4140
15150TIP3    H166941   4.510   5.150   2.709  2.5346 -0.7312  0.6616
15150TIP3    H266942   4.541   5.227   2.582 -1.3965 -0.3316 -0.2021
15151TIP3   OH266943   2.302   6.065   3.477 -0.3290  0.6449 -0.1991
15151TIP3    H166944   2.332   6.042   3.565 -2.3585 -0.7841  0.1940
15151TIP3    H266945   2.317   5.985   3.426 -1.0780  0.7608 -0.6120
15152TIP3   OH266946   0.620   2.041   3.551 -0.0772  0.1228  0.1024
15152TIP3    H166947   0.597   2.131   3.531 -1.4974 -0.1876  0.2135
15152TIP3    H266948   0.606   1.993   3.470 -0.6222 -0.2106  0.3834
15153TIP3   OH266949   3.947   5.211  12.575 -0.3287  0.3936 -0.4690
15153TIP3    H166950   3.985   5.296  12.601  0.1133  0.1019 -0.1537
15153TIP3    H266951   3.973   5.151  12.645 -1.0846  0.1118 -0.4309
15154TIP3   OH266952   1.128   6.008   6.644 -0.4843 -0.3924 -0.6023
15154TIP3    H166953   1.041   6.046   6.632 -0.0909  0.6084 -0.3845
15154TIP3    H266954   1.116   5.943   6.714 -0.5190  1.8101  1.5878
15155TIP3   OH266955   1.768   5.689  13.052 -0.0916  0.1785 -0.1028
15155TIP3    H166956   1.833   5.637  13.005 -1.3361 -0.3867 -1.2568
15155TIP3    H266957   1.706   5.625  13.086 -0.1902  0.7272  0.8050
15156TIP3   OH266958   5.576   5.861  15.889  0.1622  0.8502  0.1279
15156TIP3    H166959   5.519   5.786  15.870 -0.9118  1.4287  0.9296
15156TIP3    H266960   5.658   5.822  15.919  0.6670 -0.0173 -2.1833
15157TIP3   OH266961   1.510   3.623  12.928  0.3034  0.4681  0.6544
15157TIP3    H166962   1.447   3.666  12.870  0.8769  0.2268 -0.1666
15157TIP3    H266963   1.559   3.694  12.969 -0.9058  0.6870  1.7992
15158TIP3   OH266964   2.464   3.376   2.084 -0.0725  0.1158  0.7052
15158TIP3    H166965   2.559   3.374   2.074 -0.0497 -0.1143  0.9569
15158TIP3    H266966   2.450   3.430   2.162 -0.1518  0.1954  0.6363
15159TIP3   OH266967   5.384   2.849  13.888  0.3749 -0.3100  0.2316
15159TIP3    H166968   5.302   2.877  13.930 -0.6115 -1.8623 -0.5983
15159TIP3    H266969   5.365   2.762  13.854  2.5424 -0.9034  0.4356
15160TIP3   OH266970   6.202   5.451  14.448 -0.1684 -0.6596  0.5795
15160TIP3    H166971   6.183   5.385  14.514 -1.7016  1.0036  1.9132
15160TIP3    H266972   6.259   5.514  14.493 -2.4472  1.2868  0.9161
15161TIP3   OH266973   2.957   5.112   4.858  0.4923 -0.7003 -0.0944
15161TIP3    H166974   2.949   5.025   4.897  2.3826 -0.7739  0.2665
15161TIP3    H266975   2.995   5.166   4.927 -0.4731  0.3770 -0.3768
15162TIP3   OH266976   6.524   5.958   3.693  0.4945 -0.4573 -0.3112
15162TIP3    H166977   6.586   6.008   3.746  0.1409 -0.1732 -0.1630
15162TIP3    H266978   6.578   5.891   3.650  0.9234 -0.1289 -0.2908
15163TIP3   OH266979   2.910   4.034  14.691 -0.4020  0.3458 -0.2340
15163TIP3    H166980   2.981   3.976  14.717 -1.5118 -0.1151  1.9714
15163TIP3    H266981   2.835   3.977  14.679 -1.1223  1.1393  0.3760
15164TIP3   OH266982   4.740   4.055   2.503 -0.1058  0.1700  0.4773
15164TIP3    H166983   4.706   4.015   2.423  1.2618 -0.6326  0.2610
15164TIP3    H266984   4.676   4.032   2.570 -0.7823  0.0275 -0.2046
15165TIP3   OH266985   2.753   4.244  15.015 -0.7498  0.8388  0.0196
15165TIP3    H166986   2.680   4.276  15.068 -0.1500  0.2830  1.2073
15165TIP3    H266987   2.711   4.214  14.934 -1.8777  0.3624  0.7468
15166TIP3   OH266988   0.400   2.424   3.340 -0.0767  0.2105 -0.2188
15166TIP3    H166989   0.358   2.499   3.383 -0.9860  0.2829 -1.1962
15166TIP3    H266990   0.337   2.353   3.349  0.4477 -0.2352  0.0132
15167TIP3   OH266991   2.196   2.902   3.129  0.5851  0.2880  0.4006
15167TIP3    H166992   2.215   2.955   3.052  0.4595  2.4263  1.7593
15167TIP3    H266993   2.281   2.863   3.152  0.6515 -0.2476 -0.6977
15168TIP3   OH266994   0.219   5.478  11.113  0.3496  0.4114  0.1212
15168TIP3    H166995   0.271   5.498  11.035  0.9510  0.4096  0.5145
15168TIP3    H266996   0.145   5.426  11.080  0.7887  0.1078 -0.4006
15169TIP3   OH266997   6.602   6.023   4.833  0.1382  0.0877 -0.7390
15169TIP3    H166998   6.653   6.095   4.796  0.9934  0.2721  0.7357
15169TIP3    H266999   6.511   6.052   4.824  0.4941  1.7871  0.6224
15170TIP3   OH267000   5.044   0.135   3.729 -0.4073 -0.5405 -0.1774
15170TIP3    H167001   4.970   0.075   3.733 -0.1550 -0.8042  1.1649
15170TIP3    H267002   5.016   0.211   3.780  0.3636 -0.8170  0.7024
15171TIP3   OH267003   3.693   2.477  16.983 -0.1740  0.4183  0.4106
15171TIP3    H167004   3.692   2.385  16.956  0.8492  0.0176  1.6649
15171TIP3    H267005   3.619   2.485  17.043 -0.1512  0.3634  0.4474
15172TIP3   OH267006   4.112   3.266   1.644  0.3818 -0.1474 -0.0717
15172TIP3    H167007   4.126   3.349   1.690 -0.0126  0.5446 -1.1821
15172TIP3    H267008   4.024   3.273   1.607  1.4192  0.2038 -2.6803
15173TIP3   OH267009   3.790   3.492   0.069  0.0814  0.4188  0.5794
15173TIP3    H167010   3.844   3.562   0.105  1.3538 -0.6849  0.8928
15173TIP3    H267011   3.745   3.455   0.145  0.5343 -0.0343  0.6320
15174TIP3   OH267012   0.938   3.407   0.614 -0.0833  0.4980 -0.4934
15174TIP3    H167013   0.904   3.472   0.553  0.2766  2.2378  1.0546
15174TIP3    H267014   0.957   3.330   0.560 -0.3668  1.7288 -2.4340
15175TIP3   OH267015   1.757   3.054   5.711 -0.2464  0.6675 -0.1404
15175TIP3    H167016   1.814   3.101   5.771  2.6856 -2.2510 -0.3435
15175TIP3    H267017   1.684   3.024   5.765  1.6258 -0.7367  1.7767
15176TIP3   OH267018   3.281   3.680   6.054 -0.0604 -0.2229  0.2762
15176TIP3    H167019   3.332   3.605   6.084  1.1678  0.4394 -0.0910
15176TIP3    H267020   3.199   3.674   6.103  0.5563 -1.0477  1.2533
15177TIP3   OH267021   4.890   3.850  16.169  0.0133  0.1693 -0.0872
15177TIP3    H167022   4.939   3.919  16.214  0.6195 -0.6937  0.6082
15177TIP3    H267023   4.867   3.889  16.084 -1.0112  1.7622  0.8780
15178TIP3   OH267024   6.269   2.510  13.912  1.1630  0.4595 -0.1598
15178TIP3    H167025   6.354   2.543  13.881  1.3249  0.1984 -0.0031
15178TIP3    H267026   6.290   2.462  13.992  0.9662 -0.2196 -0.5048
15179TIP3   OH267027   2.646   4.705   1.769  0.3931 -0.0700 -0.0677
15179TIP3    H167028   2.737   4.701   1.737 -0.0866 -0.0510 -1.4998
15179TIP3    H267029   2.649   4.769   1.841  1.9193 -1.6620  1.4025
15180TIP3   OH267030   2.303   4.319  15.748 -0.1648 -0.0765  0.4156
15180TIP3    H167031   2.333   4.393  15.695 -0.1844  0.3094  0.9287
15180TIP3    H267032   2.211   4.309  15.724 -0.1728  0.0930  0.3727
15181TIP3   OH267033   6.750   3.714  11.059 -0.2140 -0.0771 -0.4633
15181TIP3    H167034   6.807   3.673  11.124 -0.7999 -0.3611 -0.1317
15181TIP3    H267035   6.811   3.743  10.990  0.4959  0.9616  0.5704
15182TIP3   OH267036   2.802   1.415  12.733 -0.3243 -0.0047  0.5150
15182TIP3    H167037   2.821   1.393  12.642 -0.5803  3.1589 -0.4300
15182TIP3    H267038   2.808   1.332  12.780 -0.2368 -1.7534 -2.3722
15183TIP3   OH267039   1.070   3.129  12.191  0.4946  0.5367  0.7184
15183TIP3    H167040   1.050   3.157  12.102  2.6176  0.9552  0.3237
15183TIP3    H267041   1.064   3.033  12.188 -1.0999  0.6150  0.5904
15184TIP3   OH267042   4.333   4.069   4.022 -0.5166  0.0519  0.4895
15184TIP3    H167043   4.292   4.090   3.938 -2.5965 -2.4299  0.7638
15184TIP3    H267044   4.427   4.077   4.006 -0.7594 -1.8851 -2.5855
15185TIP3   OH267045   0.580   3.110   1.027  0.6447  0.7169 -0.6330
15185TIP3    H167046   0.557   3.037   0.970  2.2159 -1.3631  1.2217
15185TIP3    H267047   0.528   3.097   1.106  0.9752  1.5806 -0.2530
15186TIP3   OH267048   6.293   6.114  15.309  0.4623  0.0900 -0.4454
15186TIP3    H167049   6.382   6.110  15.345  0.4098 -0.0299 -0.3296
15186TIP3    H267050   6.237   6.079  15.379  0.4713 -1.2030 -1.0555
15187TIP3   OH267051   6.185   5.013  11.357  0.5151 -0.2182 -0.5552
15187TIP3    H167052   6.194   5.074  11.283  0.1220  0.5509  0.0224
15187TIP3    H267053   6.275   4.991  11.380  0.6537 -0.1401 -1.0062
15188TIP3   OH267054   6.656   3.688  11.729 -0.0713  0.1421 -0.7808
15188TIP3    H167055   6.707   3.625  11.781 -2.7191 -0.4569  1.3572
15188TIP3    H267056   6.679   3.773  11.766 -0.3970 -0.1018  0.0210
15189TIP3   OH267057   4.633   4.090   0.981 -0.5207 -0.1790  0.7027
15189TIP3    H167058   4.544   4.121   0.963 -0.5074 -0.0609  0.8393
15189TIP3    H267059   4.621   4.010   1.032 -0.5402  0.2663  1.4097
15190TIP3   OH267060   4.859   4.920   3.576  0.2845  0.4027  0.2698
15190TIP3    H167061   4.898   4.983   3.515  0.7691 -1.1522 -1.0835
15190TIP3    H267062   4.781   4.888   3.532 -0.0958  0.2164  1.0552
15191TIP3   OH267063   2.689   0.573   0.739 -0.5552 -0.1556 -0.3964
15191TIP3    H167064   2.745   0.623   0.798 -1.3106 -0.5382  0.6725
15191TIP3    H267065   2.601   0.606   0.756 -0.9536 -1.2449 -0.2900
15192TIP3   OH267066   0.635   4.167   1.247  0.2700  0.0694  0.0520
15192TIP3    H167067   0.559   4.109   1.256  1.7854 -2.4593 -2.0364
15192TIP3    H267068   0.655   4.194   1.337 -1.1167 -1.9172  1.0346
15193TIP3   OH267069   3.587   0.570   2.833 -0.3750  0.1997 -0.5508
15193TIP3    H167070   3.590   0.478   2.809 -0.7180 -0.1059  0.5429
15193TIP3    H267071   3.647   0.578   2.907 -0.8912  0.7160 -0.1785
15194TIP3   OH267072   1.302   3.240   6.599  0.0846 -0.0986 -0.1578
15194TIP3    H167073   1.323   3.151   6.626  2.6172  0.0638 -1.3428
15194TIP3    H267074   1.239   3.230   6.527 -1.0104 -0.7947  0.8535
15195TIP3   OH267075   5.977   1.405   5.944 -0.0810 -0.2912 -0.1619
15195TIP3    H167076   5.917   1.479   5.935  0.6952  0.5532  1.2169
15195TIP3    H267077   5.986   1.393   6.039  0.7427 -1.3797 -0.3613
15196TIP3   OH267078   6.099   5.754   4.025  0.3174  0.2789  0.3835
15196TIP3    H167079   6.033   5.739   4.092  1.3623 -0.5358  1.2661
15196TIP3    H267080   6.143   5.669   4.015  3.4184  1.4996  2.2403
15197TIP3   OH267081   1.612   3.098  15.353  0.6732  0.0670  0.1875
15197TIP3    H167082   1.623   3.161  15.424 -0.5302  0.6382 -0.1044
15197TIP3    H267083   1.666   3.023  15.379  1.5804  0.9357  0.8695
15198TIP3   OH267084   6.779   2.542  13.149 -0.7289  0.3442 -0.2374
15198TIP3    H167085   6.807   2.546  13.058 -0.0658  0.3419 -0.0383
15198TIP3    H267086   6.856   2.511  13.196 -1.4779 -1.0767  0.1358
15199TIP3   OH267087   0.141   6.087   4.161 -0.3070 -0.2082 -0.0866
15199TIP3    H167088   0.192   6.143   4.102 -0.0420  0.1418  0.4642
15199TIP3    H267089   0.054   6.127   4.163 -0.7783 -1.1094 -1.4429
15200TIP3   OH267090   5.596   2.015   5.348  0.8392 -0.2461 -0.8897
15200TIP3    H167091   5.577   1.946   5.411  0.1615  1.1369  0.4992
15200TIP3    H267092   5.684   2.045   5.371  1.0534 -0.5042 -1.3611
15201TIP3   OH267093   4.484   3.532   3.933  0.2364  0.4234  0.2013
15201TIP3    H167094   4.396   3.568   3.936 -0.0170 -0.2587  1.6328
15201TIP3    H267095   4.540   3.601   3.968 -0.0401  0.0249  1.4512
15202TIP3   OH267096   4.190   0.587   1.549  0.1923  0.1802  0.4557
15202TIP3    H167097   4.234   0.524   1.606  0.8874  0.7893  0.6211
15202TIP3    H267098   4.236   0.670   1.566  1.6093  0.0635 -2.2326
15203TIP3   OH267099   0.676   1.049   5.784 -0.0003 -0.3593  0.6372
15203TIP3    H167100   0.601   0.991   5.799  0.6475 -1.2236  0.6771
15203TIP3    H267101   0.650   1.133   5.820 -0.2031 -1.1763  2.5165
15204TIP3   OH267102   0.906   2.369  13.791  0.0743  0.9479 -0.2547
15204TIP3    H167103   0.885   2.452  13.748 -0.0805  0.3685 -1.3359
15204TIP3    H267104   0.958   2.321  13.727 -1.2750 -0.4892 -0.3376
15205TIP3   OH267105   2.652   4.869   4.483 -0.1198  0.1368  0.2346
15205TIP3    H167106   2.708   4.895   4.556  0.0260  1.0733 -0.2072
15205TIP3    H267107   2.601   4.795   4.517  1.4401 -0.7984  0.6167
15206TIP3   OH267108   0.095   3.282  15.508 -0.0249 -0.1788  0.5016
15206TIP3    H167109   0.130   3.254  15.423 -0.9408  0.6140 -0.1718
15206TIP3    H267110   0.011   3.236  15.515 -0.5921  0.7954  0.3210
15207TIP3   OH267111   3.837   4.446   0.645  0.5124  0.8677 -0.5210
15207TIP3    H167112   3.768   4.439   0.579  1.0159  0.7073 -1.0384
15207TIP3    H267113   3.854   4.356   0.672 -0.0152  0.9696  0.1743
15208TIP3   OH267114   3.319   6.424  12.237 -0.0785  0.3233  0.3428
15208TIP3    H167115   3.408   6.424  12.201 -0.0868  0.3313  0.3227
15208TIP3    H267116   3.313   6.343  12.288 -0.2876 -0.0154 -0.2119
15209TIP3   OH267117   4.594   3.511   5.888 -0.3230  0.7629  0.5748
15209TIP3    H167118   4.629   3.581   5.833 -0.6547  0.7304  0.3196
15209TIP3    H267119   4.527   3.469   5.834 -1.0457  1.0915  1.1907
15210TIP3   OH267120   4.312   2.019   3.639  0.0443 -0.3902 -0.1899
15210TIP3    H167121   4.320   2.047   3.730  0.6029  0.1004 -0.3832
15210TIP3    H267122   4.390   1.966   3.622 -0.4829 -1.2066 -0.1400
15211TIP3   OH267123   1.123   2.958   3.088  0.4557 -0.0069  0.1342
15211TIP3    H167124   1.134   3.028   3.024  0.2654 -0.0363  0.0692
15211TIP3    H267125   1.067   2.995   3.156  0.2536 -0.1365  0.0386
15212TIP3   OH267126   3.350   1.505  13.850 -0.0782 -0.3423  0.1884
15212TIP3    H167127   3.390   1.473  13.769  0.7228  1.8376 -0.3395
15212TIP3    H267128   3.365   1.435  13.913  2.2080 -0.7551 -0.7059
15213TIP3   OH267129   6.224   3.169  15.017  0.1071 -0.0979  1.0476
15213TIP3    H167130   6.250   3.178  15.109  1.7574 -0.3758  0.6345
15213TIP3    H267131   6.303   3.138  14.973 -0.4053  0.9011 -0.6383
15214TIP3   OH267132   4.815   5.194  12.694  0.0016  0.2438 -0.1264
15214TIP3    H167133   4.909   5.193  12.677  0.1343 -0.3203  0.5835
15214TIP3    H267134   4.807   5.165  12.785 -1.0257 -3.0230 -1.1232
15215TIP3   OH267135   5.908   0.956  13.804 -0.7124 -0.4078 -0.5144
15215TIP3    H167136   5.851   0.880  13.815  1.4640 -1.9339  1.2683
15215TIP3    H267137   5.943   0.973  13.891 -1.1059  2.7237 -0.8603
15216TIP3   OH267138   5.104   4.110   3.216  0.5720  0.3045  0.2701
15216TIP3    H167139   5.195   4.095   3.243  0.1982 -0.7310  1.0413
15216TIP3    H267140   5.059   4.028   3.239 -0.3578  0.4326 -0.9821
15217TIP3   OH267141   4.570   2.500   1.058 -0.0209 -0.3164  0.2105
15217TIP3    H167142   4.663   2.479   1.048 -0.3987 -1.6295 -0.8711
15217TIP3    H267143   4.568   2.571   1.122  1.6343 -1.0419  1.1215
15218TIP3   OH267144   0.557   4.003   4.557  0.2621 -0.1668 -0.4866
15218TIP3    H167145   0.582   3.998   4.465  1.3685  1.1880 -0.2940
15218TIP3    H267146   0.553   4.096   4.576 -1.2924 -0.4001  0.5097
15219TIP3   OH267147   5.893   2.556  14.450 -0.1529 -0.3278  0.2612
15219TIP3    H167148   5.934   2.575  14.535 -0.2438  0.0369  0.2251
15219TIP3    H267149   5.954   2.592  14.386  0.0052 -0.7706  0.1656
15220TIP3   OH267150   6.118   5.249  12.023 -0.2429  0.5746 -0.1482
15220TIP3    H167151   6.132   5.167  12.070  2.3871  0.2077 -1.4046
15220TIP3    H267152   6.060   5.299  12.080  0.3945 -1.0105  2.0332
15221TIP3   OH267153   1.203   6.578  13.672  0.5375  0.2209  0.4525
15221TIP3    H167154   1.186   6.643  13.603  0.1366  0.2447  0.5671
15221TIP3    H267155   1.238   6.502  13.625  1.6504  0.7600  0.3991
15222TIP3   OH267156   6.749   5.547  12.943  0.1277 -0.3027 -0.3944
15222TIP3    H167157   6.736   5.493  13.021  0.3362 -1.3214 -1.0447
15222TIP3    H267158   6.688   5.512  12.878  0.1935  0.3151 -0.8016
15223TIP3   OH267159   0.945   1.894  15.049 -0.2059 -0.2086 -0.2417
15223TIP3    H167160   1.007   1.853  15.109  0.3774  0.2231 -0.5361
15223TIP3    H267161   0.866   1.908  15.102 -0.4948 -1.8484 -0.1878
15224TIP3   OH267162   1.146   0.213   0.058  0.2530 -0.0616  0.1081
15224TIP3    H167163   1.100   0.129   0.060 -2.0430  1.1535  1.3275
15224TIP3    H267164   1.181   0.223   0.147  0.3591  0.3673  0.0164
15225TIP3   OH267165   6.341   5.496   2.878 -0.5038  0.4714  0.2081
15225TIP3    H167166   6.404   5.465   2.942  0.2424 -0.3967 -0.9195
15225TIP3    H267167   6.355   5.591   2.875 -0.2626  0.4666  1.0064
15226TIP3   OH267168   2.631   4.528   4.499 -0.2835  0.5499 -0.0151
15226TIP3    H167169   2.624   4.466   4.426  0.3682  1.3573 -0.7894
15226TIP3    H267170   2.690   4.485   4.562  0.2707  0.4277 -0.6040
15227TIP3   OH267171   1.598   4.107  12.086  0.1328 -0.3963 -0.7599
15227TIP3    H167172   1.573   4.097  12.178 -0.9870  0.8121 -0.8876
15227TIP3    H267173   1.596   4.019  12.050  0.9129 -0.9233  0.4544
15228TIP3   OH267174   2.522   1.655   4.020 -0.4617  0.0161  0.4599
15228TIP3    H167175   2.530   1.656   4.115  1.4411  0.0704  0.3388
15228TIP3    H267176   2.440   1.609   4.003 -0.8001 -0.0524  2.1149
15229TIP3   OH267177   3.844   2.803  11.357 -0.3819 -0.1299  0.2635
15229TIP3    H167178   3.848   2.793  11.452  0.0011 -1.8578  0.1008
15229TIP3    H267179   3.814   2.718  11.326  0.5881  0.0428 -1.2412
15230TIP3   OH267180   5.752   4.707   0.076  0.4008 -0.0542 -0.1024
15230TIP3    H167181   5.738   4.772   0.008  2.5202  0.9740  0.3556
15230TIP3    H267182   5.715   4.745   0.155 -1.7724 -1.1124 -0.5349
15231TIP3   OH267183   2.417   1.365   2.712  0.3304 -0.4889 -0.0382
15231TIP3    H167184   2.383   1.289   2.759  0.5970 -0.5925 -0.0073
15231TIP3    H267185   2.512   1.352   2.712  0.4681  0.3988  0.9289
15232TIP3   OH267186   1.308   1.946   6.330 -0.7560  0.0818 -0.6288
15232TIP3    H167187   1.255   1.908   6.400  1.1850  2.1745  2.1626
15232TIP3    H267188   1.282   2.038   6.326  0.3043  0.3649 -1.5631
15233TIP3   OH267189   6.787   1.917  12.748  0.7602 -0.1537  0.5624
15233TIP3    H167190   6.766   2.006  12.773 -0.1790 -0.3197  0.3988
15233TIP3    H267191   6.832   1.926  12.663 -0.6791  0.0896 -0.2070
15234TIP3   OH267192   0.931   0.055  15.031  0.1329 -0.0650 -0.1753
15234TIP3    H167193   0.882   0.105  14.965 -1.4170 -1.6104 -0.2896
15234TIP3    H267194   0.912  -0.037  15.009  0.1773 -0.6321  1.9672
15235TIP3   OH267195   2.440   3.409   5.894 -0.1244 -0.1046  0.0461
15235TIP3    H167196   2.508   3.369   5.948 -0.4108  2.3761  2.5064
15235TIP3    H267197   2.471   3.499   5.881 -2.1887  0.6265 -0.0834
15236TIP3   OH267198   5.465   4.438  11.568 -0.1936 -0.1162  0.1509
15236TIP3    H167199   5.469   4.422  11.474  1.1245 -2.0542  0.4909
15236TIP3    H267200   5.446   4.532  11.575  1.2153  0.4113 -2.0479
15237TIP3   OH267201   5.460   6.208   1.834 -0.0637 -0.2246 -0.1645
15237TIP3    H167202   5.441   6.275   1.768 -1.0838 -0.0689  0.2622
15237TIP3    H267203   5.505   6.138   1.786  0.0711  0.3030 -0.8243
15238TIP3   OH267204   2.913   2.512  12.946  0.2582 -0.2345 -0.3842
15238TIP3    H167205   2.840   2.571  12.961  0.4171  0.1089 -0.9252
15238TIP3    H267206   2.885   2.428  12.983  0.3700  0.3949  1.1676
15239TIP3   OH267207   4.301   2.265   6.752 -0.1675 -0.2826  0.0980
15239TIP3    H167208   4.324   2.331   6.686  1.0256  1.2580  1.9109
15239TIP3    H267209   4.359   2.285   6.826  0.2519 -3.4277  0.7662
15240TIP3   OH267210   1.959   0.506  12.947 -0.3728 -0.0022 -0.3094
15240TIP3    H167211   2.009   0.541  13.021  0.1362  1.2169 -1.2021
15240TIP3    H267212   2.018   0.442  12.906 -0.5699 -0.5100  0.1802
15241TIP3   OH267213   4.849   5.065  14.483  0.0717 -0.2473 -0.3557
15241TIP3    H167214   4.857   5.111  14.399  0.2020 -0.4112 -0.4334
15241TIP3    H267215   4.907   4.989  14.474  0.3161 -0.1066 -0.0116
15242TIP3   OH267216   2.396   5.282  12.360 -0.0312 -0.0871 -0.0783
15242TIP3    H167217   2.366   5.211  12.416 -0.7209 -0.2333 -0.6162
15242TIP3    H267218   2.473   5.246  12.315  0.3486 -0.0667  0.5527
15243TIP3   OH267219   0.489   5.326  11.622  0.2125  0.3749  0.5841
15243TIP3    H167220   0.509   5.232  11.627  1.6462  0.6734  0.7611
15243TIP3    H267221   0.534   5.355  11.543 -3.3869  0.2130 -1.7962
15244TIP3   OH267222   4.372   2.500  12.512 -0.5208  0.0576  0.1392
15244TIP3    H167223   4.344   2.542  12.593  0.0324 -0.0194  0.3769
15244TIP3    H267224   4.438   2.559  12.476 -0.1709 -0.3045  0.1711
15245TIP3   OH267225   4.196   0.415  13.291  0.3632  0.1561 -0.9051
15245TIP3    H167226   4.227   0.343  13.346  1.7482  0.1154 -1.6818
15245TIP3    H267227   4.146   0.373  13.222  0.9534 -0.0455 -1.2130
15246TIP3   OH267228   0.577   3.725   5.205 -0.3491  0.2417 -0.3323
15246TIP3    H167229   0.522   3.648   5.190  1.2707 -1.2157  0.7575
15246TIP3    H267230   0.597   3.758   5.117 -1.0004 -0.6415 -0.8282
15247TIP3   OH267231   4.475   5.522  16.944  0.4255  0.3618  0.3553
15247TIP3    H167232   4.551   5.551  16.993  0.7066  2.9981 -1.4352
15247TIP3    H267233   4.403   5.577  16.976  0.2725  0.9927 -1.0119
15248TIP3   OH267234   5.154   4.506   6.235 -0.1114 -0.5676 -0.2962
15248TIP3    H167235   5.132   4.445   6.164  0.6030 -0.6985 -0.4164
15248TIP3    H267236   5.228   4.557   6.200 -0.3168 -0.0404  0.0296
15249TIP3   OH267237   3.352   0.128   4.980 -0.1537  0.3651 -0.1006
15249TIP3    H167238   3.413   0.063   4.945  0.4966  0.6698  0.4368
15249TIP3    H267239   3.316   0.171   4.902 -1.1809 -1.1304 -0.4927
15250TIP3   OH267240   4.083   3.030  16.937 -0.5423 -0.0125 -0.5946
15250TIP3    H167241   4.067   3.028  17.031 -1.2772 -0.4438 -0.7165
15250TIP3    H267242   3.999   3.056  16.899 -0.1144  0.6626 -1.1061
15251TIP3   OH267243   5.578   1.274   3.003  0.5888 -0.1887 -0.2833
15251TIP3    H167244   5.499   1.245   3.048 -0.0725  0.3490 -1.0664
15251TIP3    H267245   5.649   1.225   3.044 -0.0870 -0.2966  0.7912
15252TIP3   OH267246   5.581   3.384  10.458 -0.1569 -0.1077 -0.7717
15252TIP3    H167247   5.621   3.296  10.459  2.3385  0.9205  0.4761
15252TIP3    H267248   5.500   3.374  10.508  1.4593 -1.2428  1.8680
15253TIP3   OH267249   6.080   2.245  14.461 -0.0119  0.0967 -0.2596
15253TIP3    H167250   6.001   2.254  14.514  0.9034  1.4970  0.9403
15253TIP3    H267251   6.097   2.334  14.427  0.8838 -0.2394 -0.7370
15254TIP3   OH267252   5.001   3.392   0.362  0.6379 -0.4869 -0.2004
15254TIP3    H167253   4.936   3.446   0.315  1.1007 -2.1105 -2.9384
15254TIP3    H267254   4.971   3.302   0.348  0.9508 -1.1004  2.5927
15255TIP3   OH267255   5.619   1.847   2.494 -0.5007 -0.0146 -0.2876
15255TIP3    H167256   5.635   1.757   2.467 -1.4718 -0.1849 -0.3256
15255TIP3    H267257   5.526   1.861   2.477 -0.2784  1.1231 -0.6529
15256TIP3   OH267258   2.908   4.431   4.103  0.0184  1.0144 -0.5716
15256TIP3    H167259   2.833   4.371   4.094  1.2385 -0.6853  0.1081
15256TIP3    H267260   2.898   4.468   4.190  0.3412  0.2477 -0.2036
15257TIP3   OH267261   0.811   4.925  17.180  0.6757 -0.0304  0.4259
15257TIP3    H167262   0.806   4.981  17.103  0.2020  2.4930  2.1888
15257TIP3    H267263   0.812   4.836  17.144  1.0878  1.0345 -2.4833
15258TIP3   OH267264   3.709   6.514  13.839  0.1809  0.2568 -0.1537
15258TIP3    H167265   3.801   6.499  13.819 -0.2950 -3.8227 -0.1097
15258TIP3    H267266   3.667   6.525  13.754  0.6293  2.1566 -0.1709
15259TIP3   OH267267   1.625   2.191  15.789 -0.1411  0.6185 -0.2665
15259TIP3    H167268   1.593   2.262  15.733 -0.0334 -0.0198 -1.1639
15259TIP3    H267269   1.695   2.151  15.739 -0.6265 -0.5335 -0.0615
15260TIP3   OH267270   1.880   4.822  13.333 -0.2689 -0.7443  0.3176
15260TIP3    H167271   1.837   4.785  13.411 -1.5553 -1.1348 -0.5432
15260TIP3    H267272   1.865   4.757  13.264  0.7227 -0.3357 -0.3022
15261TIP3   OH267273   4.723   1.324   1.012  0.0718 -0.3647 -0.1660
15261TIP3    H167274   4.651   1.356   0.957  0.4736  0.0302 -0.4719
15261TIP3    H267275   4.799   1.325   0.954  0.7195  1.0267  0.6766
15262TIP3   OH267276   6.611   3.708  13.741 -0.2693 -0.1254 -0.0349
15262TIP3    H167277   6.551   3.781  13.759 -0.1472 -0.0890  0.2267
15262TIP3    H267278   6.641   3.725  13.651 -1.7118 -0.8989 -0.7055
15263TIP3   OH267279   5.163   5.897  14.888 -0.0524 -0.0671 -0.0344
15263TIP3    H167280   5.141   5.985  14.856 -1.7232 -0.8744 -1.2245
15263TIP3    H267281   5.254   5.884  14.859  1.5093  2.5098  3.1206
15264TIP3   OH267282   3.498   5.467   1.495  0.0518  0.2626  0.0478
15264TIP3    H167283   3.458   5.539   1.445  1.7306  0.8781 -0.4508
15264TIP3    H267284   3.544   5.415   1.430  1.7572  0.7303  0.8373
15265TIP3   OH267285   2.899   4.299  15.540 -0.0080  0.7207 -0.3396
15265TIP3    H167286   2.866   4.240  15.472 -0.6403  0.2003  0.3979
15265TIP3    H267287   2.828   4.360  15.556 -0.3851  0.0167  0.7765
15266TIP3   OH267288   2.146   5.355  11.108  0.2354  0.0666 -0.2747
15266TIP3    H167289   2.150   5.293  11.181 -1.1950 -0.5776 -0.7009
15266TIP3    H267290   2.144   5.441  11.151  2.4211 -0.1029  0.3177
15267TIP3   OH267291   0.575   5.746  11.309 -0.0304  0.2768 -0.3701
15267TIP3    H167292   0.502   5.685  11.320 -0.3054  1.0463  2.8740
15267TIP3    H267293   0.542   5.812  11.248 -0.8041 -1.0942 -1.5208
15268TIP3   OH267294   2.709   3.241  15.781 -0.0645  1.0846 -0.6176
15268TIP3    H167295   2.790   3.237  15.731 -0.4295 -0.0751 -1.1532
15268TIP3    H267296   2.666   3.320  15.751  0.8570  1.7171 -0.3275
15269TIP3   OH267297   0.702   4.523   0.513 -0.5902  0.7209 -0.4254
15269TIP3    H167298   0.635   4.512   0.445 -2.1700 -2.2148  1.3519
15269TIP3    H267299   0.718   4.434   0.544  0.3020  1.8657  2.7797
15270TIP3   OH267300   5.516   3.937   1.075  0.6539  0.3658 -0.3167
15270TIP3    H167301   5.427   3.925   1.043  1.0315 -4.1381 -0.3741
15270TIP3    H267302   5.506   3.948   1.169 -0.0099 -1.4752 -0.1301
15271TIP3   OH267303   3.697   2.879   4.289  0.4428  0.6573 -0.5826
15271TIP3    H167304   3.633   2.812   4.314 -0.4050  1.1267 -1.4088
15271TIP3    H267305   3.708   2.932   4.368 -0.2757  0.6219 -0.4492
15272TIP3   OH267306   2.730   5.463   0.518 -0.8045 -0.4394 -0.3151
15272TIP3    H167307   2.660   5.428   0.573 -0.2149 -1.4757 -0.1884
15272TIP3    H267308   2.799   5.396   0.522 -0.4994 -0.2450 -1.8042
15273TIP3   OH267309   5.469   1.981   4.153 -0.4794 -0.0035  0.0064
15273TIP3    H167310   5.434   1.926   4.223  0.8376  0.4211  1.0265
15273TIP3    H267311   5.503   1.919   4.089  0.1956 -0.3975  0.7327
15274TIP3   OH267312   5.539   6.284   5.683 -0.6166  0.2755  0.1821
15274TIP3    H167313   5.554   6.193   5.708 -2.1144 -0.8154 -2.4968
15274TIP3    H267314   5.556   6.287   5.589 -0.7390  2.7509  0.1560
15275TIP3   OH267315   0.190   4.278  15.227  0.1245 -0.1213 -0.7115
15275TIP3    H167316   0.214   4.210  15.290  1.6484  0.2462 -0.8493
15275TIP3    H267317   0.273   4.303  15.187  0.0874  3.6559  1.1639
15276TIP3   OH267318   3.265   4.866  16.384  0.0559  0.5965 -0.2348
15276TIP3    H167319   3.275   4.957  16.411 -2.3864  0.6722  0.5795
15276TIP3    H267320   3.286   4.815  16.462 -0.8893  0.5615 -0.0006
15277TIP3   OH267321   0.206   1.663  14.487 -0.6321  0.1833 -0.5011
15277TIP3    H167322   0.268   1.686  14.557 -0.7898  0.2689 -0.3874
15277TIP3    H267323   0.140   1.733  14.490 -1.5022 -0.6395  0.3045
15278TIP3   OH267324   0.057   1.441   4.265 -0.0553 -0.0080  0.8189
15278TIP3    H167325   0.030   1.371   4.206 -0.7769  1.0581 -0.1592
15278TIP3    H267326   0.002   1.429   4.343 -1.4439  0.4872 -0.0453
15279TIP3   OH267327   2.737   5.299   5.900 -0.1382  0.0505  0.0046
15279TIP3    H167328   2.749   5.286   5.994  0.9013 -2.2644 -0.3649
15279TIP3    H267329   2.664   5.241   5.877 -0.1886  0.3620 -0.6511
15280TIP3   OH267330   1.507   6.087   2.951 -0.0568 -0.1487  0.1810
15280TIP3    H167331   1.576   6.054   2.893 -0.0164 -0.1280  0.2171
15280TIP3    H267332   1.541   6.070   3.039  0.2410  0.5569  0.2077
15281TIP3   OH267333   0.821   4.571   5.785  0.1593 -0.1121  0.1662
15281TIP3    H167334   0.778   4.566   5.871 -1.0820  0.8361 -0.3777
15281TIP3    H267335   0.837   4.479   5.762  0.4758 -0.3856  1.3758
15282TIP3   OH267336   3.019   1.755   2.000 -0.3543 -0.1738  0.4095
15282TIP3    H167337   3.002   1.799   1.917 -2.1074 -1.9909 -0.2870
15282TIP3    H267338   2.959   1.796   2.062  0.7470  0.9821  0.7498
15283TIP3   OH267339   3.153   5.763  15.672 -0.0181  0.0241  0.4426
15283TIP3    H167340   3.135   5.701  15.743  1.4369  0.2843  1.0616
15283TIP3    H267341   3.224   5.818  15.705 -0.2945  1.0844 -0.6675
15284TIP3   OH267342   1.709   5.544   5.679  0.2346 -0.0115  0.3950
15284TIP3    H167343   1.702   5.459   5.636 -1.2458  0.5005 -0.4356
15284TIP3    H267344   1.761   5.598   5.619  1.4447 -0.3944  1.0678
15285TIP3   OH267345   4.640   4.261  13.325  0.0148 -0.1368 -0.1162
15285TIP3    H167346   4.608   4.211  13.249  0.1146 -0.6771  0.1887
15285TIP3    H267347   4.734   4.270  13.310 -0.1636  0.8633 -0.6803
15286TIP3   OH267348   3.158   4.724  15.181 -0.0386 -0.2763 -0.3666
15286TIP3    H167349   3.241   4.760  15.212  0.5958 -2.7530  1.1421
15286TIP3    H267350   3.106   4.711  15.260  0.8160 -4.8603 -0.2784
15287TIP3   OH267351   3.582   3.054   5.664  0.4552  0.1055 -0.1353
15287TIP3    H167352   3.552   2.972   5.701  1.3346  0.3055  1.0764
15287TIP3    H267353   3.675   3.058   5.686  0.0613  2.2759  1.5264
15288TIP3   OH267354   3.497   3.893  11.380 -0.1715 -0.4021  0.0490
15288TIP3    H167355   3.560   3.847  11.324 -0.1056 -1.6520  1.1162
15288TIP3    H267356   3.520   3.985  11.371  0.5390 -0.6659 -1.1058
15289TIP3   OH267357   5.937   1.233  13.959 -0.2401  0.6967  0.1123
15289TIP3    H167358   5.994   1.309  13.961 -1.0606  1.3202  0.4439
15289TIP3    H267359   5.850   1.268  13.979 -1.0871  0.0833 -2.1885
15290TIP3   OH267360   6.237   4.709  14.278  0.2021 -0.0658  0.1898
15290TIP3    H167361   6.269   4.798  14.268  0.0555 -0.1598 -1.3413
15290TIP3    H267362   6.142   4.719  14.288  0.2724 -0.0140  0.8494
15291TIP3   OH267363   3.102   5.061   5.396  0.5203 -0.0020  0.1288
15291TIP3    H167364   3.038   5.078   5.327  1.0746  1.4783 -0.0486
15291TIP3    H267365   3.063   5.101   5.474  1.2634  1.0017 -0.0045
15292TIP3   OH267366   0.807   6.070   2.566 -0.5097 -0.4017  0.2022
15292TIP3    H167367   0.856   5.988   2.557 -2.1461 -1.5165  0.7527
15292TIP3    H267368   0.790   6.077   2.660  0.5827  1.2060  0.3064
15293TIP3   OH267369   1.184   5.859   3.350 -0.2645  0.0186  0.1802
15293TIP3    H167370   1.223   5.841   3.436 -0.0955 -2.4684 -0.3586
15293TIP3    H267371   1.136   5.941   3.363 -1.7312 -1.1494  3.1542
15294TIP3   OH267372   6.776   1.718   5.460  0.7259  0.1204  0.4084
15294TIP3    H167373   6.767   1.636   5.508 -0.2604 -0.9733 -1.5181
15294TIP3    H267374   6.855   1.706   5.408  0.6857  0.4710  0.2686
15295TIP3   OH267375   2.625   6.274  12.838  0.2316  0.1902  0.0909
15295TIP3    H167376   2.563   6.341  12.866 -0.3188  0.2401 -1.1631
15295TIP3    H267377   2.592   6.193  12.878  0.4223  0.5165  0.9280
15296TIP3   OH267378   2.384   6.343   4.592  0.4923  0.3034  0.3147
15296TIP3    H167379   2.448   6.392   4.541 -0.1944  1.9803  0.9760
15296TIP3    H267380   2.416   6.253   4.592  1.7230  0.7068 -1.0937
15297TIP3   OH267381   0.162   5.090  15.977 -0.0695 -0.4349  0.6818
15297TIP3    H167382   0.094   5.125  15.920 -0.4355  1.7597  2.3368
15297TIP3    H267383   0.219   5.041  15.919 -2.1458 -0.9899 -1.0181
15298TIP3   OH267384   4.386   3.901  15.399  0.8053  0.2788  0.0420
15298TIP3    H167385   4.348   3.986  15.377  0.6547  0.5891  1.4051
15298TIP3    H267386   4.466   3.896  15.346  1.2202  1.6129  0.5019
15299TIP3   OH267387   6.610   0.281  12.205  0.2162  0.1555 -0.1974
15299TIP3    H167388   6.612   0.279  12.110 -0.5099  1.5315 -0.2612
15299TIP3    H267389   6.551   0.353  12.227  1.4241  0.7605  1.2821
15300TIP3   OH267390   1.397   2.165  16.619  0.2548 -0.4958  0.7936
15300TIP3    H167391   1.460   2.237  16.622  1.0984 -1.1630 -0.1252
15300TIP3    H267392   1.326   2.196  16.563 -0.2449  0.2636  1.8336
15301TIP3   OH267393   4.273   4.530   1.284  0.2868  0.4986  0.5166
15301TIP3    H167394   4.206   4.566   1.342 -0.1866 -0.7042  0.7395
15301TIP3    H267395   4.347   4.512   1.342 -0.4165 -1.3138  0.9133
15302TIP3   OH267396   3.205   0.240  17.086  0.3960 -0.0483 -0.2046
15302TIP3    H167397   3.157   0.322  17.086 -0.7363 -0.6047  2.2598
15302TIP3    H267398   3.187   0.201  17.172  2.3399 -2.0339 -0.5747
15303TIP3   OH267399   1.433   1.760  14.097  0.0060 -1.4548  0.3445
15303TIP3    H167400   1.456   1.668  14.114  1.0802 -1.0560  1.1160
15303TIP3    H267401   1.517   1.803  14.080 -0.4197 -0.4802  0.6452
15304TIP3   OH267402   1.814   1.115  10.743  0.1325  0.1105  0.0054
15304TIP3    H167403   1.802   1.133  10.650 -1.3900 -3.0506 -0.5141
15304TIP3    H267404   1.859   1.193  10.777  0.2983  1.5565 -3.2336
15305TIP3   OH267405   3.036   2.486  14.490  0.2704 -0.1609 -0.4605
15305TIP3    H167406   3.007   2.451  14.574  0.9765  0.8440  0.2208
15305TIP3    H267407   2.957   2.523  14.451  0.4674  2.1632  1.1869
15306TIP3   OH267408   2.958   2.890   5.163 -0.4301 -0.2108 -0.2428
15306TIP3    H167409   3.020   2.873   5.092 -1.7806 -0.2532 -1.4570
15306TIP3    H267410   2.878   2.846   5.135 -1.2474  0.5173  0.9043
15307TIP3   OH267411   1.289   1.292  13.037 -0.3634  0.2257  0.4517
15307TIP3    H167412   1.235   1.349  12.981 -0.0526  0.1355  0.0604
15307TIP3    H267413   1.377   1.327  13.029  0.1839 -1.4009 -1.2486
15308TIP3   OH267414   4.561   4.059  16.927  0.0690  0.0922  0.3640
15308TIP3    H167415   4.574   4.030  17.017 -2.8679  0.3258  0.9551
15308TIP3    H267416   4.548   4.154  16.933 -1.0820 -0.0098 -0.1248
15309TIP3   OH267417   2.711   1.941  12.061  0.1810 -0.3332 -0.3810
15309TIP3    H167418   2.617   1.955  12.061  0.4506  1.9116  0.6937
15309TIP3    H267419   2.732   1.913  12.149  0.5339 -0.7827 -0.6034
15310TIP3   OH267420   3.633   6.709   3.565  0.0093  0.5745 -0.6968
15310TIP3    H167421   3.725   6.692   3.588 -0.1166  1.2979  0.4310
15310TIP3    H267422   3.638   6.770   3.491  0.4756  1.9392  0.4145
15311TIP3   OH267423   1.470   3.500  16.878  0.3369 -0.3526 -0.4332
15311TIP3    H167424   1.419   3.561  16.824  0.1333  0.0381  0.1882
15311TIP3    H267425   1.420   3.419  16.877  0.9258 -0.7311 -1.7878
15312TIP3   OH267426   3.372   0.365  15.661  0.1951 -0.2307 -0.5978
15312TIP3    H167427   3.383   0.335  15.571 -2.6040 -0.0210 -1.0807
15312TIP3    H267428   3.279   0.382  15.670  0.1523 -1.4269  2.7384
15313TIP3   OH267429   3.848   1.116   2.385  0.0374  0.1075  0.1759
15313TIP3    H167430   3.907   1.166   2.327  1.0623 -0.7086  0.4997
15313TIP3    H267431   3.882   1.027   2.383 -0.5757 -0.1609  1.1875
15314TIP3   OH267432   5.622   2.222  14.723  0.3772 -0.0032 -0.5675
15314TIP3    H167433   5.607   2.129  14.708  1.3811 -0.4292  0.9080
15314TIP3    H267434   5.563   2.246  14.794  2.6112 -0.4280  1.5595
15315TIP3   OH267435   1.744   5.122  15.297 -0.2209  0.2001  0.1869
15315TIP3    H167436   1.827   5.102  15.341 -0.1454  0.6618  0.2549
15315TIP3    H267437   1.761   5.107  15.204 -0.5114 -1.2343  0.3457
15316TIP3   OH267438   5.509   0.509   6.151  0.1631 -0.2000  0.0663
15316TIP3    H167439   5.593   0.495   6.107  0.7259 -0.8226  1.2952
15316TIP3    H267440   5.518   0.594   6.194  0.0589 -0.1431 -0.0234
15317TIP3   OH267441   0.210   5.791  14.665 -0.6432  0.4336  0.3711
15317TIP3    H167442   0.205   5.875  14.621  0.7155  0.8730  1.0015
15317TIP3    H267443   0.201   5.811  14.758  1.4180  0.1486  0.6879
15318TIP3   OH267444   3.108   2.299  13.740 -0.1835 -1.0257 -0.1752
15318TIP3    H167445   3.048   2.252  13.682 -1.4713  1.6304 -1.1655
15318TIP3    H267446   3.103   2.390  13.711 -0.3375  0.3720  3.6279
15319TIP3   OH267447   5.778   1.123   3.141 -0.0348  0.1490  0.6800
15319TIP3    H167448   5.834   1.148   3.067 -0.2837  2.4306  1.1693
15319TIP3    H267449   5.818   1.044   3.176  0.5829 -0.5094 -1.3646
15320TIP3   OH267450   6.599   3.864   0.112  0.3059  0.8836  0.9031
15320TIP3    H167451   6.618   3.938   0.170  0.1427  0.6798  1.2195
15320TIP3    H267452   6.649   3.791   0.149  0.9470  0.9713  0.2487
15321TIP3   OH267453   0.134   5.159  14.954  0.0828  0.1418 -0.0588
15321TIP3    H167454   0.041   5.164  14.977  0.1126  1.1242 -0.1127
15321TIP3    H267455   0.134   5.143  14.859 -0.0222 -0.7016  0.0719
15322TIP3   OH267456   2.768   5.435  14.753 -0.3446  0.1748  0.0555
15322TIP3    H167457   2.775   5.465  14.662  0.4533 -0.6995 -0.1917
15322TIP3    H267458   2.833   5.486  14.800 -0.8021  0.6734  0.1556
15323TIP3   OH267459   6.707   1.746   0.895  0.3236  0.2961 -0.5169
15323TIP3    H167460   6.767   1.672   0.888  0.4276  0.2685  0.4890
15323TIP3    H267461   6.744   1.812   0.836 -0.9275 -1.1509 -3.0900
15324TIP3   OH267462   5.971   0.672   3.027 -0.4875 -0.0227 -0.2325
15324TIP3    H167463   6.050   0.630   2.991 -0.2708 -0.0073  0.2192
15324TIP3    H267464   5.903   0.654   2.962 -0.7181 -2.1612  0.4917
15325TIP3   OH267465   0.149   5.081   1.589 -0.1869  0.6071  0.9256
15325TIP3    H167466   0.237   5.114   1.572  0.6038 -0.4920  2.5409
15325TIP3    H267467   0.129   5.111   1.678 -1.7230  1.3495  0.3644
15326TIP3   OH267468   2.388   1.564   3.416 -0.3040 -0.3214  0.0771
15326TIP3    H167469   2.440   1.494   3.456 -1.2411 -0.1793  1.6019
15326TIP3    H267470   2.317   1.580   3.477 -1.1215  0.7631 -1.0920
15327TIP3   OH267471   4.901   6.316  14.019  0.3159  0.1447  0.2745
15327TIP3    H167472   4.871   6.251  14.082  0.9238  0.5083  0.9671
15327TIP3    H267473   4.959   6.268  13.960 -0.9672 -0.3942 -0.6014
15328TIP3   OH267474   5.661   5.837   5.053  0.0746 -0.0898  0.0864
15328TIP3    H167475   5.586   5.886   5.019  0.1822  1.0852  1.4534
15328TIP3    H267476   5.737   5.887   5.025  0.3325 -0.7733 -0.4872
15329TIP3   OH267477   2.862   4.796  15.996 -0.2948 -0.0075 -0.2408
15329TIP3    H167478   2.924   4.868  16.007 -1.8127  1.4768 -0.9537
15329TIP3    H267479   2.860   4.752  16.081  0.8786  0.6224  0.1258
15330TIP3   OH267480   5.647   5.009  14.043 -0.1712  0.5569 -0.6563
15330TIP3    H167481   5.635   4.914  14.035  2.3342 -0.0221  1.3139
15330TIP3    H267482   5.559   5.045  14.030 -1.4624 -2.1182 -0.0598
15331TIP3   OH267483   3.584   6.703  14.776 -0.6922  0.5694  0.2987
15331TIP3    H167484   3.497   6.664  14.768  0.2681 -1.3781 -1.7795
15331TIP3    H267485   3.574   6.791  14.741 -1.7492  0.2224 -0.3158
15332TIP3   OH267486   1.882   3.728   6.389 -0.3334 -0.4178  0.6827
15332TIP3    H167487   1.917   3.815   6.370  0.5318 -0.9919 -0.5183
15332TIP3    H267488   1.788   3.741   6.398 -0.3789  0.4529 -0.7748
15333TIP3   OH267489   4.681   3.542  14.308 -0.7214 -0.0160  0.1114
15333TIP3    H167490   4.619   3.565  14.378  0.4439  1.5190  0.6992
15333TIP3    H267491   4.758   3.596  14.326  0.4639 -1.2409 -1.1026
15334TIP3   OH267492   2.634   3.094   5.606  0.4593  0.6151  0.2491
15334TIP3    H167493   2.609   3.021   5.662  2.0868 -0.6932 -0.6316
15334TIP3    H267494   2.558   3.108   5.550  0.5465 -1.2722 -0.4075
15335TIP3   OH267495   4.515   1.241  14.166  0.3606 -0.0432 -0.1710
15335TIP3    H167496   4.551   1.325  14.139 -0.1111 -0.2174 -1.3977
15335TIP3    H267497   4.501   1.193  14.085 -0.4632 -0.8656  0.4317
15336TIP3   OH267498   4.008   4.269  14.590 -0.0226 -0.5543  0.3171
15336TIP3    H167499   4.053   4.295  14.671  3.4671  0.0735 -1.6155
15336TIP3    H267500   4.019   4.174  14.586  0.2386 -0.5275  0.3729
15337TIP3   OH267501   1.662   5.970   2.759  0.3070  0.5328 -0.3490
15337TIP3    H167502   1.659   5.880   2.726 -0.3685  0.7774 -0.9829
15337TIP3    H267503   1.628   6.022   2.687  2.3408  1.5032 -0.6829
15338TIP3   OH267504   4.805   1.891   3.818 -0.2667  0.1996 -0.0671
15338TIP3    H167505   4.841   1.979   3.824 -1.8020  0.7614  2.6080
15338TIP3    H267506   4.711   1.902   3.834 -0.6350 -1.8482 -0.5480
15339TIP3   OH267507   2.187   0.630  13.690 -0.9552 -0.2202  0.3319
15339TIP3    H167508   2.135   0.710  13.676 -0.7628  0.2537  2.0629
15339TIP3    H267509   2.278   0.659  13.678 -0.8446 -0.0036  1.5577
15340TIP3   OH267510   5.527   1.957  14.769 -0.2391  0.1357 -0.2322
15340TIP3    H167511   5.535   1.870  14.731  1.1975  0.2440 -0.2279
15340TIP3    H267512   5.433   1.975  14.768 -0.5955 -1.5250  0.0291
15341TIP3   OH267513   2.587   2.063   5.816  0.6627  0.3025  0.2736
15341TIP3    H167514   2.649   1.991   5.825  1.2171  0.4228 -2.0858
15341TIP3    H267515   2.504   2.020   5.794 -0.1835  0.1490  3.3225
15342TIP3   OH267516   3.755   6.445  14.375  0.6564  0.0133  0.6359
15342TIP3    H167517   3.708   6.362  14.374 -2.4250  1.5917 -0.7098
15342TIP3    H267518   3.831   6.430  14.431  0.0208 -3.5389  0.7342
15343TIP3   OH267519   6.257   5.205  11.144  0.0774 -0.3177 -0.2281
15343TIP3    H167520   6.202   5.139  11.102  0.8670 -0.5472 -0.9232
15343TIP3    H267521   6.291   5.258  11.073  1.3931 -0.6847  0.0992
15344TIP3   OH267522   1.015   0.083  12.460 -0.1474  0.0595 -0.0823
15344TIP3    H167523   1.020   0.175  12.434 -0.0493  0.3510  0.9358
15344TIP3    H267524   1.096   0.066  12.508  0.8321 -1.1639 -2.0303
15345TIP3   OH267525   3.942   4.983  13.028 -0.7668  0.0312  0.7709
15345TIP3    H167526   3.980   5.024  13.105 -0.1659  0.3884  0.2903
15345TIP3    H267527   4.017   4.951  12.978 -1.1785 -0.8458  0.6850
15346TIP3   OH267528   4.635   3.505  15.039  0.0169  0.2170  0.2938
15346TIP3    H167529   4.542   3.515  15.061 -0.2326 -0.7850 -0.2599
15346TIP3    H267530   4.635   3.445  14.964  0.9703  1.8895 -1.1202
15347TIP3   OH267531   1.685   6.561   3.159 -0.0432  0.4362  0.1524
15347TIP3    H167532   1.671   6.649   3.192  0.1632  0.8122 -0.7302
15347TIP3    H267533   1.689   6.571   3.064 -2.2133 -0.8237 -0.1391
15348TIP3   OH267534   5.556   2.020   2.279 -0.1137 -0.2251 -0.0270
15348TIP3    H167535   5.647   2.015   2.307  0.3421  2.9183 -0.5434
15348TIP3    H267536   5.520   2.093   2.331 -1.3815  0.7058 -2.0956
15349TIP3   OH267537   6.403   0.582   5.474  0.1773 -0.9903  0.2617
15349TIP3    H167538   6.373   0.652   5.532 -1.7491  0.1511 -1.9509
15349TIP3    H267539   6.492   0.609   5.449 -0.5819  0.8116 -0.6613
15350TIP3   OH267540   1.195   4.651  13.205  0.2012  0.0334 -0.1491
15350TIP3    H167541   1.135   4.577  13.199  1.7532 -1.3436  0.3737
15350TIP3    H267542   1.281   4.614  13.183  1.7563  0.6363  3.9962
15351TIP3   OH267543   5.713   6.629  16.283 -0.3765  0.2029 -0.3857
15351TIP3    H167544   5.766   6.696  16.325  0.2999  0.7019 -1.9515
15351TIP3    H267545   5.665   6.588  16.355 -0.9174  2.4391  0.6108
15352TIP3   OH267546   3.103   2.034  16.538  0.2551  0.2186  0.6883
15352TIP3    H167547   3.171   2.101  16.533  0.3858  0.1889  1.8582
15352TIP3    H267548   3.123   1.974  16.466  1.8043 -0.0912  1.3410
15353TIP3   OH267549   6.064   6.397  16.438 -0.0436 -0.7313 -0.0205
15353TIP3    H167550   6.104   6.438  16.515 -0.9620 -0.4291  0.3036
15353TIP3    H267551   6.071   6.464  16.369  1.4680 -1.2764 -0.4439
15354TIP3   OH267552   3.607   3.551   0.278  0.2198 -0.6004  0.3524
15354TIP3    H167553   3.665   3.485   0.318 -0.5264 -0.6059  1.4757
15354TIP3    H267554   3.528   3.548   0.331  0.2665  1.4020  0.5962
15355TIP3   OH267555   2.582   6.227  15.353  0.8232 -0.1013  0.3543
15355TIP3    H167556   2.610   6.163  15.419 -0.7926  0.6528  1.8380
15355TIP3    H267557   2.590   6.311  15.397 -0.7868  0.3742 -0.2202
15356TIP3   OH267558   1.075   6.056   5.854 -0.7496  0.2887 -0.1487
15356TIP3    H167559   1.112   5.969   5.843  1.0400  0.9411  0.4129
15356TIP3    H267560   1.025   6.051   5.935 -2.6650 -0.8164 -1.3240
15357TIP3   OH267561   5.435   5.189  15.938 -0.1109  0.0248  0.1648
15357TIP3    H167562   5.529   5.184  15.921 -0.2599 -1.0208 -0.4734
15357TIP3    H267563   5.402   5.250  15.872  0.0981  0.2933  0.3075
15358TIP3   OH267564   2.761   6.367   2.686 -0.6946  0.0422  0.3476
15358TIP3    H167565   2.707   6.438   2.719 -0.2169  0.4807  0.2011
15358TIP3    H267566   2.801   6.402   2.607  0.4534  0.0323  0.9001
15359TIP3   OH267567   2.701   6.518   5.120 -0.0301 -0.0583  0.4934
15359TIP3    H167568   2.629   6.580   5.104  0.8121  0.4249 -1.7833
15359TIP3    H267569   2.664   6.433   5.097 -0.2175  0.0524  0.3759
15360TIP3   OH267570   1.993   5.021  16.902  0.0948 -0.2213  0.1159
15360TIP3    H167571   1.897   5.027  16.906  0.2072  1.0885  1.5865
15360TIP3    H267572   2.024   5.073  16.976  1.9882  0.1417 -0.8623
15361TIP3   OH267573   1.500   0.158  12.079  0.3110 -0.4626  0.5019
15361TIP3    H167574   1.496   0.092  12.149 -0.3264 -0.1977  0.7258
15361TIP3    H267575   1.526   0.238  12.124 -0.2702 -0.2507  0.4784
15362TIP3   OH267576   3.158   2.343  16.949  0.7838  0.3475  0.1198
15362TIP3    H167577   3.137   2.384  17.033 -0.3180 -0.6031  0.3327
15362TIP3    H267578   3.098   2.384  16.887  1.7563  1.2159 -0.2605
15363TIP3   OH267579   5.258   0.347  16.737 -0.1782  0.4985  0.1607
15363TIP3    H167580   5.296   0.385  16.816 -0.8336 -1.8537  1.7061
15363TIP3    H267581   5.331   0.342  16.675  0.7681  0.8051  1.2225
15364TIP3   OH267582   5.077   4.858   4.630  0.0864  0.2909  0.1049
15364TIP3    H167583   5.020   4.899   4.695  0.8773  1.5806  0.0253
15364TIP3    H267584   5.154   4.830   4.679  1.5781  3.0158 -0.4662
15365TIP3   OH267585   4.786   3.988   4.192  0.1665  0.2305  0.3465
15365TIP3    H167586   4.756   3.908   4.149  3.3691 -1.0370  0.1760
15365TIP3    H267587   4.708   4.041   4.201 -1.5612 -1.5684 -2.4396
15366TIP3   OH267588   3.778   4.992   1.311  0.1672 -0.4276 -1.0120
15366TIP3    H167589   3.734   4.950   1.384 -0.7740  0.2197 -1.1933
15366TIP3    H267590   3.860   5.026   1.348  0.5850 -1.7058 -0.6955
15367TIP3   OH267591   3.410   5.968   6.110 -0.0285  0.2060 -0.6304
15367TIP3    H167592   3.368   5.885   6.128  0.2379 -0.1992 -1.8270
15367TIP3    H267593   3.484   5.946   6.054  0.0255  1.2508 -0.9903
15368TIP3   OH267594   6.005   6.020   0.606  0.4213  0.2702 -0.2888
15368TIP3    H167595   6.002   5.932   0.569 -2.4743  0.0854  0.1463
15368TIP3    H267596   6.023   6.077   0.531 -1.0771 -0.4523 -1.2404
15369TIP3   OH267597   2.141   1.355   3.484  0.1148 -0.5706  0.3900
15369TIP3    H167598   2.149   1.406   3.564  0.4500 -2.2904  1.5073
15369TIP3    H267599   2.066   1.394   3.438  1.0980  1.6587  0.5564
15370TIP3   OH267600   6.562   2.408  13.896  0.3008 -0.2967  0.0607
15370TIP3    H167601   6.652   2.393  13.927  0.2519  0.5641  0.6632
15370TIP3    H267602   6.567   2.491  13.847 -0.4479  0.6159  1.4548
15371TIP3   OH267603   6.825   3.341   0.427  0.0290 -0.4084  0.2447
15371TIP3    H167604   6.866   3.427   0.438 -0.5258  0.2604 -2.1673
15371TIP3    H267605   6.732   3.356   0.440  0.0755 -1.0160  1.4052
15372TIP3   OH267606   4.201   3.258  11.187 -0.4932  0.6667  0.0382
15372TIP3    H167607   4.245   3.243  11.103  0.1537  0.7069  0.3623
15372TIP3    H267608   4.225   3.348  11.210  0.0334  0.3788  0.6641
15373TIP3   OH267609   1.817   1.319   6.093 -0.1562 -0.9178  0.7193
15373TIP3    H167610   1.909   1.293   6.091  0.0743 -0.1658 -2.5231
15373TIP3    H267611   1.769   1.236   6.090  0.3793 -1.2954  2.0303
15374TIP3   OH267612   3.697   5.007  12.704  0.6989 -0.1679  0.1765
15374TIP3    H167613   3.613   5.010  12.750  1.2738  0.4085  1.2438
15374TIP3    H267614   3.739   5.091  12.725  0.5043  0.6620 -2.4099
15375TIP3   OH267615   0.026   5.000  10.182  0.0869  0.3407 -0.5659
15375TIP3    H167616  -0.069   4.989  10.174  0.2734 -2.2074 -0.0648
15375TIP3    H267617   0.036   5.070  10.247 -1.4010  1.5452 -1.5539
15376TIP3   OH267618   5.315   5.577  13.184 -0.5988 -0.1472 -0.0214
15376TIP3    H167619   5.221   5.585  13.168 -0.5012  1.4239 -0.0473
15376TIP3    H267620   5.350   5.662  13.155  0.5880 -0.0725  1.5650
15377TIP3   OH267621   4.148   2.010  12.345 -0.0911 -0.2420 -0.2371
15377TIP3    H167622   4.238   2.034  12.364 -0.4861  2.4899 -1.3291
15377TIP3    H267623   4.154   1.927  12.298  1.7730 -0.4511  0.3054
15378TIP3   OH267624   2.721   6.761   3.802  0.5997 -0.3687 -0.0719
15378TIP3    H167625   2.720   6.734   3.894  0.5725 -2.2620 -0.5727
15378TIP3    H267626   2.731   6.679   3.753 -2.3992  0.1775 -1.8899
15379TIP3   OH267627   3.977   4.838  11.153  0.0140 -0.0220  0.1526
15379TIP3    H167628   3.912   4.777  11.188 -0.0429  0.5491  1.0644
15379TIP3    H267629   3.970   4.829  11.058 -0.7640 -0.6225  0.2596
15380TIP3   OH267630   2.863   5.061  13.263  0.2428 -0.0377 -0.3237
15380TIP3    H167631   2.928   5.039  13.330 -0.1696 -1.7968 -0.4480
15380TIP3    H267632   2.902   5.033  13.181 -0.6303 -1.0567 -0.4074
15381TIP3   OH267633   0.529   1.817  11.876  0.2458  0.3908  0.2285
15381TIP3    H167634   0.586   1.742  11.893 -1.6857 -0.9817  0.9663
15381TIP3    H267635   0.445   1.779  11.852 -0.3121  2.3498 -1.2066
15382TIP3   OH267636   5.605   0.612  11.284 -0.0331  0.1032  0.3010
15382TIP3    H167637   5.612   0.652  11.198  2.0336 -0.8804 -0.0748
15382TIP3    H267638   5.581   0.521  11.266 -0.1868  0.0421  0.8043
15383TIP3   OH267639   6.113   2.895  14.888  0.5050  0.9701  0.7932
15383TIP3    H167640   6.193   2.941  14.863 -0.0847  0.8180 -1.6012
15383TIP3    H267641   6.051   2.964  14.910  0.1425  1.3124 -1.1447
15384TIP3   OH267642   3.797   0.570  12.816  0.1494  0.1476  0.0050
15384TIP3    H167643   3.834   0.656  12.797  0.5797  0.2888  1.3866
15384TIP3    H267644   3.828   0.514  12.745  0.7193  0.8988 -0.3469
15385TIP3   OH267645   5.957   5.811  14.664 -0.1768 -0.0381 -0.1978
15385TIP3    H167646   5.915   5.732  14.628  0.8540 -0.0142 -1.5421
15385TIP3    H267647   6.003   5.781  14.742 -1.0140 -0.4626  0.1414
15386TIP3   OH267648   0.202   1.439  14.847  0.4749 -0.1073  0.3165
15386TIP3    H167649   0.185   1.532  14.859 -1.5064 -0.2090 -1.2173
15386TIP3    H267650   0.282   1.436  14.795  2.3902  0.5723  3.0051
15387TIP3   OH267651   5.232   4.435   0.178 -0.2463  0.1018  0.5059
15387TIP3    H167652   5.250   4.358   0.232 -0.0814  1.0107  1.7914
15387TIP3    H267653   5.317   4.479   0.170 -0.7375  1.3187  1.6810
15388TIP3   OH267654   2.055   3.985  13.510  0.7481 -0.0293  0.5398
15388TIP3    H167655   1.979   3.988  13.568  0.5047 -0.2884  0.2360
15388TIP3    H267656   2.033   4.045  13.438  0.3868 -0.8852 -0.0783
15389TIP3   OH267657   2.710   4.466  15.595 -0.1089  0.0447 -0.3420
15389TIP3    H167658   2.716   4.530  15.666  1.5491 -1.1494  0.6591
15389TIP3    H267659   2.616   4.451  15.585 -0.6267  3.0843 -1.1104
15390TIP3   OH267660   6.630   1.027   5.890 -0.5161  0.4384  0.1478
15390TIP3    H167661   6.561   1.092   5.881 -0.6770  0.3375  0.6425
15390TIP3    H267662   6.590   0.945   5.862 -0.6190  0.3692  0.4899
15391TIP3   OH267663   6.333   1.287  12.180  0.0036  0.3101 -0.2834
15391TIP3    H167664   6.307   1.314  12.267 -0.4002 -1.0052  0.0237
15391TIP3    H267665   6.416   1.333  12.165  0.4379  0.0073  1.0736
15392TIP3   OH267666   3.223   6.562   5.716 -0.0652 -0.5745  0.0442
15392TIP3    H167667   3.240   6.539   5.808 -1.3141  0.6501  0.6369
15392TIP3    H267668   3.247   6.484   5.667  0.6908 -1.2465  1.4131
15393TIP3   OH267669   1.161   1.148  16.294 -0.3005 -0.0671  0.8556
15393TIP3    H167670   1.197   1.060  16.304 -1.0343 -0.4533  0.2228
15393TIP3    H267671   1.238   1.205  16.289  0.1639 -0.5837  1.9684
15394TIP3   OH267672   5.683   4.627   1.833 -0.1949 -0.1193  0.0135
15394TIP3    H167673   5.689   4.680   1.913 -2.5167  2.8537 -1.5397
15394TIP3    H267674   5.636   4.549   1.859 -0.7199  0.6858  1.6113
15395TIP3   OH267675   4.664   1.790  11.878  0.0700 -0.1077 -0.1535
15395TIP3    H167676   4.681   1.771  11.786  0.3832 -1.2383  0.1311
15395TIP3    H267677   4.569   1.800  11.883 -0.0126 -0.6959 -0.4821
15396TIP3   OH267678   0.301   4.628  16.936  0.2140 -0.3821  0.4380
15396TIP3    H167679   0.301   4.547  16.885 -0.4413 -0.1325  0.0285
15396TIP3    H267680   0.292   4.697  16.871 -2.2679 -0.1187  0.9428
15397TIP3   OH267681   6.754   4.246  15.577 -0.3792  0.2433 -0.2826
15397TIP3    H167682   6.770   4.319  15.517  0.0954 -0.1053 -0.5917
15397TIP3    H267683   6.841   4.211  15.595 -0.7169 -1.5241 -1.7738
15398TIP3   OH267684   1.717   1.245  14.232 -0.7097  0.8045 -0.2510
15398TIP3    H167685   1.713   1.210  14.321  0.9469 -0.6498 -0.6928
15398TIP3    H267686   1.801   1.291  14.227 -1.0359  1.3590 -0.9041
15399TIP3   OH267687   1.988   5.733  13.639  0.4519 -0.2832  0.2199
15399TIP3    H167688   2.064   5.675  13.641  0.4858 -0.2826 -0.6435
15399TIP3    H267689   1.979   5.765  13.729  0.5957 -1.4036  0.6385
15400TIP3   OH267690   3.318   2.405  10.916 -0.8276 -0.2530 -0.8028
15400TIP3    H167691   3.306   2.319  10.875 -0.6313 -0.3978 -0.5537
15400TIP3    H267692   3.388   2.446  10.865  0.8260 -1.2137  0.6134
15401TIP3   OH267693   6.523   1.748  13.284 -0.0315  0.1063  0.3461
15401TIP3    H167694   6.440   1.710  13.313  0.8091 -1.1883  1.1350
15401TIP3    H267695   6.520   1.838  13.318 -0.7814 -0.1543  1.0114
15402TIP3   OH267696   0.419   1.554  11.720 -0.1634 -0.8997 -0.4222
15402TIP3    H167697   0.344   1.507  11.686 -1.3762  0.1299  0.6945
15402TIP3    H267698   0.406   1.644  11.691 -0.1763 -0.4122  1.0184
15403TIP3   OH267699   5.369   5.072  14.902 -0.6356 -0.3721  0.1477
15403TIP3    H167700   5.324   5.075  14.817 -1.1478  0.1660  0.4236
15403TIP3    H267701   5.397   4.981  14.912  1.7462  0.0542 -1.7666
15404TIP3   OH267702   6.504   1.447  16.791  0.1854 -0.7690 -0.1680
15404TIP3    H167703   6.467   1.526  16.753  0.6818 -0.7975 -0.7221
15404TIP3    H267704   6.432   1.383  16.789 -0.8967  0.2573  2.2453
15405TIP3   OH267705   2.926   0.924   3.732  0.8332 -0.1561 -0.1372
15405TIP3    H167706   2.890   1.001   3.687 -0.1378 -1.0203 -0.8766
15405TIP3    H267707   2.988   0.887   3.669 -0.3319 -1.2191 -0.6800
15406TIP3   OH267708   6.267   2.237   1.864 -0.2680  0.0633  0.3479
15406TIP3    H167709   6.341   2.281   1.907 -0.5492  1.2925 -0.3911
15406TIP3    H267710   6.290   2.237   1.771 -0.7315 -0.4687  0.2299
15407TIP3   OH267711   0.388   5.586  10.912 -0.1941  0.1311 -0.1547
15407TIP3    H167712   0.309   5.582  10.858 -0.2859  3.4616 -0.4447
15407TIP3    H267713   0.455   5.622  10.854  0.5746  0.6993  1.0476
15408TIP3   OH267714   4.320   1.436   5.686 -0.3113 -0.0763  0.2140
15408TIP3    H167715   4.253   1.450   5.752 -0.0313 -0.6105  0.6154
15408TIP3    H267716   4.274   1.444   5.603 -1.0977 -1.4810  0.4929
15409TIP3   OH267717   3.824   1.047  13.636  0.6541 -0.6179 -0.2091
15409TIP3    H167718   3.832   1.010  13.548  1.6475 -0.1280 -0.3333
15409TIP3    H267719   3.913   1.047  13.670  0.4638  0.3897  0.3146
15410TIP3   OH267720   4.490   3.138   2.368  0.0458  0.0478 -0.0999
15410TIP3    H167721   4.569   3.193   2.364 -0.7783  1.2907  0.2585
15410TIP3    H267722   4.514   3.067   2.429  1.2845 -0.2900 -0.9391
15411TIP3   OH267723   3.168   4.326  11.621  0.2060 -0.7573  0.6850
15411TIP3    H167724   3.088   4.309  11.571 -1.6414  0.2615  3.1151
15411TIP3    H267725   3.238   4.291  11.566 -1.7097 -0.3013 -2.2631
15412TIP3   OH267726   0.931   4.882   4.890 -0.7645 -0.5083  0.4343
15412TIP3    H167727   1.014   4.873   4.938 -1.2383  0.1042  1.3896
15412TIP3    H267728   0.895   4.794   4.889  0.7313 -1.1691 -1.5819
15413TIP3   OH267729   3.446   3.834   1.345  0.4700 -0.1983  0.7577
15413TIP3    H167730   3.377   3.768   1.357  0.0770 -0.2676 -1.4493
15413TIP3    H267731   3.528   3.785   1.354  0.1817 -0.9437 -0.4102
15414TIP3   OH267732   5.763   3.788  14.283 -1.2427  0.3228  0.4267
15414TIP3    H167733   5.689   3.849  14.284 -1.8977 -0.4483  0.5047
15414TIP3    H267734   5.736   3.717  14.342 -2.0513 -1.7840 -2.2099
15415TIP3   OH267735   3.467   6.831  11.868  0.2760  0.0224  0.8396
15415TIP3    H167736   3.542   6.869  11.914 -0.9972 -0.2083  3.3051
15415TIP3    H267737   3.496   6.743  11.844  1.2885  0.4736  0.3583
15416TIP3   OH267738   0.298   5.411  13.452  0.4951 -0.4118  0.5458
15416TIP3    H167739   0.248   5.393  13.532 -2.0141 -0.0327 -0.8371
15416TIP3    H267740   0.363   5.476  13.479 -1.2120  0.7891  2.0193
15417TIP3   OH267741   4.420   1.069   3.483  0.6941 -0.7351 -0.1254
15417TIP3    H167742   4.424   1.064   3.388  1.1409  0.8282 -0.2001
15417TIP3    H267743   4.326   1.062   3.503  0.2241  2.0783 -0.9233
15418TIP3   OH267744   3.351   4.728  16.623  0.3372 -0.0634 -0.1823
15418TIP3    H167745   3.358   4.633  16.633 -1.5644 -0.1492  0.7653
15418TIP3    H267746   3.306   4.757  16.703  1.5822  1.7501 -0.0778
15419TIP3   OH267747   0.110   5.525  13.322  0.0352 -0.2115  0.2634
15419TIP3    H167748   0.197   5.494  13.345 -0.4547 -0.5045  1.8510
15419TIP3    H267749   0.125   5.596  13.259  1.3046 -1.6685 -1.1556
15420TIP3   OH267750   1.259   5.383   1.262  0.5843  0.5317  0.3922
15420TIP3    H167751   1.305   5.319   1.209  0.5075 -0.0785  1.0443
15420TIP3    H267752   1.230   5.334   1.339  0.7504  1.3979  1.0261
15421TIP3   OH267753   1.762   2.824  12.505 -0.0875  0.0651 -0.1284
15421TIP3    H167754   1.786   2.915  12.489  0.3678 -0.2150 -1.0782
15421TIP3    H267755   1.698   2.803  12.437  2.5014 -1.3893 -2.3251
15422TIP3   OH267756   2.107   6.325   4.643  0.4026  0.2123  0.5837
15422TIP3    H167757   2.193   6.366   4.639  0.2598  0.4197 -0.5199
15422TIP3    H267758   2.112   6.252   4.582 -0.0318 -0.1145  0.9307
15423TIP3   OH267759   6.799   2.278   2.078  0.1519  0.4892  0.4830
15423TIP3    H167760   6.867   2.226   2.120 -0.3891 -0.3565  0.3425
15423TIP3    H267761   6.808   2.261   1.985  0.7238  1.5969  0.3165
15424TIP3   OH267762   4.373   1.718  16.436  0.5718 -1.0265  0.4799
15424TIP3    H167763   4.397   1.768  16.514  1.4498 -0.6458 -0.0168
15424TIP3    H267764   4.417   1.633  16.448 -0.4225 -1.4804  1.0361
15425TIP3   OH267765   1.811   3.243  14.360  0.3619 -0.2507 -0.1952
15425TIP3    H167766   1.752   3.312  14.332  2.6101  1.2884 -1.4353
15425TIP3    H267767   1.778   3.163  14.318 -1.7228  0.1943  0.4941
15426TIP3   OH267768   1.318   1.703   5.872 -0.3097  0.3741 -0.3759
15426TIP3    H167769   1.327   1.657   5.789  0.3927 -0.7923  0.3123
15426TIP3    H267770   1.297   1.634   5.935  2.5278  0.6427  1.0301
15427TIP3   OH267771   0.159   5.535  12.400 -0.5688 -0.3125 -0.7204
15427TIP3    H167772   0.197   5.518  12.486 -0.4054 -0.1357 -0.7565
15427TIP3    H267773   0.188   5.624  12.379 -0.8559 -0.2444 -0.8256
15428TIP3   OH267774   4.623   2.881  14.666 -0.1534 -0.0126 -0.5209
15428TIP3    H167775   4.655   2.969  14.645 -0.0591 -0.0203 -0.4109
15428TIP3    H267776   4.639   2.830  14.586  1.2773 -0.3445 -0.0596
15429TIP3   OH267777   6.011   2.921   4.195 -0.3880  0.5684  0.2778
15429TIP3    H167778   6.081   2.877   4.146 -0.3986  1.3691 -0.4826
15429TIP3    H267779   5.935   2.918   4.136  0.8660  6.0804 -2.2498
15430TIP3   OH267780   3.135   0.347   2.497 -0.3902  0.0419 -0.1448
15430TIP3    H167781   3.224   0.311   2.494  0.0230  0.9936  0.2628
15430TIP3    H267782   3.083   0.286   2.444  0.0143 -1.8246  1.4547
15431TIP3   OH267783   4.451   0.504  11.723 -0.0112 -0.0552  0.4651
15431TIP3    H167784   4.489   0.572  11.667 -0.5889 -0.6960 -0.7352
15431TIP3    H267785   4.526   0.467  11.770  0.5718  0.0414 -0.3759
15432TIP3   OH267786   2.449   4.769  15.154 -0.6858 -0.5795  0.1079
15432TIP3    H167787   2.507   4.820  15.210 -0.7245  0.1405 -0.4973
15432TIP3    H267788   2.448   4.816  15.071 -4.2437  1.0164  0.8698
15433TIP3   OH267789   5.060   3.320  11.191  0.6807 -0.5383 -0.0614
15433TIP3    H167790   5.009   3.239  11.202  0.1005 -0.5493 -2.3645
15433TIP3    H267791   5.146   3.289  11.163  0.3415 -0.3833 -1.3302
15434TIP3   OH267792   3.260   2.760   3.996  0.1110 -0.1718 -0.2930
15434TIP3    H167793   3.269   2.665   3.996  0.8478 -0.1609  2.0368
15434TIP3    H267794   3.166   2.775   3.986  0.0933 -1.0786 -1.7876
15435TIP3   OH267795   5.556   4.312   5.000 -0.6932  0.8475  0.1938
15435TIP3    H167796   5.562   4.338   5.092 -1.3451 -0.4172  0.6180
15435TIP3    H267797   5.533   4.219   5.003  0.4739  0.4746 -1.2519
15436TIP3   OH267798   4.065   2.345   0.089  0.0672  0.1418 -0.0869
15436TIP3    H167799   4.068   2.421   0.147  1.5424 -0.6147  0.8883
15436TIP3    H267800   4.155   2.316   0.082 -0.2173 -0.4374 -1.9620
15437TIP3   OH267801   4.262   3.510  13.048 -0.0392  0.2748 -1.1590
15437TIP3    H167802   4.263   3.589  12.993 -0.8536  0.7835 -0.4648
15437TIP3    H267803   4.189   3.524  13.108 -0.2923 -1.0871 -1.1245
15438TIP3   OH267804   5.603   6.374  11.678  0.2713 -0.5335 -0.1635
15438TIP3    H167805   5.621   6.312  11.749 -0.8566 -2.8517 -1.7794
15438TIP3    H267806   5.517   6.410  11.700  1.3576  1.3402  1.3000
15439TIP3   OH267807   4.373   6.546  15.872  0.0531 -0.7767  0.2123
15439TIP3    H167808   4.377   6.508  15.959  1.6115 -1.4545 -0.1243
15439TIP3    H267809   4.289   6.593  15.870  0.6742  0.5878  2.5940
15440TIP3   OH267810   1.838   1.734  14.695  0.0694  0.4657  0.3163
15440TIP3    H167811   1.927   1.767  14.705  0.3892 -0.3477  0.2741
15440TIP3    H267812   1.801   1.735  14.783 -0.0349  1.2195  0.2672
15441TIP3   OH267813   5.791   4.825  13.558 -0.1219 -0.0559  0.5699
15441TIP3    H167814   5.723   4.839  13.492  0.2643 -1.2116 -0.1065
15441TIP3    H267815   5.780   4.733  13.585  1.8632 -0.6438 -0.4130
15442TIP3   OH267816   1.488   4.549   2.568 -0.3137 -0.1679 -0.0701
15442TIP3    H167817   1.506   4.489   2.640  0.2747  1.9389  1.6624
15442TIP3    H267818   1.542   4.518   2.496  1.5979 -0.5350  1.4409
15443TIP3   OH267819   5.394   4.844  16.402  0.5585 -0.2649 -0.3548
15443TIP3    H167820   5.340   4.904  16.349 -1.7235 -2.7765 -1.1002
15443TIP3    H267821   5.475   4.834  16.352 -0.1812  0.0168 -1.6641
15444TIP3   OH267822   0.038   4.487   0.184  0.0552 -0.3811 -0.8069
15444TIP3    H167823   0.078   4.414   0.229  1.3731  0.3854 -0.6834
15444TIP3    H267824   0.112   4.541   0.155 -0.8794  1.0434 -0.6415
15445TIP3   OH267825   0.078   0.545   4.840 -0.3166 -0.1586  0.3290
15445TIP3    H167826  -0.008   0.568   4.874 -1.2094 -1.5675 -0.8076
15445TIP3    H267827   0.094   0.456   4.873  0.2736 -0.2698 -0.2208
15446TIP3   OH267828   6.803   2.501  14.567 -0.0503  0.0973  0.2726
15446TIP3    H167829   6.817   2.415  14.606 -1.2509 -0.3044 -0.1563
15446TIP3    H267830   6.729   2.538  14.616  0.7179  1.0776  0.7414
15447TIP3   OH267831   0.299   6.144  15.530 -0.5090  0.6074 -0.5148
15447TIP3    H167832   0.361   6.181  15.467 -0.0698  0.4999 -0.1527
15447TIP3    H267833   0.270   6.062  15.491 -0.4219  0.6588 -0.6877
15448TIP3   OH267834   0.960   3.290  11.508 -0.3540 -0.0760  0.2801
15448TIP3    H167835   0.990   3.240  11.583 -1.7679 -0.4234  0.6389
15448TIP3    H267836   0.902   3.230  11.461 -0.3613  0.5128 -0.4772
15449TIP3   OH267837   1.858   4.903  14.157 -0.0827 -0.3585  0.2126
15449TIP3    H167838   1.950   4.913  14.182  0.6238 -1.5020 -1.6957
15449TIP3    H267839   1.821   4.991  14.166  1.7060  0.5515 -0.8127
15450TIP3   OH267840   1.659   1.287  13.465  0.3608 -0.2494 -0.1766
15450TIP3    H167841   1.708   1.355  13.420  2.7041 -1.2813  0.6732
15450TIP3    H267842   1.710   1.207  13.452 -1.0865 -1.3858  0.7820
15451TIP3   OH267843   1.149   0.318  15.547 -0.1891  0.1023  0.7399
15451TIP3    H167844   1.232   0.278  15.518 -1.0993 -1.2296 -0.1952
15451TIP3    H267845   1.125   0.377  15.475 -1.3204 -1.4965 -0.2576
15452TIP3   OH267846   3.836   4.211   1.866 -0.0957  0.0838 -0.0660
15452TIP3    H167847   3.748   4.210   1.828  0.0661  1.3104 -0.5287
15452TIP3    H267848   3.824   4.182   1.956 -0.8092 -0.8400 -0.4481
15453TIP3   OH267849   4.824   5.180  12.973  0.4415 -0.4742 -0.1553
15453TIP3    H167850   4.872   5.123  13.032 -0.8925 -1.9873 -0.4535
15453TIP3    H267851   4.732   5.160  12.990 -0.0021 -0.1314 -1.9355
15454TIP3   OH267852   5.276   2.109   1.317 -0.9341  0.6821 -0.0592
15454TIP3    H167853   5.263   2.136   1.408 -0.7390  0.7040 -0.0361
15454TIP3    H267854   5.336   2.174   1.281  0.5074 -0.3583  0.3410
15455TIP3   OH267855   2.136   2.844   2.574  0.2971 -0.3361 -0.2375
15455TIP3    H167856   2.195   2.901   2.626 -0.8529  0.8713 -0.2012
15455TIP3    H267857   2.052   2.890   2.576 -0.7102 -2.1206 -0.1353
15456TIP3   OH267858   1.631   6.301   6.442  0.8436  0.1978  0.0100
15456TIP3    H167859   1.724   6.305   6.465  0.5827 -0.0220  1.1813
15456TIP3    H267860   1.586   6.322   6.524 -0.1391  0.1336 -0.5079
15457TIP3   OH267861   4.624   2.676  13.354  0.5024 -0.3034 -0.2365
15457TIP3    H167862   4.691   2.640  13.412 -0.8496 -1.6316  0.5481
15457TIP3    H267863   4.547   2.687  13.409 -1.0055 -2.1481 -1.8218
15458TIP3   OH267864   4.239   1.850  13.400  0.3269 -0.0930  0.2284
15458TIP3    H167865   4.155   1.805  13.398  0.4653 -0.4640  1.6153
15458TIP3    H267866   4.222   1.936  13.362  0.0039 -1.1599 -2.2698
15459TIP3   OH267867   3.123   2.278   4.350 -0.5304  0.1596 -0.1059
15459TIP3    H167868   3.037   2.316   4.330 -1.0293 -1.0025 -0.2406
15459TIP3    H267869   3.131   2.205   4.289  0.9125  0.7317 -0.6359
15460TIP3   OH267870   0.951   2.052  16.382  0.2151  1.1772 -0.2307
15460TIP3    H167871   0.878   2.083  16.435 -2.1121 -1.9414 -1.3317
15460TIP3    H267872   0.949   2.109  16.304  0.4090  2.5108  0.7108
15461TIP3   OH267873   1.222   5.816  12.129  0.2525 -0.2005 -0.4560
15461TIP3    H167874   1.295   5.824  12.191  0.2360 -0.0219 -0.4580
15461TIP3    H267875   1.165   5.750  12.167 -1.9328  2.7742  1.9439
15462TIP3   OH267876   5.872   1.370  14.204  0.0199  0.2641  0.5237
15462TIP3    H167877   5.846   1.413  14.123  2.4267  1.4600  0.2752
15462TIP3    H267878   5.823   1.417  14.272 -2.3541 -1.0386 -0.1719
15463TIP3   OH267879   0.421   1.187  11.629  0.3830 -0.0574  0.0978
15463TIP3    H167880   0.433   1.230  11.713 -0.9048 -0.7452  0.6683
15463TIP3    H267881   0.326   1.186  11.616  0.5929  0.9236 -1.8479
15464TIP3   OH267882   5.531   0.884  11.381  0.6758 -0.2181  0.0440
15464TIP3    H167883   5.573   0.943  11.318  0.1351 -1.0921 -1.1758
15464TIP3    H267884   5.484   0.820  11.327 -2.0131  0.5316  1.3390
15465TIP3   OH267885   1.469   2.023  14.264  0.2822  0.0591  0.3093
15465TIP3    H167886   1.526   1.958  14.306  0.2513 -0.1381  0.0519
15465TIP3    H267887   1.393   2.029  14.322  0.0461 -0.5278  0.0698
15466TIP3   OH267888   5.208   5.563  11.961  0.3075  0.4291 -0.1308
15466TIP3    H167889   5.154   5.609  11.897 -2.2427 -1.5129  0.4556
15466TIP3    H267890   5.228   5.479  11.920  1.8620  0.6230  0.1765
15467TIP3   OH267891   4.456   5.477   3.582 -0.1526 -0.4051  0.1269
15467TIP3    H167892   4.445   5.407   3.646 -2.7449 -1.6805 -1.5287
15467TIP3    H267893   4.415   5.553   3.622 -2.3211 -1.3544 -0.1399
15468TIP3   OH267894   0.146   0.670   5.188 -0.2983 -0.1669  0.0533
15468TIP3    H167895   0.133   0.713   5.272  0.0776 -0.4252  0.2493
15468TIP3    H267896   0.196   0.733   5.136 -3.3952  1.4219 -1.2052
15469TIP3   OH267897   0.335   5.569  11.717  0.4088  0.2855 -0.2532
15469TIP3    H167898   0.339   5.498  11.653 -0.2441  0.1574 -0.1649
15469TIP3    H267899   0.425   5.580  11.747  0.5476 -0.3724 -0.4107
15470TIP3   OH267900   3.653   3.806  11.174  0.1593 -0.4467  1.0677
15470TIP3    H167901   3.608   3.784  11.092  0.7373 -0.1003  0.6553
15470TIP3    H267902   3.738   3.840  11.147  0.2166  0.0123  1.8020
15471TIP3   OH267903   0.200   5.815  10.459  0.2828 -0.1991  0.1908
15471TIP3    H167904   0.201   5.720  10.447 -0.3868 -0.2048  0.1541
15471TIP3    H267905   0.108   5.837  10.473  0.3072  0.5540 -0.6711
15472TIP3   OH267906   4.571   6.348  16.861 -0.3769 -0.0991 -0.1404
15472TIP3    H167907   4.595   6.356  16.954 -0.5287 -1.0574 -0.0085
15472TIP3    H267908   4.529   6.262  16.855  0.5686 -0.4900 -1.3144
15473TIP3   OH267909   2.199   1.455   1.645  0.3011 -0.3923  0.2664
15473TIP3    H167910   2.148   1.468   1.724  0.0244  0.5013 -0.0509
15473TIP3    H267911   2.281   1.415   1.675  0.0154 -0.4761  0.9399
15474TIP3   OH267912   1.913   5.548   2.765  0.1156 -0.5736  0.0382
15474TIP3    H167913   1.937   5.584   2.680 -0.4093  0.3755  0.2722
15474TIP3    H267914   1.948   5.611   2.828 -0.9991 -0.3591  0.4564
15475TIP3   OH267915   1.096   3.456  15.127 -0.1734  0.4415 -0.2053
15475TIP3    H167916   1.085   3.365  15.101 -2.5236  1.0774 -1.7990
15475TIP3    H267917   1.163   3.490  15.068  0.8894 -0.2687  0.5573
15476TIP3   OH267918   4.408   0.436   5.501 -0.0399  0.2483 -0.5072
15476TIP3    H167919   4.450   0.352   5.520  1.3056  0.7651 -1.0454
15476TIP3    H267920   4.317   0.414   5.481 -0.0555 -0.9229  0.6861
15477TIP3   OH267921   5.833   0.480  17.021  0.2081 -0.0588 -0.0519
15477TIP3    H167922   5.750   0.503  17.062  0.7343  1.6698  0.1022
15477TIP3    H267923   5.858   0.398  17.064 -0.3181  0.5721  1.5362
15478TIP3   OH267924   1.037   3.580  16.090 -0.0758 -0.3495 -0.4015
15478TIP3    H167925   1.067   3.578  15.999 -2.2258 -0.4520 -1.1665
15478TIP3    H267926   0.998   3.667  16.100  0.3987 -0.2370  0.5298
15479TIP3   OH267927   0.948   1.594   2.628  0.1280  0.5752  0.0140
15479TIP3    H167928   0.988   1.512   2.656 -2.0382 -1.1760 -1.6158
15479TIP3    H267929   0.929   1.581   2.535 -2.8393  1.7395  0.3194
15480TIP3   OH267930   3.800   0.589   3.003 -0.8133 -0.0964 -0.3500
15480TIP3    H167931   3.827   0.664   2.950  1.5754 -0.5797  0.0563
15480TIP3    H267932   3.873   0.575   3.064 -0.9462 -3.0362 -0.7074
15481TIP3   OH267933   4.179   3.525  15.850  0.6029  0.4317 -0.7611
15481TIP3    H167934   4.140   3.511  15.763  0.3991 -1.9883 -0.3473
15481TIP3    H267935   4.142   3.608  15.879 -1.2384  0.1216 -2.0056
15482TIP3   OH267936   5.999   3.593  13.887  0.1113  0.5194  0.5915
15482TIP3    H167937   6.014   3.685  13.910  0.2881  0.6440 -0.0096
15482TIP3    H267938   5.908   3.577  13.913  0.1733  0.7754  0.9836
15483TIP3   OH267939   4.562   1.863   3.579  0.2267  0.2895 -0.6106
15483TIP3    H167940   4.646   1.869   3.533  1.1847 -0.3299  0.9888
15483TIP3    H267941   4.507   1.811   3.520  1.6620 -1.1437 -0.7645
15484TIP3   OH267942   0.980   0.967   3.762  0.4675 -0.3651 -0.6760
15484TIP3    H167943   1.056   0.911   3.746  0.5177 -0.5095  0.0500
15484TIP3    H267944   0.910   0.907   3.786  0.9183 -0.0681  1.6472
15485TIP3   OH267945   5.684   2.703   2.732  0.5992 -0.2570  0.3168
15485TIP3    H167946   5.741   2.626   2.742  0.2469 -0.3658  1.5737
15485TIP3    H267947   5.661   2.728   2.821  1.9948  2.3002  0.0524
15486TIP3   OH267948   3.393   3.013   6.071 -0.1633  0.3305 -0.5675
15486TIP3    H167949   3.399   3.065   6.152  2.2485  1.5269 -1.3909
15486TIP3    H267950   3.482   2.980   6.058 -1.5524 -4.3317 -0.0502
15487TIP3   OH267951   0.914   0.093  16.816 -0.0132 -0.0772  0.0354
15487TIP3    H167952   0.821   0.073  16.802  0.5903 -3.6651  0.3053
15487TIP3    H267953   0.931   0.067  16.907  1.3136  0.4279 -0.0429
15488TIP3   OH267954   1.470   5.334   4.828  0.1349  0.6838 -0.7591
15488TIP3    H167955   1.491   5.305   4.740 -0.1407  1.7062 -1.1830
15488TIP3    H267956   1.376   5.317   4.838  0.7241 -2.3987  0.5469
15489TIP3   OH267957   1.368   4.423  14.896  0.0807  0.2933  0.8124
15489TIP3    H167958   1.393   4.494  14.836  1.3248 -1.1849 -0.4884
15489TIP3    H267959   1.276   4.406  14.876 -0.4393  1.9267  1.5967
15490TIP3   OH267960   6.283   3.612  11.170  0.2045 -0.5650  0.0045
15490TIP3    H167961   6.361   3.645  11.216  0.8899 -0.4173 -1.2249
15490TIP3    H267962   6.223   3.588  11.240 -0.5602  3.6645  1.0483
15491TIP3   OH267963   5.765   4.982   3.968  0.0770  0.1585 -0.2712
15491TIP3    H167964   5.761   4.906   3.910  1.3009 -0.1546  0.0193
15491TIP3    H267965   5.843   5.030   3.940 -0.3300  0.9868 -0.0440
15492TIP3   OH267966   0.874   0.872   2.675 -0.1738 -0.3017  0.1421
15492TIP3    H167967   0.912   0.870   2.762  0.3063  0.6784 -0.0369
15492TIP3    H267968   0.943   0.837   2.618 -0.0657  0.1142  0.0122
15493TIP3   OH267969   5.088   0.092  14.782 -0.5981  0.0983 -0.2598
15493TIP3    H167970   5.076   0.135  14.697  1.2789 -0.5841 -0.9304
15493TIP3    H267971   5.132   0.159  14.836  0.3911 -0.2308 -0.6271
15494TIP3   OH267972   4.330   4.129  15.667  0.0113 -0.0903  0.0980
15494TIP3    H167973   4.243   4.160  15.690  0.2562  0.2461  0.5974
15494TIP3    H267974   4.376   4.121  15.751  0.3134 -0.7253 -0.1153
15495TIP3   OH267975   5.837   2.512   0.163 -0.1863 -0.3878  0.0832
15495TIP3    H167976   5.902   2.465   0.112 -0.8650 -1.4897  0.2068
15495TIP3    H267977   5.886   2.552   0.235  0.5182 -0.2161 -0.4871
15496TIP3   OH267978   2.283   4.912  12.719 -1.1250  0.2283 -0.2887
15496TIP3    H167979   2.207   4.914  12.776 -1.3358 -0.2801 -0.5467
15496TIP3    H267980   2.284   4.824  12.683 -1.2570  0.6689 -1.4205
15497TIP3   OH267981   1.068   5.721   6.723  0.2601 -0.3562  0.3104
15497TIP3    H167982   1.012   5.681   6.656  1.0769 -1.9844  0.5431
15497TIP3    H267983   1.155   5.684   6.706  1.0117  1.1521  0.7360
15498TIP3   OH267984   2.909   5.827  15.481 -0.4497 -0.6318 -0.5235
15498TIP3    H167985   3.003   5.835  15.492 -0.2073 -2.2796 -1.1489
15498TIP3    H267986   2.892   5.733  15.485 -2.1961 -0.3241  0.5080
15499TIP3   OH267987   1.947   4.890  16.374 -0.1179  0.3794 -0.3368
15499TIP3    H167988   1.970   4.807  16.416 -1.4034  1.1685  2.0995
15499TIP3    H267989   2.016   4.904  16.309  0.2005 -2.4975 -0.7639
15500TIP3   OH267990   6.149   5.943  10.429  0.2391 -0.6126 -0.0940
15500TIP3    H167991   6.093   5.994  10.488 -1.0183 -0.2184 -1.5621
15500TIP3    H267992   6.218   6.004  10.404 -0.1177 -0.2706 -0.2619
15501TIP3   OH267993   1.059   2.513   6.206 -0.1911 -0.6128 -0.0074
15501TIP3    H167994   1.150   2.484   6.203  0.9597  2.6388 -0.3150
15501TIP3    H267995   1.018   2.469   6.132  1.1164 -2.0765  0.0802
15502TIP3   OH267996   6.043   4.771  12.087  0.1542 -0.2890 -0.0033
15502TIP3    H167997   5.956   4.806  12.067  0.2714 -0.3457 -0.6370
15502TIP3    H267998   6.026   4.689  12.134 -0.2225 -2.0646 -3.0188
15503TIP3   OH267999   6.469   2.652  14.255  0.2080  0.6000  0.5893
15503TIP3    H168000   6.374   2.663  14.261 -0.1324 -1.1033 -0.7185
15503TIP3    H268001   6.504   2.741  14.259 -1.3872  1.2294  1.6044
15504TIP3   OH268002   1.012   6.795   2.657  0.2452 -0.2424  0.5233
15504TIP3    H168003   1.042   6.843   2.734 -0.4601 -1.2937  1.4752
15504TIP3    H268004   0.943   6.738   2.689 -1.1304  0.3766 -1.1603
15505TIP3   OH268005   6.730   5.009  13.393 -0.1472 -0.0357 -0.0222
15505TIP3    H168006   6.768   4.921  13.398 -1.6729 -0.6787  1.4160
15505TIP3    H268007   6.797   5.061  13.349  0.8516 -1.8786 -0.8265
15506TIP3   OH268008   1.271   4.457   0.178  0.8547 -0.3450 -0.2466
15506TIP3    H168009   1.250   4.370   0.145  1.5227  0.2614 -2.4066
15506TIP3    H268010   1.187   4.494   0.205  0.4291 -1.2464 -0.3096
15507TIP3   OH268011   2.718   0.491   5.505  0.3899 -0.1146 -0.4330
15507TIP3    H168012   2.665   0.564   5.535  2.1452  0.9864  0.1468
15507TIP3    H268013   2.655   0.423   5.480 -1.3106  1.7349 -1.3992
15508TIP3   OH268014   1.123   2.583   0.567 -0.2725  0.2017 -0.0195
15508TIP3    H168015   1.052   2.625   0.615 -0.9159 -1.6599  0.7595
15508TIP3    H268016   1.086   2.500   0.538  1.3037 -0.3869 -0.4216
15509TIP3   OH268017   0.963   5.180  12.422 -0.1247 -0.5147  0.2075
15509TIP3    H168018   1.020   5.201  12.349 -0.6045  3.2996  0.7421
15509TIP3    H268019   0.876   5.209  12.395 -0.7958 -1.3137  1.3886
15510TIP3   OH268020   3.391   5.458   5.780  0.1431  0.5149  0.6965
15510TIP3    H168021   3.315   5.418   5.823  1.2597 -0.4090  1.8785
15510TIP3    H268022   3.362   5.473   5.690 -1.6859  0.9024  1.3019
15511TIP3   OH268023   6.330   3.156   4.413  0.1337 -0.1739 -0.4585
15511TIP3    H168024   6.269   3.088   4.443 -0.7462  0.8488  0.1476
15511TIP3    H268025   6.372   3.117   4.336 -0.7052 -1.2201 -0.4251
15512TIP3   OH268026   0.155   1.615   4.708  0.3305  0.0479  0.1482
15512TIP3    H168027   0.089   1.655   4.764  2.4622  0.7060  2.3628
15512TIP3    H268028   0.119   1.622   4.619 -1.6184  2.2872  1.0146
15513TIP3   OH268029   5.221   1.036   1.697 -0.1171 -0.2984 -0.6498
15513TIP3    H168030   5.166   1.113   1.681 -0.1718 -0.1286  0.2805
15513TIP3    H268031   5.288   1.067   1.759  1.4293 -0.3254 -2.2370
15514TIP3   OH268032   1.855   4.105   3.557  0.8846 -0.1474  0.1643
15514TIP3    H168033   1.781   4.130   3.501  1.4126  0.9235 -0.0637
15514TIP3    H268034   1.911   4.052   3.501  0.5350 -0.5706  0.2053
15515TIP3   OH268035   3.167   6.521  15.958  0.3967 -0.7712 -0.0783
15515TIP3    H168036   3.181   6.598  16.013 -0.1632 -1.7137  1.4610
15515TIP3    H268037   3.179   6.447  16.017  3.8250 -2.0625 -2.1417
15516TIP3   OH268038   2.926   3.730   6.976 -0.4859  0.0501 -0.2474
15516TIP3    H168039   2.979   3.666   7.023  0.3799  0.3709 -0.7662
15516TIP3    H268040   2.867   3.678   6.922  0.9051 -0.3539 -1.4549
15517TIP3   OH268041   3.279   0.333   5.290 -0.0224  0.2519  0.0970
15517TIP3    H168042   3.237   0.248   5.277  0.5730  0.1686 -1.4709
15517TIP3    H268043   3.206   0.395   5.290 -0.2467  0.2286 -3.6105
15518TIP3   OH268044   4.513   3.805   4.100  0.0604 -0.0002  0.1923
15518TIP3    H168045   4.493   3.806   4.194  1.4339 -0.0237  0.5069
15518TIP3    H268046   4.428   3.793   4.057 -0.3693 -2.3402  1.5262
15519TIP3   OH268047   4.286   1.459   2.281  0.3042 -0.0097 -0.2956
15519TIP3    H168048   4.265   1.418   2.197  1.1461  1.3074 -1.1751
15519TIP3    H268049   4.311   1.548   2.259  0.1506  0.4927  1.4095
15520TIP3   OH268050   5.567   2.593   0.659  0.3043  0.1349 -0.4157
15520TIP3    H168051   5.588   2.517   0.606  1.2764 -0.4377  0.7358
15520TIP3    H268052   5.523   2.558   0.736  0.0810  0.8146 -0.2225
15521TIP3   OH268053   6.692   2.929  13.080 -0.0478 -0.0525 -0.1977
15521TIP3    H168054   6.779   2.894  13.060 -0.5073 -1.0188 -0.5780
15521TIP3    H268055   6.684   2.920  13.175 -0.2041 -1.1404 -0.3001
15522TIP3   OH268056   1.958   4.921   4.493  0.4511  0.2074  0.0642
15522TIP3    H168057   1.929   4.835   4.464 -0.5709  1.2303 -2.2468
15522TIP3    H268058   1.878   4.972   4.502  1.1116  1.3206 -0.0887
15523TIP3   OH268059   5.469   1.444  11.312  0.0732 -0.1556  0.4896
15523TIP3    H168060   5.502   1.397  11.389 -0.9392 -0.1505  0.9388
15523TIP3    H268061   5.463   1.535  11.340  0.6100  0.0047  0.0932
15524TIP3   OH268062   1.460   4.718   5.971  0.3056 -0.1518 -0.2784
15524TIP3    H168063   1.514   4.664   6.029  0.7364  0.6237  0.0547
15524TIP3    H268064   1.390   4.751   6.027  0.6831  0.5420 -0.1952
15525TIP3   OH268065   2.897   5.115   1.274  0.0006 -0.2683 -0.3147
15525TIP3    H168066   2.927   5.126   1.364 -1.0152  4.6307 -0.2805
15525TIP3    H268067   2.975   5.129   1.220  0.1080 -0.3462 -0.1786
15526TIP3   OH268068   5.425   5.052   0.513 -0.0912  0.0161 -0.1423
15526TIP3    H168069   5.474   5.054   0.431  1.2981  0.0066  0.6678
15526TIP3    H268070   5.364   5.125   0.506  0.5976  0.5368 -0.8306
15527TIP3   OH268071   2.396   5.326  11.285  0.6527  0.4208 -0.6475
15527TIP3    H168072   2.426   5.266  11.216 -0.2666  0.1944 -0.8577
15527TIP3    H268073   2.319   5.283  11.322 -0.0469  1.4885 -0.8352
15528TIP3   OH268074   4.643   0.138  15.525  0.1945  0.1739 -0.4146
15528TIP3    H168075   4.610   0.101  15.443  0.2683  1.2061 -0.9154
15528TIP3    H268076   4.720   0.187  15.500  1.8174 -1.6738  0.6596
15529TIP3   OH268077   5.603   3.187   4.229  0.0304 -0.5341 -0.3545
15529TIP3    H168078   5.636   3.233   4.151  0.7243  0.1184  0.3060
15529TIP3    H268079   5.660   3.217   4.300 -1.5575  0.1037  0.7081
15530TIP3   OH268080   4.362   4.839   1.333 -0.4880  0.0659  0.5929
15530TIP3    H168081   4.416   4.829   1.254 -1.1537  1.2889 -0.0409
15530TIP3    H268082   4.425   4.860   1.402 -0.2073  3.7240 -0.5581
15531TIP3   OH268083   6.354   4.444   0.191  0.2174 -0.4696  0.7125
15531TIP3    H168084   6.448   4.435   0.204  0.1908 -1.6246  0.2103
15531TIP3    H268085   6.334   4.388   0.116 -0.5009  1.6263 -0.7632
15532TIP3   OH268086   3.395   6.275   0.486 -0.3445  0.2435 -0.4349
15532TIP3    H168087   3.443   6.192   0.483 -0.9634 -0.0986 -1.3635
15532TIP3    H268088   3.435   6.329   0.418 -0.0064  0.6789  0.1034
15533TIP3   OH268089   0.186   3.153  11.848  0.3692 -0.0405 -0.0454
15533TIP3    H168090   0.269   3.174  11.804  0.0210  0.1762 -0.6096
15533TIP3    H268091   0.181   3.058  11.845  0.6432 -0.0619  0.0859
15534TIP3   OH268092   3.054   4.317   3.191  0.1700  0.3855  0.1817
15534TIP3    H168093   3.041   4.234   3.236  1.1994 -0.3815 -0.8344
15534TIP3    H268094   2.967   4.355   3.183 -0.5482 -1.3377 -0.6640
15535TIP3   OH268095   0.631   2.495  15.138 -0.3500  0.2194  0.1034
15535TIP3    H168096   0.630   2.460  15.227 -0.3112  0.3228  0.1446
15535TIP3    H268097   0.581   2.576  15.144  1.7384  1.5496  0.5815
15536TIP3   OH268098   0.134   1.952   3.294  0.1473  0.1199  0.5953
15536TIP3    H168099   0.190   1.881   3.263  1.7438  1.0093  1.2897
15536TIP3    H268100   0.083   1.978   3.218  1.0159 -0.4329 -0.1936
15537TIP3   OH268101   0.205   4.835  12.591 -0.0242  0.3876  0.6892
15537TIP3    H168102   0.170   4.827  12.502  0.2966  0.0541  0.5880
15537TIP3    H268103   0.236   4.925  12.597  0.7016  0.1877  0.1754
15538TIP3   OH268104   6.246   1.873  13.533  0.1598  0.0331 -0.3584
15538TIP3    H168105   6.306   1.893  13.605 -1.7286  0.4481  1.2153
15538TIP3    H268106   6.280   1.792  13.495  0.0039 -1.5431  2.5463
15539TIP3   OH268107   1.856   1.986   6.144 -0.3400 -0.1758  0.3804
15539TIP3    H168108   1.822   1.994   6.055  2.0418 -0.1846 -0.6005
15539TIP3    H268109   1.806   2.050   6.195 -0.8797  0.7454 -1.2278
15540TIP3   OH268110   6.303   0.377   6.121  0.3577 -0.2779 -0.1697
15540TIP3    H168111   6.239   0.441   6.151 -0.5609 -0.9618 -0.5912
15540TIP3    H268112   6.319   0.321   6.197 -0.0597 -0.4973 -0.2362
15541TIP3   OH268113   0.691   3.776  11.738 -0.6059 -0.3077  0.2280
15541TIP3    H168114   0.703   3.682  11.724 -3.0279 -0.5038 -1.0564
15541TIP3    H268115   0.770   3.804  11.785  1.6719 -2.3541 -2.0904
15542TIP3   OH268116   6.192   0.782   3.391  0.1298 -0.2704  0.1024
15542TIP3    H168117   6.220   0.694   3.368  0.1064  0.0368 -1.1409
15542TIP3    H268118   6.209   0.835   3.313  0.6413  0.9463  0.9893
15543TIP3   OH268119   4.590   3.029  11.052 -0.3145  0.2097  0.0511
15543TIP3    H168120   4.509   2.979  11.040 -0.1942 -0.1081  0.5148
15543TIP3    H268121   4.592   3.048  11.146 -0.4295  1.2184 -0.1416
15544TIP3   OH268122   6.237   5.877  15.983 -0.3263 -0.3544 -0.4947
15544TIP3    H168123   6.161   5.906  15.932 -0.6610  0.0383  0.2088
15544TIP3    H268124   6.219   5.785  16.003 -1.5394  0.2096  1.2429
15545TIP3   OH268125   1.722   0.135   3.444  0.4767  0.0585  0.0759
15545TIP3    H168126   1.762   0.214   3.480  0.0501  0.7693 -0.9535
15545TIP3    H268127   1.792   0.070   3.447  0.8166  0.4468  0.9892
15546TIP3   OH268128   4.131   2.026   0.453  0.3568 -0.3250  0.1095
15546TIP3    H168129   4.068   2.069   0.397  1.3049 -1.2483 -1.7737
15546TIP3    H268130   4.160   2.094   0.514  0.0198  1.0318 -1.1750
15547TIP3   OH268131   0.689   3.157   1.739  0.4592 -0.1466  0.4284
15547TIP3    H168132   0.720   3.234   1.691  0.0455  0.0116  0.4064
15547TIP3    H268133   0.747   3.151   1.815  0.5366  0.1493  0.3951
15548TIP3   OH268134   2.372   1.535   0.662  0.5777 -0.1276 -0.0623
15548TIP3    H168135   2.463   1.527   0.693  0.7641  2.5888  0.3376
15548TIP3    H268136   2.379   1.589   0.583 -0.6371 -0.5492 -0.4676
15549TIP3   OH268137   2.767   2.127   0.632 -0.1924  0.2771  0.2269
15549TIP3    H168138   2.708   2.102   0.703 -0.2905 -0.7354 -0.1862
15549TIP3    H268139   2.854   2.113   0.667 -0.2290  0.3882  0.3609
15550TIP3   OH268140   2.125   0.776  11.749 -0.4760  0.1008  0.6393
15550TIP3    H168141   2.122   0.793  11.655 -0.7932  3.5144  1.1510
15550TIP3    H268142   2.216   0.793  11.774 -0.7713  0.9559  1.1818
15551TIP3   OH268143   3.740   1.987   5.867  0.2545 -0.1511  0.0900
15551TIP3    H168144   3.788   1.905   5.882 -0.9408 -0.5798  1.8274
15551TIP3    H268145   3.796   2.055   5.903  0.7914 -0.3188 -0.4170
15552TIP3   OH268146   3.971   0.291  15.744  0.7656  0.0339 -0.1965
15552TIP3    H168147   3.967   0.248  15.659  2.4406  1.0014 -0.8072
15552TIP3    H268148   3.993   0.382  15.725  1.4325  0.2194  1.2756
15553TIP3   OH268149   0.766   3.005  14.002 -0.1432 -0.4197  0.8110
15553TIP3    H168150   0.836   3.031  13.942  0.0376  0.4478  1.3798
15553TIP3    H268151   0.765   2.909  13.998  0.9315 -0.4368  0.6346
15554TIP3   OH268152   1.595   5.761  11.929 -0.6297  0.2760 -0.3935
15554TIP3    H168153   1.560   5.818  11.997 -0.8630  0.1834 -0.4360
15554TIP3    H268154   1.585   5.672  11.964 -1.4847  0.1725 -0.8765
15555TIP3   OH268155   1.471   6.368   3.253 -0.2921  0.0958 -0.4158
15555TIP3    H168156   1.451   6.433   3.321  1.2088  0.1316  0.0253
15555TIP3    H268157   1.502   6.420   3.179  0.5550 -0.0706 -0.1921
15556TIP3   OH268158   5.627   2.083  11.733  0.4556 -0.5608 -0.3154
15556TIP3    H168159   5.630   2.155  11.796  1.5056  0.1122 -1.0947
15556TIP3    H268160   5.565   2.112  11.666  1.0621 -0.2635 -0.7547
15557TIP3   OH268161   2.431   5.871   4.181 -0.3490  0.5235 -0.0843
15557TIP3    H168162   2.492   5.918   4.124  0.5567  1.3970  1.5219
15557TIP3    H268163   2.399   5.938   4.242 -2.5381 -0.0246 -0.5453
15558TIP3   OH268164   6.007   0.909  16.300  0.0711  0.3474  0.6057
15558TIP3    H168165   5.933   0.965  16.325  0.5681  0.5764  1.6284
15558TIP3    H268166   6.044   0.880  16.384  0.0081 -1.2895  0.0917
15559TIP3   OH268167   5.642   0.799   3.978  0.4141 -0.0043 -0.6099
15559TIP3    H168168   5.717   0.740   3.992  1.6052  1.2656 -1.3833
15559TIP3    H268169   5.653   0.830   3.888  0.3484  2.0810  0.0543
15560TIP3   OH268170   1.993   4.442   5.279 -0.6670 -0.0092  0.6440
15560TIP3    H168171   1.939   4.481   5.348 -0.6521  0.1527  0.5648
15560TIP3    H268172   1.945   4.462   5.198  0.3655  1.6233  0.3982
15561TIP3   OH268173   5.608   0.215  11.471 -0.0232  0.2391  0.3218
15561TIP3    H168174   5.671   0.144  11.462 -0.4342 -0.1057  0.1168
15561TIP3    H268175   5.536   0.191  11.413  0.4357  1.5070 -0.8318
15562TIP3   OH268176   4.714   3.722  16.008 -0.7630  1.0657  0.2375
15562TIP3    H168177   4.747   3.657  15.945 -1.2124  1.4019 -0.3571
15562TIP3    H268178   4.769   3.710  16.085 -1.1779 -0.3959  0.3448
15563TIP3   OH268179   2.784   5.090  12.028 -0.1388  0.7411 -0.4076
15563TIP3    H168180   2.775   5.027  11.957 -1.7751  1.7100 -1.1009
15563TIP3    H268181   2.854   5.149  11.999  1.7291 -0.9481  0.4519
15564TIP3   OH268182   1.036   4.106  16.883 -0.0182 -0.2136 -0.8254
15564TIP3    H168183   1.004   4.030  16.932 -0.7441 -0.4120 -1.5796
15564TIP3    H268184   1.020   4.181  16.941 -1.1876 -0.4053 -0.8703
15565TIP3   OH268185   6.785   4.619   0.422  0.1341 -0.0602  0.2547
15565TIP3    H168186   6.812   4.586   0.337 -0.1755 -0.1283  0.1792
15565TIP3    H268187   6.689   4.621   0.417  0.0565 -1.2599  1.0437
15566TIP3   OH268188   6.046   0.319   3.799 -0.5135  0.1172  0.2760
15566TIP3    H168189   6.107   0.357   3.863 -1.8264  1.2486  0.9093
15566TIP3    H268190   6.055   0.225   3.811  0.1378  0.2845  1.2976
15567TIP3   OH268191   5.698   6.467  12.445 -0.1548 -0.0474 -1.2279
15567TIP3    H168192   5.617   6.483  12.397 -0.5591 -0.4358 -0.6938
15567TIP3    H268193   5.744   6.400  12.394  0.7722  1.5513 -2.5826
15568TIP3   OH268194   4.993   0.288  16.823 -0.6259  0.8754 -0.6499
15568TIP3    H168195   4.984   0.301  16.917 -1.1152  1.8789 -0.8298
15568TIP3    H268196   5.076   0.330  16.801 -0.5950  0.7895 -0.6967
15569TIP3   OH268197   5.890   0.213  13.787 -0.1491  0.1537  0.1471
15569TIP3    H168198   5.941   0.217  13.706 -0.5037 -1.6901 -0.2249
15569TIP3    H268199   5.834   0.290  13.784  1.9445  1.7713  0.1426
15570TIP3   OH268200   6.178   4.522  16.477 -0.1520 -0.0418  0.1755
15570TIP3    H168201   6.258   4.470  16.487  0.5332  0.3851 -2.5113
15570TIP3    H268202   6.190   4.595  16.538  0.7650 -0.8039  0.9417
15571TIP3   OH268203   6.444   6.461  15.558 -0.2035  0.2151  0.9153
15571TIP3    H168204   6.365   6.498  15.597 -0.3533 -0.8953  1.7247
15571TIP3    H268205   6.433   6.366  15.566  1.8318  0.0343  2.3603
15572TIP3   OH268206   5.228   2.402   2.526 -0.7262 -0.4503  0.1854
15572TIP3    H168207   5.249   2.479   2.579  0.2692 -0.9044  0.4817
15572TIP3    H268208   5.313   2.372   2.493 -0.8866 -2.3011  1.3068
15573TIP3   OH268209   6.212   1.127  13.060 -0.3441 -0.1005 -0.1017
15573TIP3    H168210   6.119   1.106  13.060 -0.5685  0.8505  0.7361
15573TIP3    H268211   6.229   1.166  13.145  0.9093 -0.5830 -0.0947
15574TIP3   OH268212   0.402   6.223   3.382  0.2101  0.5036  0.3187
15574TIP3    H168213   0.387   6.217   3.476  1.4063  3.8739  0.8708
15574TIP3    H268214   0.314   6.215   3.343 -0.7437  2.0938  1.9886
15575TIP3   OH268215   4.294   6.503  11.084  0.0895  0.0028  0.2661
15575TIP3    H168216   4.329   6.573  11.138 -0.9407  0.4000  0.4411
15575TIP3    H268217   4.216   6.541  11.044 -0.5075 -1.0583  0.3968
15576TIP3   OH268218   6.673   1.293   2.539 -0.4995  0.0484  0.5043
15576TIP3    H168219   6.629   1.271   2.457 -0.6989 -0.1431  0.6627
15576TIP3    H268220   6.708   1.381   2.524  0.9424 -0.6298 -0.3908
15577TIP3   OH268221   1.628   5.940  13.035 -0.2787 -0.0654  0.1353
15577TIP3    H168222   1.693   5.989  13.086 -0.8657  1.0188 -0.1052
15577TIP3    H268223   1.674   5.861  13.006  0.8055  0.4754  0.3061
15578TIP3   OH268224   5.593   0.062   1.318 -0.3045 -0.1980 -0.8527
15578TIP3    H168225   5.584   0.157   1.321  0.1800 -0.0479 -2.8623
15578TIP3    H268226   5.643   0.045   1.239  1.8163 -1.9938  0.7410
15579TIP3   OH268227   5.009   2.574  13.763 -0.1986 -0.0467  0.4422
15579TIP3    H168228   5.005   2.479  13.772  1.0136 -0.0530  1.1501
15579TIP3    H268229   4.928   2.597  13.719 -1.4875 -1.2045  2.0655
15580TIP3   OH268230   5.035   5.451   1.605  0.3264 -0.0553 -0.1384
15580TIP3    H168231   5.042   5.435   1.511  2.5380  0.3548 -0.0977
15580TIP3    H268232   5.097   5.521   1.622 -2.1584  1.9765  1.2166
15581TIP3   OH268233   2.321   1.802   6.768  0.1889 -0.1895 -0.1879
15581TIP3    H168234   2.238   1.822   6.813  1.4565  1.0639  1.7706
15581TIP3    H268235   2.362   1.887   6.755  0.5872 -0.6668 -2.4363
15582TIP3   OH268236   5.034   1.810   3.934 -0.2242 -0.1992 -0.0635
15582TIP3    H168237   4.951   1.816   3.888 -0.1076  0.1298 -0.2376
15582TIP3    H268238   5.049   1.899   3.966 -0.4303 -0.4707  0.8287
15583TIP3   OH268239   3.613   5.392  16.987  0.3589  0.4609  0.7704
15583TIP3    H168240   3.700   5.360  16.965  1.0050  1.3874  1.8639
15583TIP3    H268241   3.562   5.313  17.004  0.9537 -0.0921  0.0621
15584TIP3   OH268242   0.076   5.097   0.848 -0.4524  0.2517 -0.1877
15584TIP3    H168243   0.146   5.074   0.788  0.5561  2.1014  0.2266
15584TIP3    H268244   0.082   5.031   0.918 -0.0457 -0.4281 -0.8549
15585TIP3   OH268245   4.492   1.696   4.208 -0.1983  0.3047 -0.2189
15585TIP3    H168246   4.548   1.619   4.198 -2.1294 -1.1289 -0.6569
15585TIP3    H268247   4.510   1.749   4.131  0.0746 -0.4634 -0.6947
15586TIP3   OH268248   2.560   1.015   4.735  0.0677 -0.2625 -0.3107
15586TIP3    H168249   2.531   1.022   4.826 -0.0257  1.0639 -0.4244
15586TIP3    H268250   2.557   1.105   4.701  2.7371 -0.2613 -0.8002
15587TIP3   OH268251   5.998   3.538   1.023  0.2596 -0.0185 -0.5962
15587TIP3    H168252   5.938   3.489   0.966  0.5449 -1.0220 -0.0600
15587TIP3    H268253   6.032   3.608   0.967  0.3043 -0.7985 -1.5835
15588TIP3   OH268254   0.354   2.715  14.302 -0.6782  0.2345  0.1195
15588TIP3    H168255   0.444   2.701  14.275 -0.0208  0.5119  1.9992
15588TIP3    H268256   0.357   2.791  14.361 -1.7560 -0.9370  1.8176
15589TIP3   OH268257   1.933   1.867  14.169  0.2941 -0.2997  0.9998
15589TIP3    H168258   1.898   1.940  14.221  0.2490 -1.8145  3.2627
15589TIP3    H268259   2.024   1.858  14.200  0.7937 -0.2202 -0.4047
15590TIP3   OH268260   4.251   1.845  12.167 -0.0501 -0.1137 -0.1360
15590TIP3    H168261   4.325   1.820  12.223 -1.8966 -2.3112  1.5083
15590TIP3    H268262   4.290   1.857  12.081  2.4334  0.3197  0.9544
15591TIP3   OH268263   0.892   4.424  11.710 -0.3428  0.1185  0.8099
15591TIP3    H168264   0.905   4.510  11.669  1.2409  0.3220  1.6464
15591TIP3    H268265   0.853   4.443  11.795 -0.8509 -0.0669  0.6200
15592TIP3   OH268266   3.625   6.674  12.335 -0.2399 -0.6395 -0.2821
15592TIP3    H168267   3.717   6.695  12.354  0.0935 -0.6455 -1.7782
15592TIP3    H268268   3.617   6.580  12.356  0.0183 -0.5779  0.1050
15593TIP3   OH268269   3.594   1.094  14.082  0.4850 -0.0952  0.5478
15593TIP3    H168270   3.587   1.073  14.175  2.3753 -0.0482  0.7312
15593TIP3    H268271   3.683   1.128  14.071  0.6885 -1.0886 -1.4665
15594TIP3   OH268272   5.427   0.435   1.593  0.1122 -0.7375  0.2021
15594TIP3    H168273   5.385   0.351   1.612  0.7532 -0.8837  0.9898
15594TIP3    H268274   5.368   0.500   1.630 -0.5869 -0.7974 -0.7534
15595TIP3   OH268275   3.382   1.291  10.829 -0.2354 -0.3421 -0.1996
15595TIP3    H168276   3.393   1.282  10.734 -0.8236 -0.7587 -0.2284
15595TIP3    H268277   3.297   1.334  10.839 -0.1695 -0.2927  0.1443
15596TIP3   OH268278   2.128   3.532   4.420 -0.0464 -0.4266  0.3150
15596TIP3    H168279   2.162   3.615   4.387 -0.0701 -0.6369 -0.2465
15596TIP3    H268280   2.127   3.474   4.344 -1.8242 -0.3750  0.2656
15597TIP3   OH268281   6.719   4.452   1.483  0.0387 -0.4621 -0.0594
15597TIP3    H168282   6.701   4.420   1.395  1.7702  1.4458 -1.1971
15597TIP3    H268283   6.750   4.541   1.471 -0.9117  0.3434  2.6296
15598TIP3   OH268284   0.994   6.614  15.265  0.0428  0.2224  0.4908
15598TIP3    H168285   1.066   6.676  15.270 -0.3572  0.6525  0.9604
15598TIP3    H268286   0.950   6.634  15.183 -1.0568  1.6536  1.3872
15599TIP3   OH268287   0.422   2.206   2.932  0.8852 -0.4300  0.7531
15599TIP3    H168288   0.337   2.200   2.888  1.8101  2.0955 -1.6852
15599TIP3    H268289   0.432   2.299   2.952  3.4909 -0.4949  0.0448
15600TIP3   OH268290   6.740   4.240   0.894 -0.0378  0.1003  0.3892
15600TIP3    H168291   6.654   4.213   0.864 -0.8461  3.1237 -0.3998
15600TIP3    H268292   6.801   4.206   0.829 -0.7947 -0.7144  0.0889
15601TIP3   OH268293   3.936   0.023  14.566  0.4508 -0.6008  0.0328
15601TIP3    H168294   3.897  -0.048  14.616 -1.7663  1.8791  2.1771
15601TIP3    H268295   4.015   0.047  14.615  0.7438 -1.0358 -0.2227
15602TIP3   OH268296   6.086   6.687   2.460  0.2991  0.4393 -0.7674
15602TIP3    H168297   6.029   6.665   2.533 -0.8762  0.6838 -1.5921
15602TIP3    H268298   6.054   6.633   2.387  0.9979  0.7153 -1.2915
15603TIP3   OH268299   5.625   0.695  11.006  0.0138  0.2105  0.4958
15603TIP3    H168300   5.563   0.719  10.937 -1.3525  0.0554  1.6378
15603TIP3    H268301   5.680   0.627  10.966 -0.8363  0.0300 -0.3973
15604TIP3   OH268302   6.074   3.803  16.174 -0.1286  0.2195  0.3737
15604TIP3    H168303   6.028   3.819  16.257  0.1310 -0.5721  0.6822
15604TIP3    H268304   6.030   3.727  16.137 -1.9522  2.0571 -1.5176
15605TIP3   OH268305   6.726   3.333   0.839  0.2134  0.7221  0.0108
15605TIP3    H168306   6.643   3.289   0.822 -1.4353  3.8343 -0.7648
15605TIP3    H268307   6.731   3.338   0.935 -0.6502  0.7658  0.0658
15606TIP3   OH268308   3.444   6.149  13.921 -0.2198 -0.0561 -0.2354
15606TIP3    H168309   3.425   6.105  14.004 -1.3028  0.0265 -0.4220
15606TIP3    H268310   3.470   6.238  13.946 -0.0659 -0.1787  0.0410
15607TIP3   OH268311   1.662   4.466   3.422 -0.1101 -0.4466 -0.4684
15607TIP3    H168312   1.687   4.408   3.350 -0.4977 -1.4619  0.1928
15607TIP3    H268313   1.578   4.431   3.452 -0.1795  0.2579  0.1720
15608TIP3   OH268314   1.989   0.768   3.852  0.0440 -0.1465 -0.5864
15608TIP3    H168315   2.028   0.705   3.912 -0.5056  0.1463  0.0990
15608TIP3    H268316   2.024   0.745   3.766  0.9691 -0.4770 -0.1361
15609TIP3   OH268317   4.076   5.728  14.659 -0.1624 -0.1111 -0.5414
15609TIP3    H168318   4.125   5.794  14.611 -0.3153 -0.3221 -0.9903
15609TIP3    H268319   4.107   5.736  14.749  0.8659 -0.4019 -0.8545
15610TIP3   OH268320   2.634   4.231   5.595  0.4125 -0.6129  0.0239
15610TIP3    H168321   2.545   4.234   5.560  0.9044 -1.8199 -1.4310
15610TIP3    H268322   2.631   4.164   5.663  0.6299 -2.1452 -1.4198
15611TIP3   OH268323   1.619   1.438   3.877  0.5855  0.0606 -0.0216
15611TIP3    H168324   1.676   1.484   3.815  0.0543  1.6340  0.5971
15611TIP3    H268325   1.536   1.485   3.873  0.5136  0.1798  1.8149
15612TIP3   OH268326   5.509   4.435   1.911  0.2310 -0.0879 -0.1442
15612TIP3    H168327   5.423   4.458   1.944  0.5846 -0.2869  0.9395
15612TIP3    H268328   5.526   4.347   1.946  0.7022 -0.2223 -0.6858
15613TIP3   OH268329   6.359   4.465  13.275  0.3981  0.3077 -0.8842
15613TIP3    H168330   6.307   4.388  13.255  0.0798 -0.4374  2.2860
15613TIP3    H268331   6.450   4.434  13.273  0.5114  0.6588 -2.5859
15614TIP3   OH268332   3.332   6.277   5.602 -0.6619 -0.0304  0.4786
15614TIP3    H168333   3.398   6.263   5.669  1.4143  3.1324 -0.6928
15614TIP3    H268334   3.378   6.259   5.519 -1.9495  0.0898 -0.2873
15615TIP3   OH268335   6.290   6.759   0.969  0.5508 -0.3566  0.3824
15615TIP3    H168336   6.315   6.716   0.887 -2.3115  1.9406 -1.9255
15615TIP3    H268337   6.247   6.690   1.020 -1.3427 -1.0535 -1.9529
15616TIP3   OH268338   0.802   0.034  11.543  0.1572 -1.2826 -0.0164
15616TIP3    H168339   0.836   0.090  11.613 -0.9368 -0.4329 -0.1314
15616TIP3    H268340   0.807  -0.055  11.578 -1.0529 -0.8119  1.4584
15617TIP3   OH268341   1.205   4.667   2.684  0.5278 -0.1974 -0.3056
15617TIP3    H168342   1.177   4.617   2.760  0.8420 -1.9140 -1.2550
15617TIP3    H268343   1.297   4.642   2.671  0.5977  0.3710 -0.9916
15618TIP3   OH268344   5.126   3.797  12.291 -0.3854 -0.2809 -0.0695
15618TIP3    H168345   5.192   3.815  12.358  0.2429  1.3091 -1.0286
15618TIP3    H268346   5.172   3.741  12.228 -0.3010 -0.1015 -0.1702
15619TIP3   OH268347   3.500   3.180   4.430 -0.0832 -0.0457 -0.5143
15619TIP3    H168348   3.485   3.200   4.338  0.8141 -2.0269 -1.1411
15619TIP3    H268349   3.429   3.121   4.455 -0.6976  0.9893  0.2885
15620TIP3   OH268350   6.560   1.379  15.367  0.5903  0.3652 -0.1021
15620TIP3    H168351   6.581   1.395  15.459 -3.1048 -0.7809  1.0950
15620TIP3    H268352   6.543   1.285  15.361 -0.7594  0.6456 -1.5423
15621TIP3   OH268353   1.382   3.360   5.449 -0.5943  0.4615 -0.2286
15621TIP3    H168354   1.446   3.397   5.510 -0.5034 -0.2165  0.0897
15621TIP3    H268355   1.318   3.316   5.505 -0.2993 -0.5032 -0.6265
15622TIP3   OH268356   6.666   0.092  14.550 -0.6153  0.0505 -0.1194
15622TIP3    H168357   6.677   0.051  14.636  1.7532 -1.3579 -1.0103
15622TIP3    H268358   6.625   0.024  14.496 -0.9838  0.5171 -0.4368
15623TIP3   OH268359   3.347   0.871   1.688 -0.1035  0.1831 -0.8024
15623TIP3    H168360   3.428   0.824   1.707  0.2568  0.5025 -1.4784
15623TIP3    H268361   3.287   0.804   1.655  0.2881  0.1274 -1.4217
15624TIP3   OH268362   2.633   3.160  12.232  0.2387 -0.2031  0.6037
15624TIP3    H168363   2.553   3.168  12.285 -0.0716  0.7293  0.0134
15624TIP3    H268364   2.657   3.068  12.239 -0.0404 -0.1923  2.0118
15625TIP3   OH268365   1.063   3.122  14.326 -0.7023 -0.0052  0.1362
15625TIP3    H168366   1.004   3.196  14.314  0.8967  1.0977 -1.7125
15625TIP3    H268367   1.116   3.120  14.245  0.9541 -1.6535  1.1577
15626TIP3   OH268368   3.846   0.209  14.210 -0.0887  0.0925  0.3611
15626TIP3    H168369   3.826   0.286  14.157  0.0495  0.8646  1.4232
15626TIP3    H268370   3.882   0.243  14.291 -1.2063 -1.0246  1.3856
15627TIP3   OH268371   5.556   2.694   6.437  0.8442 -0.3220  0.1396
15627TIP3    H168372   5.530   2.657   6.353  0.0535 -2.0356  1.0775
15627TIP3    H268373   5.618   2.764   6.415  0.9175 -0.9445 -1.8220
15628TIP3   OH268374   5.140   2.569  16.957  0.0828  0.6486 -0.1406
15628TIP3    H168375   5.172   2.547  16.870  0.4732 -1.0873  0.3905
15628TIP3    H268376   5.103   2.657  16.948  1.3514  1.0672 -1.7076
15629TIP3   OH268377   4.227   4.188  13.079 -0.1601 -0.4543  0.7947
15629TIP3    H168378   4.272   4.272  13.090  1.0702 -1.0814  0.6261
15629TIP3    H268379   4.211   4.182  12.985  0.9728 -1.0224  0.6320
15630TIP3   OH268380   4.826   6.701  12.665 -0.3841 -0.6066  0.2834
15630TIP3    H168381   4.907   6.667  12.628 -0.1463 -0.2347  0.4609
15630TIP3    H268382   4.814   6.786  12.623 -2.0986 -1.7517 -1.7903
15631TIP3   OH268383   4.787   3.046  16.712 -0.5311 -0.1971  0.6176
15631TIP3    H168384   4.761   3.135  16.737  1.2425  0.8766 -1.0831
15631TIP3    H268385   4.875   3.036  16.748 -0.5917 -1.1563  0.5199
15632TIP3   OH268386   4.146   2.430   5.915 -0.0958 -0.0024  0.6153
15632TIP3    H168387   4.115   2.492   5.981  0.6881 -0.2276  1.2029
15632TIP3    H268388   4.177   2.485   5.843 -2.2134  0.2340 -0.2014
15633TIP3   OH268389   0.365   2.532  15.441  0.1616 -0.9478 -0.3965
15633TIP3    H168390   0.388   2.612  15.393 -0.6581 -0.6308 -0.2775
15633TIP3    H268391   0.449   2.494  15.466  0.5793 -0.5243 -1.1109
15634TIP3   OH268392   3.392   5.719   2.871 -1.2286  0.3354 -0.2441
15634TIP3    H168393   3.402   5.624   2.879 -0.2794  0.5614  2.0785
15634TIP3    H268394   3.315   5.740   2.924  1.2788  1.2515  3.4061
15635TIP3   OH268395   2.362   3.845   5.843 -0.6544  0.0628  0.5061
15635TIP3    H168396   2.363   3.877   5.933 -0.3392 -2.2031  1.3549
15635TIP3    H268397   2.273   3.813   5.830 -0.7998  0.6917 -0.1416
15636TIP3   OH268398   1.285   4.325   1.709  0.0817 -0.0012 -0.7982
15636TIP3    H168399   1.298   4.232   1.692  1.4097  0.1401 -0.6932
15636TIP3    H268400   1.260   4.361   1.624  0.9301 -0.2454 -1.1727
15637TIP3   OH268401   2.613   2.347  14.814 -0.2210  0.0092  0.1853
15637TIP3    H168402   2.521   2.345  14.841 -0.1051  0.7132  0.6610
15637TIP3    H268403   2.660   2.304  14.885 -0.3871 -2.4568 -1.0861
15638TIP3   OH268404   1.409   2.189   5.287 -0.1145 -0.2637  0.0664
15638TIP3    H168405   1.398   2.276   5.327 -1.5755  0.0219 -0.9155
15638TIP3    H268406   1.466   2.143   5.348 -0.3582  0.9538  1.2729
15639TIP3   OH268407   0.290   3.124   6.090  0.6740  0.4748 -0.6115
15639TIP3    H168408   0.341   3.179   6.149  1.7748 -2.1280  1.0666
15639TIP3    H268409   0.214   3.096   6.142 -0.2935  1.0053 -1.6916
15640TIP3   OH268410   1.798   3.716   6.144 -0.1010  0.1013  0.4207
15640TIP3    H168411   1.716   3.759   6.168 -0.3135 -0.8986  1.6421
15640TIP3    H268412   1.845   3.709   6.227 -0.2364 -2.2691  0.3607
15641TIP3   OH268413   6.798   0.059   3.537  0.3665  0.7411 -0.3375
15641TIP3    H168414   6.867   0.004   3.573 -1.1585 -1.2757 -0.3083
15641TIP3    H268415   6.790   0.131   3.600  0.7594 -0.3334  0.9996
15642TIP3   OH268416   0.787   3.625   1.519 -0.3811 -0.4853  1.2761
15642TIP3    H168417   0.731   3.701   1.508 -0.3446 -0.5012  0.9546
15642TIP3    H268418   0.831   3.615   1.434  0.2388 -0.3680  1.5730
15643TIP3   OH268419   0.536   0.668  12.447  0.3547 -0.2288 -0.1269
15643TIP3    H168420   0.565   0.759  12.453  0.4034 -0.1257 -1.5835
15643TIP3    H268421   0.605   0.624  12.398  1.3873 -1.5712  2.3476
15644TIP3   OH268422   0.140   0.907   1.348  0.5428 -0.1130  0.1413
15644TIP3    H168423   0.136   0.813   1.330  1.4266 -0.3045  0.8900
15644TIP3    H268424   0.179   0.913   1.435 -1.2277  0.8727  0.9348
15645TIP3   OH268425   0.272   2.588  15.753  0.5130 -0.0054  0.6243
15645TIP3    H168426   0.272   2.583  15.658  0.7280 -1.0046  0.6729
15645TIP3    H268427   0.180   2.606  15.776  0.4923  0.4153  0.2312
15646TIP3   OH268428   4.913   1.978  12.796 -0.2265 -0.4466 -0.1866
15646TIP3    H168429   4.932   1.978  12.890 -1.2610 -2.1433  0.0609
15646TIP3    H268430   4.967   2.049  12.761  2.0032 -1.2757  1.3284
15647TIP3   OH268431   0.598   0.872  11.512 -0.1543 -0.6022 -0.3202
15647TIP3    H168432   0.618   0.908  11.599 -0.8837 -0.3875 -0.2348
15647TIP3    H268433   0.591   0.949  11.455 -1.8425 -0.5559 -0.1111
15648TIP3   OH268434   0.841   5.512  13.762  0.0350 -0.1351  0.1590
15648TIP3    H168435   0.835   5.595  13.808 -0.5442 -0.4922  0.7439
15648TIP3    H268436   0.917   5.522  13.705 -0.7820  1.2532 -0.7379
15649TIP3   OH268437   5.758   6.682  11.200  0.2258  0.1248 -0.3705
15649TIP3    H168438   5.803   6.766  11.212  0.3766  0.1026 -0.7912
15649TIP3    H268439   5.824   6.616  11.221  0.4503  0.0880 -1.1752
15650TIP3   OH268440   2.354   2.838  14.913  0.5890 -0.1280  0.9265
15650TIP3    H168441   2.296   2.774  14.953  1.6136 -1.9330 -0.3197
15650TIP3    H268442   2.441   2.815  14.945  1.2816 -0.8747 -1.3020
15651TIP3   OH268443   1.565   0.326  15.618  0.4466 -0.1492  0.1089
15651TIP3    H168444   1.613   0.309  15.699 -1.6736 -0.9116  1.3003
15651TIP3    H268445   1.547   0.420  15.621  2.0763  0.2078 -0.5202
15652TIP3   OH268446   0.483   4.465  16.295 -0.0678  0.7184  0.1626
15652TIP3    H168447   0.429   4.390  16.318  1.2968 -0.6222 -0.7937
15652TIP3    H268448   0.531   4.437  16.216 -0.7684  3.2264 -1.2527
15653TIP3   OH268449   1.570   0.346  12.258 -0.2262 -0.4124 -0.7179
15653TIP3    H168450   1.508   0.398  12.207 -2.0087 -3.7096 -2.2657
15653TIP3    H268451   1.656   0.380  12.234 -1.2327  1.1572 -2.3458
15654TIP3   OH268452   1.286   3.652  11.473 -0.4352 -0.1419  0.2220
15654TIP3    H168453   1.253   3.673  11.386 -0.3589 -0.8744  0.0098
15654TIP3    H268454   1.222   3.591  11.509 -0.4502  0.1353  0.6688
15655TIP3   OH268455   4.252   5.461  13.973  0.1037 -0.2831 -0.4356
15655TIP3    H168456   4.194   5.441  13.899  0.3262 -0.0610 -0.6710
15655TIP3    H268457   4.251   5.382  14.026 -0.4103 -0.2845 -0.4435
15656TIP3   OH268458   5.194   1.092  11.470  0.2156  0.1986 -0.1920
15656TIP3    H168459   5.173   1.134  11.386  1.5848 -1.5351 -1.4564
15656TIP3    H268460   5.149   1.008  11.466 -0.1095  0.3013  1.0520
15657TIP3   OH268461   5.009   1.681   4.811 -0.1747  0.5995  0.2421
15657TIP3    H168462   5.028   1.764   4.854 -0.2525  0.2173  1.0324
15657TIP3    H268463   4.954   1.705   4.736  1.0790  1.4073 -0.4428
15658TIP3   OH268464   2.121   1.986  11.829 -0.4805 -0.1160  0.0877
15658TIP3    H168465   2.133   1.898  11.865  0.4638  0.2569  0.7228
15658TIP3    H268466   2.109   2.042  11.905 -3.1808  0.0541 -0.3655
15659TIP3   OH268467   0.544   2.288  14.197  0.2217  0.3123 -0.1138
15659TIP3    H168468   0.598   2.274  14.119  0.0877 -0.9498  0.0025
15659TIP3    H268469   0.603   2.330  14.259  0.4191  1.0439 -0.7734
15660TIP3   OH268470   2.142   0.474  12.655  0.3456  0.1959  0.3489
15660TIP3    H168471   2.206   0.455  12.587  0.5543 -1.5096  0.9848
15660TIP3    H268472   2.136   0.394  12.707 -2.4975  0.1853  0.1815
15661TIP3   OH268473   4.389   0.391  17.091  0.5590  0.4074  0.3642
15661TIP3    H168474   4.404   0.486  17.084  0.1994  0.5862  1.7298
15661TIP3    H268475   4.448   0.363  17.161  1.5131 -0.6162 -0.7984
15662TIP3   OH268476   2.472   6.801   5.626  0.1411  0.3337  0.1610
15662TIP3    H168477   2.497   6.761   5.542 -0.1863 -0.8254  0.6008
15662TIP3    H268478   2.554   6.834   5.662 -0.0172  3.0843 -1.7104
15663TIP3   OH268479   1.999   1.418  15.414 -0.4814  0.3820 -0.0260
15663TIP3    H168480   2.029   1.396  15.502 -1.4716  1.6817  0.6755
15663TIP3    H268481   1.906   1.396  15.414 -0.3708 -0.1349 -0.9454
15664TIP3   OH268482   2.461   0.554   1.954 -0.5175  0.0016  0.1391
15664TIP3    H168483   2.366   0.553   1.941 -0.5857  1.3103  0.4254
15664TIP3    H268484   2.491   0.633   1.910  0.3049  0.1182  0.8764
15665TIP3   OH268485   1.375   0.546  15.282 -1.1937  0.7728 -0.1285
15665TIP3    H168486   1.470   0.543  15.269 -1.1272  0.0907  0.4872
15665TIP3    H268487   1.364   0.592  15.365 -1.2615 -1.4090  1.1376
15666TIP3   OH268488   1.091   3.563   3.709 -0.0225 -0.8129 -0.0914
15666TIP3    H168489   1.101   3.499   3.638  0.3056 -0.5414 -0.2930
15666TIP3    H268490   1.126   3.645   3.672 -2.2405  0.0038 -0.5766
15667TIP3   OH268491   2.813   4.250  13.326  0.2587  0.3831  0.4148
15667TIP3    H168492   2.740   4.235  13.266 -1.5496  0.4453  2.5088
15667TIP3    H268493   2.857   4.165  13.331 -0.5013 -0.0376  0.1892
15668TIP3   OH268494   5.166   4.647  14.892 -0.1689 -0.5926 -0.6274
15668TIP3    H168495   5.155   4.628  14.985 -1.2062 -1.1365 -0.8438
15668TIP3    H268496   5.217   4.573  14.859  1.0547  0.0891 -0.3221
15669TIP3   OH268497   3.878   4.268  16.950 -0.1630 -0.1978 -0.8016
15669TIP3    H168498   3.856   4.318  17.029  1.6387 -0.0444 -0.3456
15669TIP3    H268499   3.854   4.325  16.878 -0.7766  0.1268 -0.3527
15670TIP3   OH268500   1.645   3.145  14.737  0.2725  0.7872  0.1405
15670TIP3    H168501   1.630   3.068  14.792 -0.2432  0.7378 -0.0726
15670TIP3    H268502   1.608   3.218  14.787  0.9360  0.9342  0.4331
15671TIP3   OH268503   5.270   0.331   3.724  0.0858  0.1195 -0.2251
15671TIP3    H168504   5.226   0.401   3.773 -0.9603 -0.5253 -0.2185
15671TIP3    H268505   5.214   0.254   3.736  0.9251 -0.5829 -0.6993
15672TIP3   OH268506   0.205   3.375  11.995  0.8726 -0.5574  0.2003
15672TIP3    H168507   0.189   3.358  12.088  2.4873  1.6910  0.9591
15672TIP3    H268508   0.200   3.288  11.955 -0.6542 -1.5063  2.2160
15673TIP3   OH268509   2.908   2.419   4.263  0.2315  0.4353 -0.0078
15673TIP3    H168510   2.844   2.348   4.269  0.7044 -0.0252 -0.3704
15673TIP3    H268511   2.881   2.468   4.185  0.4439  0.1160 -0.2841
15674TIP3   OH268512   1.274   2.456   4.671 -0.0667 -0.2937  0.4716
15674TIP3    H168513   1.205   2.460   4.737 -0.5650 -1.1513  0.0261
15674TIP3    H268514   1.354   2.437   4.720 -0.6411 -2.1978  0.7395
15675TIP3   OH268515   1.426   1.040   0.037  0.7606  0.1973 -0.8184
15675TIP3    H168516   1.388   1.012   0.121 -1.2544 -0.7343 -1.9548
15675TIP3    H268517   1.399   1.131   0.028  2.1686  0.7287  0.1508
15676TIP3   OH268518   5.649   5.573  12.219 -0.3867 -0.4527 -0.0852
15676TIP3    H168519   5.729   5.590  12.170 -0.3067 -0.4773  0.0365
15676TIP3    H268520   5.578   5.591  12.157 -0.2747 -2.2697 -0.8063
15677TIP3   OH268521   4.845   5.774   3.239 -0.0761  0.4267  0.4521
15677TIP3    H168522   4.795   5.790   3.158  1.2657 -1.3764 -0.7993
15677TIP3    H268523   4.884   5.859   3.259 -1.0418  1.0945 -0.3472
15678TIP3   OH268524   1.602   4.152   5.642 -0.5521 -0.1239 -0.4380
15678TIP3    H168525   1.584   4.241   5.613  0.1830  0.0278 -0.4346
15678TIP3    H268526   1.637   4.163   5.731  0.5868 -0.3371 -0.8555
15679TIP3   OH268527   0.275   5.323  14.617  0.4616  0.2720 -0.0541
15679TIP3    H168528   0.213   5.395  14.629 -1.8109 -1.0979 -2.4238
15679TIP3    H268529   0.224   5.244  14.633  2.8482 -0.9260  2.3249
15680TIP3   OH268530   1.267   3.732   1.871  0.2263  0.1556  0.0783
15680TIP3    H168531   1.297   3.642   1.884  1.4194  0.5297  0.0013
15680TIP3    H268532   1.242   3.736   1.779  0.2796 -0.0665  0.0549
15681TIP3   OH268533   3.824   2.467   4.242 -0.5573 -0.2092  0.5752
15681TIP3    H168534   3.754   2.524   4.272 -0.8332 -0.2728  0.0550
15681TIP3    H268535   3.835   2.487   4.149  0.6799  0.3873  0.8330
15682TIP3   OH268536   0.626   0.774  16.269  0.7839  0.4965 -0.2415
15682TIP3    H168537   0.564   0.749  16.337  2.1290  0.0319  0.8691
15682TIP3    H268538   0.612   0.867  16.255 -0.1015  0.4099  0.0325
15683TIP3   OH268539   0.838   0.726   3.843 -0.0787  0.4993  0.1240
15683TIP3    H168540   0.925   0.738   3.881 -0.3667 -0.0165  0.9664
15683TIP3    H268541   0.799   0.655   3.894 -0.8358  0.4366 -0.5252
15684TIP3   OH268542   3.438   1.328   4.225  0.2147  0.0421 -0.1170
15684TIP3    H168543   3.367   1.267   4.207 -0.4345  0.6725  0.2845
15684TIP3    H268544   3.468   1.303   4.313 -0.4176  0.6417  0.2787
15685TIP3   OH268545   0.881   1.954  15.707  0.2008  0.0424  0.4316
15685TIP3    H168546   0.933   2.029  15.680 -0.9328  1.1681  1.2388
15685TIP3    H268547   0.841   1.923  15.626  2.0238 -0.8062 -0.1850
15686TIP3   OH268548   6.066   3.323   3.881 -0.1502 -0.6595 -0.0252
15686TIP3    H168549   6.064   3.259   3.952  0.3897  1.1523  1.7107
15686TIP3    H268550   5.984   3.371   3.889  0.8847  1.0673  0.9137
15687TIP3   OH268551   4.120   2.565   0.242  0.3340  0.3720 -0.0663
15687TIP3    H168552   4.171   2.634   0.283 -1.6770  1.4362  0.7889
15687TIP3    H268553   4.060   2.611   0.184 -2.5716 -0.3486  2.1466
15688TIP3   OH268554   2.356   6.537   4.206 -0.1238 -0.0194 -0.4015
15688TIP3    H168555   2.320   6.620   4.237  0.6907  0.0032  0.5401
15688TIP3    H268556   2.423   6.514   4.271 -0.5642 -1.5783 -0.4632
15689TIP3   OH268557   1.318   2.755  11.028 -0.6967 -0.3800  0.2926
15689TIP3    H168558   1.388   2.755  10.963 -1.1183 -1.4247 -0.1731
15689TIP3    H268559   1.249   2.700  10.990 -0.4436 -2.0894  2.1567
15690TIP3   OH268560   3.469   4.423   1.894  0.2758  0.1687  0.0039
15690TIP3    H168561   3.542   4.477   1.924 -0.7277  0.8280  1.3975
15690TIP3    H268562   3.446   4.369   1.969  0.5753 -1.4919 -1.0428
15691TIP3   OH268563   2.817   5.538  15.485 -0.0498 -0.0561 -0.0278
15691TIP3    H168564   2.803   5.482  15.408  0.6299  0.4924 -0.5654
15691TIP3    H268565   2.853   5.479  15.551 -1.1479 -0.6503  0.0661
15692TIP3   OH268566   1.025   1.304   2.595  0.4852 -0.1214  0.3599
15692TIP3    H168567   1.026   1.309   2.691 -0.0633  0.8696  0.3283
15692TIP3    H268568   1.113   1.331   2.568  0.6497 -0.4304  0.5809
15693TIP3   OH268569   3.947   3.203   5.495  0.3206 -0.1115 -0.0300
15693TIP3    H168570   3.890   3.236   5.426 -0.4083  0.9349  1.0236
15693TIP3    H268571   4.036   3.208   5.459 -0.1260 -0.5816 -1.2393
15694TIP3   OH268572   5.193   4.235  13.782  0.2553 -0.7384  0.1143
15694TIP3    H168573   5.277   4.254  13.739  0.2609 -1.1955 -0.0924
15694TIP3    H268574   5.211   4.245  13.875 -0.1534  1.8543 -0.0046
15695TIP3   OH268575   1.225   0.373   1.330 -0.4729  0.1567 -0.1391
15695TIP3    H168576   1.223   0.290   1.378  2.0907 -0.2594 -0.5781
15695TIP3    H268577   1.225   0.440   1.397 -1.9146 -0.1752  0.2399
15696TIP3   OH268578   0.942   1.880   0.843  0.2673 -0.8380 -0.0537
15696TIP3    H168579   1.036   1.881   0.827  0.2067  1.2050 -0.5873
15696TIP3    H268580   0.919   1.788   0.849  2.3207 -1.3708  0.2419
15697TIP3   OH268581   3.033   5.690  16.473  0.0863  0.0781  0.1955
15697TIP3    H168582   3.064   5.778  16.455  0.3042 -0.0137  0.1256
15697TIP3    H268583   2.939   5.701  16.491  0.3505  0.4848  1.4149
15698TIP3   OH268584   5.859   3.947   5.551 -0.0445 -0.3439  0.3598
15698TIP3    H168585   5.820   4.030   5.524  0.8180 -0.1431 -0.3241
15698TIP3    H268586   5.822   3.930   5.638 -1.0599  0.1991  0.0514
15699TIP3   OH268587   4.344   5.679   1.319 -0.0677  0.1372  0.1770
15699TIP3    H168588   4.287   5.631   1.378 -0.8054  0.7601 -0.0094
15699TIP3    H268589   4.321   5.647   1.232 -0.3106  0.5720  0.0806
15700TIP3   OH268590   6.673   6.356  15.407 -0.0594 -0.5849 -0.2899
15700TIP3    H168591   6.603   6.401  15.454  0.1783 -0.6902  0.1697
15700TIP3    H268592   6.645   6.265  15.403 -0.6496 -0.3641 -1.4227
15701TIP3   OH268593   0.549   3.651   3.984  0.2679  0.5880  0.5146
15701TIP3    H168594   0.544   3.592   4.059  0.2009 -1.0098 -0.6820
15701TIP3    H268595   0.622   3.710   4.005  0.7673 -0.3277  1.4818
15702TIP3   OH268596   6.287   1.199   1.897  0.0323 -0.1659 -0.5846
15702TIP3    H168597   6.220   1.144   1.938  1.1528 -0.3290  1.1138
15702TIP3    H268598   6.275   1.185   1.803 -0.4601 -2.4433 -0.2452
15703TIP3   OH268599   6.793   2.695   4.885 -0.2536 -1.0374  0.0888
15703TIP3    H168600   6.733   2.768   4.871  2.1906  1.1385  0.3459
15703TIP3    H268601   6.840   2.717   4.965  0.2585 -3.1550  0.4410
15704TIP3   OH268602   3.954   2.933   3.096  0.5344 -0.0836 -0.0741
15704TIP3    H168603   4.034   2.893   3.062  0.7698  1.2809 -1.1866
15704TIP3    H268604   3.884   2.876   3.064  0.8935  0.1061 -1.2193
15705TIP3   OH268605   1.983   5.527  12.992  0.4579 -0.2638 -0.0068
15705TIP3    H168606   2.001   5.511  13.084 -3.5508 -1.0817  0.8123
15705TIP3    H268607   2.039   5.465  12.945  2.9995  0.5691  1.7208
15706TIP3   OH268608   3.328   4.540   4.477 -0.3145 -0.2749  0.4609
15706TIP3    H168609   3.395   4.475   4.458 -1.1870 -1.0478 -0.0243
15706TIP3    H268610   3.295   4.567   4.392 -0.3491  0.4048  0.6808
15707TIP3   OH268611   1.383   4.142   3.296 -0.0378 -0.3797  0.1992
15707TIP3    H168612   1.438   4.138   3.218  0.6049  1.8714  0.4655
15707TIP3    H268613   1.294   4.126   3.264 -0.1680  2.9805 -1.5365
15708TIP3   OH268614   0.652   4.889   4.974 -0.7737 -0.1187  0.1618
15708TIP3    H168615   0.725   4.907   4.915 -1.5140  2.1891 -0.1837
15708TIP3    H268616   0.688   4.831   5.041  1.4438  1.0777  0.1042
15709TIP3   OH268617   0.460   6.240   5.649 -0.1513  0.2037  0.7651
15709TIP3    H168618   0.544   6.285   5.652  0.9557 -1.8312  2.1301
15709TIP3    H268619   0.481   6.148   5.662 -2.3352 -0.7745 -1.6606
15710TIP3   OH268620   1.674   3.849  14.801 -0.4189  0.3942  0.5379
15710TIP3    H168621   1.685   3.872  14.709 -1.2255  2.2192  0.8415
15710TIP3    H268622   1.761   3.860  14.839 -0.5683  2.2148  0.4600
15711TIP3   OH268623   2.327   3.343  15.831 -0.5324 -0.5722  0.4057
15711TIP3    H168624   2.235   3.369  15.823 -1.0442 -2.2666  0.4122
15711TIP3    H268625   2.358   3.387  15.910 -0.5405  2.0862 -0.9338
15712TIP3   OH268626   2.882   3.491  16.110  0.1738  0.3985 -0.1777
15712TIP3    H168627   2.812   3.506  16.047 -0.5517 -2.0573 -0.0901
15712TIP3    H268628   2.851   3.417  16.163  2.7371 -0.7191 -0.0574
15713TIP3   OH268629   2.498   6.684   5.215  0.4560  0.2295 -0.0839
15713TIP3    H168630   2.539   6.759   5.259  0.0253  0.3395  0.1343
15713TIP3    H268631   2.445   6.642   5.283 -0.2068  0.3912 -0.4929
15714TIP3   OH268632   1.532   4.355   4.691 -0.3369 -0.3124  1.0446
15714TIP3    H168633   1.550   4.445   4.661 -0.7194 -0.4114  0.4983
15714TIP3    H268634   1.534   4.303   4.611  1.3723 -1.0610  1.5145
15715TIP3   OH268635   5.092   4.939  11.066 -0.1779  0.0302  0.0517
15715TIP3    H168636   5.182   4.955  11.039 -0.2983 -0.9732 -1.0055
15715TIP3    H268637   5.049   4.905  10.988 -1.0798 -0.9659  0.9543
15716TIP3   OH268638   1.997   4.266  15.063  0.4116  0.0525  0.2473
15716TIP3    H168639   1.945   4.340  15.094 -0.7104 -1.2005  1.4819
15716TIP3    H268640   2.024   4.290  14.974 -4.7559 -0.3948 -1.7538
15717TIP3   OH268641   0.689   1.100  14.182 -0.0124  0.2179 -0.5475
15717TIP3    H168642   0.600   1.127  14.205 -0.9167 -0.8990 -2.4657
15717TIP3    H268643   0.701   1.130  14.092 -0.1999 -3.4135 -1.9475
15718TIP3   OH268644   2.570   0.707   5.525 -0.4423 -0.2999  0.4837
15718TIP3    H168645   2.504   0.758   5.572 -0.1267  0.6720 -0.0877
15718TIP3    H268646   2.548   0.718   5.432  0.3559 -0.1853  0.2995
15719TIP3   OH268647   6.221   6.626   6.081 -0.3836  0.3324  0.3977
15719TIP3    H168648   6.191   6.717   6.080  0.4247  0.6221 -1.4527
15719TIP3    H268649   6.261   6.614   6.167 -0.6339  1.6666  0.7110
15720TIP3   OH268650   1.449   0.600   4.056  0.0240 -0.0771  0.1620
15720TIP3    H168651   1.410   0.688   4.049  0.5382  0.3052  1.6467
15720TIP3    H268652   1.415   0.566   4.139  1.3221 -0.5087  0.5259
15721TIP3   OH268653   4.808   6.367  13.572  0.5006  0.4531  0.3528
15721TIP3    H168654   4.790   6.412  13.489  0.6516  1.3873  0.8083
15721TIP3    H268655   4.810   6.437  13.637 -0.5731 -0.3670  1.3094
15722TIP3   OH268656   6.498   5.025   5.294 -0.1172  0.1271 -0.3156
15722TIP3    H168657   6.442   5.062   5.226  0.6518  0.7640 -0.6246
15722TIP3    H268658   6.485   4.930   5.288 -0.3947  0.2083 -1.0450
15723TIP3   OH268659   3.313   3.850  10.591  0.5408  0.7546 -0.0323
15723TIP3    H168660   3.272   3.872  10.674  0.5225  0.8317 -0.0617
15723TIP3    H268661   3.338   3.935  10.553 -1.2863  0.8886 -1.0657
15724TIP3   OH268662   2.279   5.202  10.906 -0.1904  0.2362 -0.4874
15724TIP3    H168663   2.214   5.152  10.857 -0.5288 -1.3741  1.4830
15724TIP3    H268664   2.226   5.264  10.958  0.1053  1.3041 -1.4260
15725TIP3   OH268665   1.362   2.115  13.222  0.2648 -0.3895 -0.3593
15725TIP3    H168666   1.371   2.037  13.277  0.8849 -0.4583 -0.5584
15725TIP3    H268667   1.440   2.167  13.242 -0.7261  0.7533  0.6753
15726TIP3   OH268668   0.443   4.565   1.630 -0.0710  0.4798 -0.0676
15726TIP3    H168669   0.480   4.559   1.542 -0.1837 -1.8279 -0.0396
15726TIP3    H268670   0.406   4.653   1.636  1.5080  1.3130 -1.6566
15727TIP3   OH268671   3.833   6.250   1.471  0.4534  0.2387  0.4463
15727TIP3    H168672   3.769   6.321   1.461  1.5833  1.1043 -1.0453
15727TIP3    H268673   3.886   6.276   1.546 -0.2147  0.0932  0.9752
15728TIP3   OH268674   3.141   2.778  12.564 -0.3952 -0.2811  0.1462
15728TIP3    H168675   3.081   2.806  12.495  1.1145  0.5141 -0.8908
15728TIP3    H268676   3.132   2.844  12.632  2.0826  2.1356 -1.6726
15729TIP3   OH268677   4.860   2.781  15.564  0.1389 -0.0614 -0.3723
15729TIP3    H168678   4.790   2.763  15.501  0.7894 -0.8225 -0.9039
15729TIP3    H268679   4.940   2.751  15.520  1.0868  2.4422 -0.5614
15730TIP3   OH268680   2.441   3.607   4.842 -0.1233  0.1367  0.0528
15730TIP3    H168681   2.368   3.626   4.901  1.7970  0.8354  2.3810
15730TIP3    H268682   2.451   3.512   4.847  1.0755  0.3074  2.3616
15731TIP3   OH268683   1.602   5.618   2.342  0.2099 -0.2016  0.4261
15731TIP3    H168684   1.564   5.537   2.376 -0.6687  0.1397  0.2879
15731TIP3    H268685   1.671   5.589   2.283 -1.7383 -0.9503 -1.6219
15732TIP3   OH268686   5.354   2.713  15.125 -0.6928 -0.5406 -0.1635
15732TIP3    H168687   5.330   2.653  15.195  0.6155  0.6967  1.4051
15732TIP3    H268688   5.411   2.660  15.068  0.9831 -0.6863  1.5427
15733TIP3   OH268689   3.585   5.182   3.758  0.1385  0.3161 -0.4778
15733TIP3    H168690   3.557   5.105   3.807 -0.2685  0.5002 -0.4188
15733TIP3    H268691   3.591   5.252   3.824  1.1637  0.1847 -0.4057
15734TIP3   OH268692   4.317   2.716   1.416  0.5346 -0.1168  0.4672
15734TIP3    H168693   4.258   2.694   1.343  1.9545 -0.5045 -0.6004
15734TIP3    H268694   4.308   2.811   1.425 -0.4006 -0.1911  0.4710
15735TIP3   OH268695   4.953   3.885  14.779  0.5309  0.1071  0.4248
15735TIP3    H168696   5.041   3.850  14.790 -0.0303 -1.0979  1.2617
15735TIP3    H268697   4.929   3.863  14.689  0.5115 -0.9123  0.6744
15736TIP3   OH268698   2.233   4.704  17.054  0.2091  0.6532 -0.0694
15736TIP3    H168699   2.205   4.776  17.111 -0.0595  0.9263 -0.5349
15736TIP3    H268700   2.159   4.644  17.054  0.8299 -0.1634  1.1571
15737TIP3   OH268701   0.881   4.070   0.556  0.2796 -0.4545 -0.5603
15737TIP3    H168702   0.961   4.052   0.605 -1.2268  0.2455  2.4379
15737TIP3    H268703   0.901   4.149   0.505  1.6380 -0.6072 -0.3069
15738TIP3   OH268704   2.944   1.632   1.386 -0.6844  0.6882 -0.0929
15738TIP3    H168705   3.017   1.624   1.325 -0.7784  0.7244 -0.2109
15738TIP3    H268706   2.935   1.726   1.400 -0.4495  0.6661  0.2372
15739TIP3   OH268707   3.439   6.762  10.532 -0.3519  0.3110  0.0060
15739TIP3    H168708   3.459   6.838  10.477  0.2482 -0.8932 -1.5059
15739TIP3    H268709   3.522   6.737  10.571 -0.0498 -0.9263 -1.3390
15740TIP3   OH268710   5.425   0.135  12.227 -0.0196  0.6180 -0.4043
15740TIP3    H168711   5.489   0.119  12.297  0.8953  2.3625 -0.7862
15740TIP3    H268712   5.342   0.147  12.273  0.2967  0.2890  0.2682
15741TIP3   OH268713   6.512   3.628   5.847  0.0763  0.6554  0.2794
15741TIP3    H168714   6.485   3.719   5.861 -1.3999  0.4293 -0.8028
15741TIP3    H268715   6.522   3.620   5.752  0.8407 -0.1486  0.4145
15742TIP3   OH268716   1.334   3.777   1.069 -0.1014  0.7293  0.0755
15742TIP3    H168717   1.364   3.776   0.978 -1.6180  0.7729 -0.4429
15742TIP3    H268718   1.250   3.822   1.066  0.3322  1.7133  1.6768
15743TIP3   OH268719   2.697   6.041  16.907  0.3541 -0.3122 -0.0473
15743TIP3    H168720   2.649   6.052  16.825  1.4160  1.4353 -0.4922
15743TIP3    H268721   2.630   6.043  16.975 -0.3096  1.5032 -0.6932
15744TIP3   OH268722   5.329   1.361  16.895  0.2029  0.2047 -0.1781
15744TIP3    H168723   5.241   1.395  16.884  0.3939  0.8243  0.1684
15744TIP3    H268724   5.326   1.273  16.857 -0.8407 -0.2060  0.8198
15745TIP3   OH268725   3.192   3.266  12.211  0.0389 -0.2983 -0.5665
15745TIP3    H168726   3.173   3.346  12.163  0.3886 -0.5576 -1.1539
15745TIP3    H268727   3.230   3.296  12.294  0.7006  0.1374 -1.0156
15746TIP3   OH268728   3.046   3.939   6.862 -0.2040  0.1419  0.1012
15746TIP3    H168729   2.982   3.941   6.792  0.6471 -1.1214 -0.7466
15746TIP3    H268730   3.015   3.870   6.921  0.2406 -0.2976 -0.1786
15747TIP3   OH268731   2.378   3.944   4.786 -0.2527  0.1562  0.1425
15747TIP3    H168732   2.360   3.859   4.828 -0.9219  0.4738  0.5045
15747TIP3    H268733   2.374   4.007   4.858 -0.0026  0.5302 -0.1723
15748TIP3   OH268734   0.558   2.890   4.408 -0.4254  0.1113  0.6781
15748TIP3    H168735   0.594   2.951   4.344 -0.8101 -0.8239 -0.4578
15748TIP3    H268736   0.594   2.804   4.383  0.2619 -0.1424  2.3454
15749TIP3   OH268737   1.118   2.226  16.584 -0.1303  0.6871 -0.5855
15749TIP3    H168738   1.083   2.165  16.520  2.4929 -1.4736 -0.1160
15749TIP3    H268739   1.100   2.186  16.668  3.0702 -0.4402 -0.3195
15750TIP3   OH268740   5.691   2.188  14.358 -0.6803  0.3891 -0.0481
15750TIP3    H168741   5.753   2.200  14.430 -1.6383  1.3033  0.6676
15750TIP3    H268742   5.733   2.231  14.283 -0.4556  1.0352  0.4348
15751TIP3   OH268743   0.432   4.623  15.578  0.3169 -0.1053 -0.2167
15751TIP3    H168744   0.473   4.551  15.528 -0.0630 -0.0795 -0.5632
15751TIP3    H268745   0.340   4.621  15.552  0.1608  0.0499  0.3196
15752TIP3   OH268746   1.894   4.526   5.022  0.2760  0.2997  0.1292
15752TIP3    H168747   1.858   4.553   4.938 -1.7130  0.2345  0.9046
15752TIP3    H268748   1.930   4.606   5.060  1.9339  0.1823 -1.0782
15753TIP3   OH268749   3.089   0.461   4.026 -0.1446 -0.1915 -0.2786
15753TIP3    H168750   3.156   0.413   4.076  0.2766  1.6615  1.0187
15753TIP3    H268751   3.139   0.511   3.961 -0.6190 -1.7593 -1.9500
15754TIP3   OH268752   2.946   4.083  11.826 -0.5729 -0.1303 -0.0061
15754TIP3    H168753   3.018   4.028  11.857 -2.2795 -2.0718  0.8107
15754TIP3    H268754   2.953   4.164  11.877  1.9234  0.4523 -1.1201
15755TIP3   OH268755   2.987   4.094   1.561 -0.1063  0.5436 -0.1160
15755TIP3    H168756   2.981   4.121   1.470 -0.0734  0.4767 -0.1384
15755TIP3    H268757   2.919   4.026   1.571 -0.1886  0.6328 -0.0607
15756TIP3   OH268758   1.594   0.762  11.383  0.1999  0.1672  0.0412
15756TIP3    H168759   1.556   0.814  11.312  0.9812 -1.1216 -1.3962
15756TIP3    H268760   1.525   0.701  11.408  0.1243  0.2152 -0.0487
15757TIP3   OH268761   3.198   0.067  14.729  0.0121  0.1613  0.3461
15757TIP3    H168762   3.126   0.009  14.753 -1.1782  1.2620 -0.4386
15757TIP3    H268763   3.166   0.155  14.747  1.2100  0.6747  0.1003
15758TIP3   OH268764   2.530   1.658  15.818 -0.5037 -0.1773 -0.7676
15758TIP3    H168765   2.467   1.670  15.747 -0.4421 -0.0180 -0.7948
15758TIP3    H268766   2.501   1.717  15.887  0.4835  1.0587 -1.3577
15759TIP3   OH268767   5.288   5.396  11.688 -0.9202  0.1286  0.3676
15759TIP3    H168768   5.205   5.445  11.690 -1.1478 -0.1705 -0.8017
15759TIP3    H268769   5.282   5.344  11.608  1.3985  1.8984 -1.0814
15760TIP3   OH268770   3.125   4.883   1.375 -0.1551 -0.4405 -0.2211
15760TIP3    H168771   3.113   4.815   1.441  1.8366 -0.9124 -0.2849
15760TIP3    H268772   3.084   4.961   1.413 -0.0393 -0.9862  1.0724
15761TIP3   OH268773   6.737   0.677   4.276  0.2476 -0.1413 -0.4464
15761TIP3    H168774   6.679   0.726   4.217 -0.4109  0.7735  0.9067
15761TIP3    H268775   6.825   0.693   4.242  0.0397  1.8569 -0.1694
15762TIP3   OH268776   6.568   1.422  12.383  0.1194 -0.4946 -0.2357
15762TIP3    H168777   6.612   1.385  12.459  0.4357  0.4305  0.0429
15762TIP3    H268778   6.599   1.370  12.309  1.2684 -0.2141  0.0291
15763TIP3   OH268779   2.213   3.085   1.172  0.7034  0.0434  0.7354
15763TIP3    H168780   2.206   3.055   1.081  1.2052 -0.7672  0.9550
15763TIP3    H268781   2.218   3.004   1.223  1.0348  0.4992  1.4327
15764TIP3   OH268782   3.737   5.025   1.036  0.0171 -0.1291 -0.4758
15764TIP3    H168783   3.721   5.018   1.130 -0.1016 -0.1457 -0.4976
15764TIP3    H268784   3.828   4.996   1.025  0.7383  1.8107 -0.1064
15765TIP3   OH268785   1.927   1.798  12.133  0.3039 -0.8189 -0.1135
15765TIP3    H168786   1.981   1.871  12.102 -0.6948 -0.2006 -0.4376
15765TIP3    H268787   1.843   1.809  12.088 -0.6782 -0.7662  1.6336
15766TIP3   OH268788   4.069   5.784  16.797  0.2180  0.2084  0.2652
15766TIP3    H168789   4.150   5.758  16.754 -0.5709 -1.6446 -0.2007
15766TIP3    H268790   4.072   5.740  16.882  0.3057  1.2302  0.7977
15767TIP3   OH268791   2.156   4.100   2.031 -0.0564 -0.2960 -0.0942
15767TIP3    H168792   2.200   4.039   1.972  0.3943  0.4959 -0.5880
15767TIP3    H268793   2.211   4.178   2.032 -0.9446  0.3492  0.0357
15768TIP3   OH268794   6.391   6.375  12.964  0.0203  0.6304 -0.0316
15768TIP3    H168795   6.308   6.329  12.955  0.3938  0.2475 -2.2316
15768TIP3    H268796   6.439   6.327  13.032 -1.1545  0.2697  0.5589
15769TIP3   OH268797   2.519   5.747   1.263  0.8017 -0.0077  0.4638
15769TIP3    H168798   2.507   5.680   1.330  1.6824  1.1954  1.8759
15769TIP3    H268799   2.588   5.803   1.297  1.1838  0.7378 -1.4032
15770TIP3   OH268800   1.135   1.948   2.033  0.2835 -0.6261  0.3646
15770TIP3    H168801   1.207   2.008   2.052 -0.3915  0.4885 -0.4520
15770TIP3    H268802   1.116   1.906   2.117 -0.8783  2.1840  1.6440
15771TIP3   OH268803   1.800   1.580  11.586 -0.1971  0.4234 -0.3974
15771TIP3    H168804   1.738   1.636  11.633  0.3520 -0.5057  1.5220
15771TIP3    H268805   1.778   1.492  11.614  1.4468  0.0057 -0.3270
15772TIP3   OH268806   2.016   4.417   6.219  0.2501  0.4719 -0.5662
15772TIP3    H168807   2.097   4.388   6.261  1.0816  2.3922 -0.7327
15772TIP3    H268808   1.956   4.435   6.291  0.0825 -0.5973 -0.4262
15773TIP3   OH268809   2.620   1.738   2.117  0.2407 -0.0396  0.0268
15773TIP3    H168810   2.565   1.731   2.195  0.3957 -0.2273  0.1217
15773TIP3    H268811   2.571   1.795   2.058  0.3721  0.5493  0.4744
15774TIP3   OH268812   5.040   4.363  12.316 -0.1292  0.1281  0.2530
15774TIP3    H168813   5.033   4.343  12.223 -0.1352 -0.9807  0.4828
15774TIP3    H268814   5.066   4.455  12.318  0.4864 -0.0009 -0.8592
15775TIP3   OH268815   1.284   2.950  14.277 -0.2081 -0.1431 -0.0406
15775TIP3    H168816   1.317   2.889  14.343 -0.7353 -0.2480  0.1261
15775TIP3    H268817   1.214   2.997  14.322  1.1815  1.6772  0.3592
15776TIP3   OH268818   0.013   4.148  11.532  0.4200 -0.2799 -0.3758
15776TIP3    H168819  -0.078   4.170  11.554  0.7298  1.3577 -0.6096
15776TIP3    H268820   0.007   4.091  11.456 -0.3933  0.6003 -0.9846
15777TIP3   OH268821   3.857   3.715   5.678 -0.3533  0.0486  0.6162
15777TIP3    H168822   3.911   3.636   5.678  0.5194  0.5977 -0.9339
15777TIP3    H268823   3.815   3.716   5.764  0.5875 -1.4348  1.1262
15778TIP3   OH268824   4.155   4.572   5.919 -0.0087 -0.1374  0.0476
15778TIP3    H168825   4.230   4.551   5.864 -0.1129 -0.2748 -0.0420
15778TIP3    H268826   4.184   4.551   6.008 -0.0068 -0.3718 -0.0075
15779TIP3   OH268827   1.689   3.720  12.299 -0.1942 -0.1744  0.0958
15779TIP3    H168828   1.671   3.764  12.382  2.2266 -0.6625  0.9865
15779TIP3    H268829   1.604   3.692  12.267 -1.3848  1.6563  1.4720
15780TIP3   OH268830   2.016   0.677   5.060  0.1926 -0.1071 -0.0515
15780TIP3    H168831   1.943   0.619   5.039  0.9299 -1.4717  0.9214
15780TIP3    H268832   2.093   0.632   5.024  0.4481  2.1371 -2.6206
15781TIP3   OH268833   0.806   0.921  11.787  0.1508  0.1656  0.0255
15781TIP3    H168834   0.871   0.873  11.735  0.9656  1.6104 -0.3493
15781TIP3    H268835   0.843   0.925  11.875 -0.8442 -1.5544  0.5801
15782TIP3   OH268836   4.041   0.947   0.089 -0.0402 -0.2370  0.4599
15782TIP3    H168837   3.960   0.898   0.101  0.9788 -1.8235  1.3226
15782TIP3    H268838   4.015   1.027   0.044 -2.1423 -0.4316  1.2384
15783TIP3   OH268839   0.813   2.597   2.689  0.1769  0.1182  0.1653
15783TIP3    H168840   0.779   2.571   2.774  0.8350  0.8100  0.6460
15783TIP3    H268841   0.738   2.635   2.643 -0.3329 -0.8341  0.1796
15784TIP3   OH268842   4.506   2.350  17.131 -0.1658 -0.4390 -0.1564
15784TIP3    H168843   4.464   2.392  17.206  0.8187 -2.1871  1.4694
15784TIP3    H268844   4.433   2.308  17.084 -0.5685 -1.4578  1.3007
15785TIP3   OH268845   5.450   1.883   4.468  0.3379 -0.4059 -0.8802
15785TIP3    H168846   5.540   1.850   4.469 -0.1373 -1.7706 -0.9716
15785TIP3    H268847   5.397   1.806   4.447 -0.9125  0.2340 -0.1407
15786TIP3   OH268848   3.000   0.421  16.449  0.5179  0.4600 -0.3182
15786TIP3    H168849   2.961   0.498  16.491  0.2205 -0.1694  0.5821
15786TIP3    H268850   2.925   0.364  16.429  0.7509  0.3288 -0.8444
15787TIP3   OH268851   0.787   2.765   2.391  0.1350  0.1110  0.1310
15787TIP3    H168852   0.789   2.858   2.365  2.9878  0.4066  1.0484
15787TIP3    H268853   0.754   2.766   2.480  0.0538  0.2353  0.1006
15788TIP3   OH268854   3.161   4.967  14.563  0.0439  0.0953 -0.1911
15788TIP3    H168855   3.257   4.969  14.564  0.0339  0.8334  0.6363
15788TIP3    H268856   3.137   4.948  14.654 -0.5886 -0.7495 -0.5256
15789TIP3   OH268857   1.146   0.856   6.313 -0.0636 -0.3853 -0.2940
15789TIP3    H168858   1.174   0.785   6.255  1.0714 -1.0578  1.0360
15789TIP3    H268859   1.214   0.922   6.304 -1.1430  0.6281 -1.5707
15790TIP3   OH268860   3.954   4.177  12.909 -0.0252  0.1286 -0.2283
15790TIP3    H168861   4.035   4.139  12.874 -1.3900 -2.0799 -1.2675
15790TIP3    H268862   3.899   4.189  12.831 -0.9453  0.9380  0.5322
15791TIP3   OH268863   4.863   1.365   3.216 -0.0140  0.4596 -0.3276
15791TIP3    H168864   4.807   1.307   3.165  0.9390 -0.0420 -0.8364
15791TIP3    H268865   4.802   1.418   3.267 -0.9591  0.2013 -1.1475
15792TIP3   OH268866   2.333   4.016  13.569  0.0181  0.2404  0.4281
15792TIP3    H168867   2.264   3.952  13.584  0.2224 -0.0832 -0.0026
15792TIP3    H268868   2.324   4.079  13.641  1.0327 -1.2913  1.9577
15793TIP3   OH268869   3.130   3.534  12.663 -0.0749  0.1289 -0.0520
15793TIP3    H168870   3.076   3.592  12.609  1.1212  0.7448 -0.6368
15793TIP3    H268871   3.086   3.449  12.660 -0.3845  0.3166 -1.4595
15794TIP3   OH268872   0.268   4.087  16.885 -0.1164 -0.2866 -0.1231
15794TIP3    H168873   0.355   4.071  16.849 -0.5118 -2.5483 -0.1940
15794TIP3    H268874   0.278   4.166  16.938  2.4038 -1.4314  1.2545
15795TIP3   OH268875   0.199   3.965   2.003  0.0993  0.3685 -0.2094
15795TIP3    H168876   0.265   3.900   2.030 -0.7448 -0.2359  0.4313
15795TIP3    H268877   0.242   4.014   1.933  1.4343  0.3326  0.5524
15796TIP3   OH268878   3.733   1.297  15.617 -0.1259  0.0422 -0.2170
15796TIP3    H168879   3.720   1.215  15.664 -0.5822  0.6655  0.7845
15796TIP3    H268880   3.689   1.284  15.533 -1.5811 -0.1996  0.5447
15797TIP3   OH268881   4.702   3.363   1.022 -0.2947  0.4790 -0.1028
15797TIP3    H168882   4.684   3.334   1.111  1.3444 -0.5163 -0.0492
15797TIP3    H268883   4.797   3.357   1.013 -0.5283 -1.0845 -2.4379
15798TIP3   OH268884   3.706   6.527  12.779  0.2328  0.4751  0.1913
15798TIP3    H168885   3.790   6.565  12.753  0.7044 -0.5587  0.1674
15798TIP3    H268886   3.709   6.437  12.747  0.0823 -0.3102  2.2454
15799TIP3   OH268887   3.498   5.774  16.439  0.1466  0.7135  0.5017
15799TIP3    H168888   3.436   5.768  16.367  0.7699  0.5390 -0.0331
15799TIP3    H268889   3.491   5.690  16.484  2.0536 -0.5218 -1.3053
15800TIP3   OH268890   1.445   6.100   1.913  0.2013  0.3945  0.5222
15800TIP3    H168891   1.453   6.195   1.918  0.2294  0.4959 -0.9340
15800TIP3    H268892   1.350   6.085   1.909  0.2261  0.4764 -0.6801
15801TIP3   OH268893   3.752   5.804   2.530 -0.3583 -0.0456  0.1851
15801TIP3    H168894   3.750   5.729   2.589 -2.3700 -1.3838 -1.4864
15801TIP3    H268895   3.663   5.838   2.532 -0.0736  0.8091 -0.9587
15802TIP3   OH268896   5.766   6.452  16.875  0.4387 -0.0095 -0.1135
15802TIP3    H168897   5.737   6.482  16.961  1.7612  0.5882  0.1613
15802TIP3    H268898   5.802   6.365  16.891  1.0402  0.2581  0.0290
15803TIP3   OH268899   3.792   5.165  11.347 -0.2133 -0.5680 -0.4574
15803TIP3    H168900   3.819   5.230  11.282  0.8252  0.9713  1.4115
15803TIP3    H268901   3.699   5.183  11.361 -0.3410 -0.6261 -1.1841
15804TIP3   OH268902   6.643   5.631   2.057 -0.1589 -0.0939  0.5425
15804TIP3    H168903   6.558   5.589   2.069  0.3682 -0.7923  1.9978
15804TIP3    H268904   6.698   5.595   2.126  0.6141  2.2344  1.2319
15805TIP3   OH268905   5.468   1.659  14.357  0.0479  0.0008 -0.0466
15805TIP3    H168906   5.469   1.639  14.264 -0.3303 -2.5737  0.4206
15805TIP3    H268907   5.383   1.700  14.372 -0.4382 -0.7542 -0.6474
15806TIP3   OH268908   1.699   1.857  12.774 -0.0651 -0.2008  0.2812
15806TIP3    H168909   1.721   1.765  12.787 -0.8095 -0.3080  0.7922
15806TIP3    H268910   1.693   1.894  12.862  2.2706  0.8563  0.0927
15807TIP3   OH268911   3.762   3.757  13.098 -0.0019  0.0882  0.1872
15807TIP3    H168912   3.711   3.696  13.045  0.0378 -0.3846  0.6941
15807TIP3    H268913   3.726   3.749  13.186  0.4785  0.2654  0.4037
15808TIP3   OH268914   4.624   1.512   4.595  0.0692 -0.1042 -0.2621
15808TIP3    H168915   4.532   1.486   4.609 -0.2928  1.2813  0.0101
15808TIP3    H268916   4.674   1.434   4.619 -0.9801 -0.5301  0.6396
15809TIP3   OH268917   0.433   5.027   4.901 -0.7151  0.5783  0.6278
15809TIP3    H168918   0.373   5.000   4.970  0.0988 -0.1445  1.0626
15809TIP3    H268919   0.519   4.995   4.929 -0.4214 -0.0564 -0.8799
15810TIP3   OH268920   1.412   0.066  13.955 -0.4750  0.1016 -0.2107
15810TIP3    H168921   1.357   0.120  13.898 -2.1223 -2.0850 -0.8693
15810TIP3    H268922   1.389  -0.024  13.931  0.2226 -0.9261  2.5839
15811TIP3   OH268923   6.788   1.493   5.142 -0.1149 -0.1037 -0.1389
15811TIP3    H168924   6.830   1.467   5.059  1.0240  0.8246  0.1206
15811TIP3    H268925   6.848   1.462   5.210  0.4494  1.6824  0.2263
15812TIP3   OH268926   5.783   1.170   0.635  0.0403  0.0203 -0.1025
15812TIP3    H168927   5.846   1.167   0.707 -0.3930  0.5934  0.3120
15812TIP3    H268928   5.717   1.105   0.658 -0.6222  0.8847  0.5387
15813TIP3   OH268929   4.140   6.148  12.497  0.4037  0.4151  0.0745
15813TIP3    H168930   4.234   6.133  12.508  0.6486  0.8159 -1.2790
15813TIP3    H268931   4.131   6.244  12.495 -0.2004  0.4032  1.3638
15814TIP3   OH268932   2.334   0.298   3.902  0.6603  0.7876  0.3153
15814TIP3    H168933   2.273   0.365   3.872 -0.6791 -0.9611 -1.0840
15814TIP3    H268934   2.412   0.311   3.848  1.3257  2.5692  1.6100
15815TIP3   OH268935   2.414   6.082  15.181  0.1907 -1.0520  0.7697
15815TIP3    H168936   2.447   6.144  15.246 -1.0302  1.0281 -0.4698
15815TIP3    H268937   2.322   6.071  15.203 -0.8020  1.3408 -1.6946
15816TIP3   OH268938   1.437   1.739  11.468  0.3086  0.5150  0.1509
15816TIP3    H168939   1.488   1.757  11.389 -1.7265  0.2197 -1.3265
15816TIP3    H268940   1.403   1.650  11.454 -0.1248  0.4703  1.3712
15817TIP3   OH268941   3.065   0.441  13.070  0.1017 -1.1029  0.9404
15817TIP3    H168942   2.999   0.376  13.045 -0.6172 -0.3527  0.8392
15817TIP3    H268943   3.018   0.524  13.072  1.5852  0.0178 -2.1446
15818TIP3   OH268944   5.865   2.380  15.538  0.0094 -0.1798  0.2502
15818TIP3    H168945   5.953   2.352  15.564  1.1253  2.9172  0.1967
15818TIP3    H268946   5.824   2.409  15.619 -0.7650 -1.0366  0.1778
15819TIP3   OH268947   4.452   1.835  12.403 -0.7286 -0.0673  0.2046
15819TIP3    H168948   4.540   1.819  12.368  0.3967  2.3794  1.6664
15819TIP3    H268949   4.431   1.925  12.376 -2.3363 -0.2264  0.8017
15820TIP3   OH268950   2.659   4.256  13.104  0.5411 -0.1005 -0.1151
15820TIP3    H168951   2.681   4.177  13.055  1.6757 -0.5236  0.9953
15820TIP3    H268952   2.622   4.316  13.039  0.5096 -1.2049 -1.1500
15821TIP3   OH268953   0.405   5.031  12.467  0.1877 -0.7642 -0.5734
15821TIP3    H168954   0.337   5.098  12.478  0.8540 -0.2556  0.5754
15821TIP3    H268955   0.472   5.053  12.531  0.9027 -1.9530 -0.8718
15822TIP3   OH268956   2.153   6.578  14.233 -0.5934  0.5130  0.1596
15822TIP3    H168957   2.063   6.601  14.255 -1.2815 -1.7738 -0.0366
15822TIP3    H268958   2.192   6.661  14.204 -2.2757  1.7742  1.3128
15823TIP3   OH268959   3.278   3.678  14.603 -0.7238 -0.0331 -0.4257
15823TIP3    H168960   3.372   3.659  14.611 -0.7999 -0.7859 -1.1690
15823TIP3    H268961   3.270   3.770  14.628  0.0295 -0.2851  0.8498
15824TIP3   OH268962   3.057   3.037  10.692  0.0403 -0.1451 -0.2477
15824TIP3    H168963   3.070   3.128  10.666  0.4691  0.4237  1.7202
15824TIP3    H268964   3.145   3.004  10.709 -0.2370  0.1971  2.3276
15825TIP3   OH268965   3.129   3.882   3.077  0.0341  0.3365 -0.0157
15825TIP3    H168966   3.091   3.795   3.087 -0.6690  0.7780  1.5203
15825TIP3    H268967   3.167   3.901   3.162  0.4182  1.4271 -0.4153
15826TIP3   OH268968   4.270   3.567  13.699 -0.0174 -0.1817 -0.7379
15826TIP3    H168969   4.245   3.476  13.679  1.1999 -0.5499 -0.6534
15826TIP3    H268970   4.345   3.559  13.758  0.2312  0.8820 -0.8832
15827TIP3   OH268971   0.005   6.744  15.285 -0.3435  0.0718 -0.0187
15827TIP3    H168972   0.018   6.837  15.268 -1.0689  0.4965  1.6382
15827TIP3    H268973   0.058   6.725  15.362  0.1577 -1.0209 -0.5944
15828TIP3   OH268974   0.556   1.591  13.039  0.2056 -0.4406 -1.1940
15828TIP3    H168975   0.590   1.639  13.113  1.0609 -0.9705 -1.2325
15828TIP3    H268976   0.510   1.656  12.986  1.9223  0.4821 -1.6091
15829TIP3   OH268977   0.713   1.504  12.785  0.5604  0.6921 -0.7951
15829TIP3    H168978   0.683   1.517  12.875  0.6979  0.0564 -0.6522
15829TIP3    H268979   0.755   1.587  12.762  0.9514  0.6984 -0.1009
15830TIP3   OH268980   4.956   1.879   0.677  0.3695 -0.0353 -0.4048
15830TIP3    H168981   4.966   1.955   0.619  0.3896  0.1487 -0.1645
15830TIP3    H268982   4.913   1.813   0.624 -0.1282  0.3307 -0.4574
15831TIP3   OH268983   0.315   4.702  15.107  0.0421 -0.4230 -0.1720
15831TIP3    H168984   0.274   4.774  15.155  0.4303 -0.8790  0.8642
15831TIP3    H268985   0.260   4.692  15.029 -0.1051  0.8860 -0.2654
15832TIP3   OH268986   0.903   1.674  15.575  0.2940  0.7233 -0.1662
15832TIP3    H168987   0.998   1.665  15.577  0.7245  4.1206  1.7989
15832TIP3    H268988   0.886   1.732  15.501 -0.5425 -1.2917 -1.6507
15833TIP3   OH268989   5.770   3.346  12.602 -0.8497  0.4598  0.2326
15833TIP3    H168990   5.674   3.350  12.611 -0.8218  2.1860  0.1070
15833TIP3    H268991   5.787   3.382  12.515 -0.1549 -1.4967 -0.5065
15834TIP3   OH268992   5.786   0.323  15.597  0.0408  0.0369 -0.1052
15834TIP3    H168993   5.715   0.260  15.588 -1.0726  1.3862 -1.3249
15834TIP3    H268994   5.824   0.329  15.509  1.4225 -0.3730  0.4467
15835TIP3   OH268995   3.731   1.512  11.139 -0.8787  0.9088 -0.2074
15835TIP3    H168996   3.661   1.576  11.126 -1.4263  0.3433 -0.0966
15835TIP3    H268997   3.689   1.427  11.124 -0.2330  0.5589 -0.0710
15836TIP3   OH268998   5.390   1.959   3.405 -0.5883  0.4463  0.2489
15836TIP3    H168999   5.429   1.877   3.435  0.8583  0.4651 -1.4588
15836TIP3    H269000   5.321   1.932   3.345  0.2942  0.4565 -0.7931
15837TIP3   OH269001   5.377   6.678   0.853  0.5015  0.0867 -0.4560
15837TIP3    H169002   5.456   6.704   0.805  0.0258  2.3701 -0.1136
15837TIP3    H269003   5.334   6.760   0.875 -0.2377 -0.9460  2.3582
15838TIP3   OH269004   0.168   5.379  16.659  0.3568  0.1385 -0.4588
15838TIP3    H169005   0.092   5.322  16.673  0.0477  1.0123  1.7623
15838TIP3    H269006   0.133   5.453  16.609  0.5573 -1.0545 -2.4999
15839TIP3   OH269007   4.309   1.426   3.361 -0.2928 -0.3654 -0.3555
15839TIP3    H169008   4.284   1.359   3.297  0.5811  0.8496 -2.0474
15839TIP3    H269009   4.397   1.402   3.389  0.0899  0.1483 -1.0949
15840TIP3   OH269010   1.685   2.782   0.299 -0.2561 -0.0647 -0.5269
15840TIP3    H169011   1.757   2.772   0.236  0.2177 -1.8851  0.2553
15840TIP3    H269012   1.639   2.861   0.269  2.1817  1.3473 -0.9008
15841TIP3   OH269013   3.185   5.399  10.997  0.1039 -0.2545  0.5536
15841TIP3    H169014   3.090   5.412  11.000  0.0322 -0.4914 -0.3727
15841TIP3    H269015   3.208   5.367  11.085 -1.0270 -2.4769  0.1133
15842TIP3   OH269016   4.831   3.030   1.616  0.0870  0.3576  0.3018
15842TIP3    H169017   4.777   3.014   1.538  0.4604  1.5624 -0.2290
15842TIP3    H269018   4.897   2.960   1.613 -0.5448 -0.2474  0.1430
15843TIP3   OH269019   2.505   6.176   3.107  0.2072  0.1720  0.6017
15843TIP3    H169020   2.531   6.251   3.053  0.8230 -0.1489  0.4452
15843TIP3    H269021   2.411   6.189   3.120 -0.1899 -0.2622 -1.4085
15844TIP3   OH269022   5.819   5.521   3.923 -0.3976  0.1775  0.0495
15844TIP3    H169023   5.783   5.433   3.930  1.0136 -0.4944 -0.6722
15844TIP3    H269024   5.906   5.509   3.885  0.6673  1.7115  1.8064
15845TIP3   OH269025   2.529   0.921   1.985 -0.1125 -0.0688 -0.4513
15845TIP3    H169026   2.615   0.898   2.019 -0.6801 -1.2033  0.2977
15845TIP3    H269027   2.518   1.013   2.005  0.3880 -0.2399  0.6572
15846TIP3   OH269028   3.279   1.818   0.171 -0.0112 -0.2963 -0.2602
15846TIP3    H169029   3.197   1.859   0.196 -0.4829 -1.7891  0.7701
15846TIP3    H269030   3.254   1.747   0.112  0.5092 -0.8774  0.2031
15847TIP3   OH269031   1.845   5.157  11.719 -0.3083 -0.5494 -0.1096
15847TIP3    H169032   1.878   5.125  11.802  1.0127  0.6086 -0.1678
15847TIP3    H269033   1.908   5.127  11.654  0.4772  1.3318 -0.2726
15848TIP3   OH269034   6.783   3.482  15.829  0.4971  0.4165  0.7153
15848TIP3    H169035   6.755   3.556  15.882 -1.2416  0.7651 -0.5938
15848TIP3    H269036   6.806   3.413  15.892  4.1190  2.5849  2.0948
15849TIP3   OH269037   6.199   6.291   4.667  0.0419  0.0227  0.6189
15849TIP3    H169038   6.134   6.225   4.642  0.2361 -1.1718  2.9356
15849TIP3    H269039   6.147   6.363   4.704 -0.0548 -0.2796  1.0866
15850TIP3   OH269040   1.869   6.293   3.005  0.3041 -0.9548  0.2046
15850TIP3    H169041   1.854   6.319   3.096  0.5637 -2.2759  0.6364
15850TIP3    H269042   1.958   6.259   3.004  0.6320 -0.1064 -0.7511
15851TIP3   OH269043   4.675   1.577   3.279 -0.8579 -0.9754  0.1530
15851TIP3    H169044   4.671   1.519   3.355  2.7130 -1.4538  0.1287
15851TIP3    H269045   4.733   1.648   3.306  0.2378 -0.9844 -1.9825
15852TIP3   OH269046   4.728   3.301   2.421 -0.5050 -0.3891  0.4368
15852TIP3    H169047   4.714   3.300   2.515  0.0883 -0.0599  0.5331
15852TIP3    H269048   4.761   3.388   2.402 -0.0568 -0.6448  0.0076
15853TIP3   OH269049   6.499   6.263  12.689 -0.2560  0.1841  0.6422
15853TIP3    H169050   6.432   6.301  12.746  0.1127  0.0693  1.1629
15853TIP3    H269051   6.580   6.269  12.740  0.1947  0.6232 -0.1121
15854TIP3   OH269052   5.034   1.754  12.164 -0.2775 -0.5616  0.0126
15854TIP3    H169053   5.024   1.849  12.164  0.9767 -0.4152 -0.2230
15854TIP3    H269054   4.966   1.723  12.104  2.5523  0.5941 -4.2469
15855TIP3   OH269055   1.283   0.596   0.322  0.9007  0.2513  0.6501
15855TIP3    H169056   1.312   0.551   0.243 -2.9822  0.8234 -1.3258
15855TIP3    H269057   1.288   0.529   0.391 -2.1104 -2.6041 -1.6012
15856TIP3   OH269058   3.303   6.540  11.185  0.0201 -0.3017  0.2116
15856TIP3    H169059   3.322   6.466  11.128 -0.8328 -1.0984  0.9336
15856TIP3    H269060   3.351   6.521  11.266 -0.5365 -0.2881  0.5543
15857TIP3   OH269061   2.070   2.399   6.609 -0.4638  0.0465  0.4242
15857TIP3    H169062   2.105   2.320   6.652  3.2850  1.4497  0.3593
15857TIP3    H269063   1.978   2.379   6.593 -0.2471 -3.3900  2.4677
15858TIP3   OH269064   2.477   3.198  11.974  0.1720 -0.5907 -0.0382
15858TIP3    H169065   2.415   3.193  11.901 -1.2840  0.4451  1.0534
15858TIP3    H269066   2.464   3.116  12.022  0.6999 -1.0089 -0.5985
15859TIP3   OH269067   2.803   6.099   4.061  0.7904 -0.7669  0.2976
15859TIP3    H169068   2.808   6.027   4.124 -1.0033 -0.5415  0.7748
15859TIP3    H269069   2.709   6.111   4.047  1.1168  0.2515 -1.2099
15860TIP3   OH269070   4.931   5.507   2.826  0.0997  0.1618 -0.0146
15860TIP3    H169071   4.933   5.564   2.750 -3.5615  1.8539  0.9486
15860TIP3    H269072   4.883   5.429   2.797  0.0332  0.1351  0.1630
15861TIP3   OH269073   0.194   4.392   5.015  0.6548  0.2286 -0.2042
15861TIP3    H169074   0.239   4.442   4.947  2.1861  0.6680  1.0949
15861TIP3    H269075   0.256   4.387   5.087  0.9476 -4.1351 -0.4611
15862TIP3   OH269076   6.438   4.720  16.525 -0.1110 -0.2641 -0.1197
15862TIP3    H169077   6.493   4.729  16.447 -1.4534 -0.2862 -1.1100
15862TIP3    H269078   6.451   4.629  16.552  0.1972 -0.3222 -0.4473
15863TIP3   OH269079   0.843   5.508  12.923 -0.2762 -0.4489 -0.8600
15863TIP3    H169080   0.879   5.534  13.008  2.1251 -3.2145 -0.8842
15863TIP3    H269081   0.767   5.454  12.944 -2.1373  2.0297 -0.7075
15864TIP3   OH269082   6.825   5.823   6.117 -0.3642  0.0367 -0.0262
15864TIP3    H169083   6.799   5.873   6.194 -0.4849 -0.5949  0.3501
15864TIP3    H269084   6.783   5.738   6.129  0.3872 -0.3845 -0.3182
15865TIP3   OH269085   1.941   3.116   6.118  0.0026 -0.9043  0.1094
15865TIP3    H169086   1.904   3.035   6.085 -1.3436 -0.2196 -0.1303
15865TIP3    H269087   1.942   3.175   6.042  2.4305 -1.1506 -0.1195
15866TIP3   OH269088   6.419   5.164   4.274 -0.1985 -0.0538 -0.0650
15866TIP3    H169089   6.350   5.183   4.338 -1.8530 -0.0725 -1.7650
15866TIP3    H269090   6.491   5.128   4.326 -1.2317  0.5175  1.8414
15867TIP3   OH269091   4.828   1.024  14.523 -0.2481  0.8504  0.2207
15867TIP3    H169092   4.748   1.013  14.473 -0.2665  3.7439 -0.5718
15867TIP3    H269093   4.802   1.010  14.614 -0.8266 -1.6072 -0.2538
15868TIP3   OH269094   1.829   2.700  11.580  0.4428 -0.3797 -0.3958
15868TIP3    H169095   1.848   2.614  11.543  1.6241  0.0466 -0.8424
15868TIP3    H269096   1.884   2.707  11.657 -1.3922 -0.9218  1.0389
15869TIP3   OH269097   4.458   5.141  11.494 -0.0521 -0.1707 -0.1280
15869TIP3    H169098   4.447   5.117  11.402 -1.0267  1.3660 -0.4527
15869TIP3    H269099   4.402   5.080  11.542  1.0430 -1.4789 -0.4382
15870TIP3   OH269100   5.331   2.964  13.581  0.3288 -0.3639 -0.9928
15870TIP3    H169101   5.409   2.989  13.631 -0.0167 -0.5050 -0.3719
15870TIP3    H269102   5.332   3.023  13.505 -1.8105  3.5199  1.6272
15871TIP3   OH269103   1.302   0.806  12.740 -0.8123  0.4040  0.0984
15871TIP3    H169104   1.297   0.887  12.689 -0.2185  0.7009  0.4949
15871TIP3    H269105   1.334   0.834  12.826  0.1833 -0.3540 -0.0034
15872TIP3   OH269106   4.883   2.112  16.017 -0.4400  0.3191 -0.4822
15872TIP3    H169107   4.943   2.045  15.984  0.5447  0.0602  1.6533
15872TIP3    H269108   4.796   2.080  15.993  0.1333 -0.4928 -1.5843
15873TIP3   OH269109   5.865   0.247  17.164 -0.2496 -0.4465  0.5259
15873TIP3    H169110   5.949   0.233  17.121  0.2819  1.5585  0.8158
15873TIP3    H269111   5.882   0.229  17.257 -0.3432 -0.7858  0.4790
15874TIP3   OH269112   3.000   0.478   2.703 -0.2790 -0.3781 -0.3889
15874TIP3    H169113   2.994   0.562   2.658 -0.3327 -0.4547 -0.5261
15874TIP3    H269114   3.058   0.425   2.649  0.7778 -0.0144  0.3547
15875TIP3   OH269115   2.745   1.352  11.383  0.0120 -0.1613 -0.0082
15875TIP3    H169116   2.833   1.378  11.410  1.0039 -1.5313 -1.7073
15875TIP3    H269117   2.741   1.372  11.289 -0.6069 -2.2180 -0.4742
15876TIP3   OH269118   3.342   0.133  13.232 -0.2317  0.1660 -0.1359
15876TIP3    H169119   3.298   0.086  13.303 -0.0576 -0.2067 -0.2702
15876TIP3    H269120   3.283   0.121  13.157  0.0377 -0.2399 -0.2877
15877TIP3   OH269121   6.459   3.577   5.569  0.4842 -0.5147 -0.2744
15877TIP3    H169122   6.480   3.536   5.485  1.2267 -3.3417  1.1594
15877TIP3    H269123   6.368   3.553   5.586  0.9874 -1.9158  0.6724
15878TIP3   OH269124   0.403   3.986   1.241  0.2466 -0.5756  0.0251
15878TIP3    H169125   0.357   3.970   1.323  0.3734 -0.6690  0.0779
15878TIP3    H269126   0.464   3.912   1.232 -0.0830 -0.7984 -0.3794
15879TIP3   OH269127   6.668   1.889  11.627  0.2659 -0.0304  0.0103
15879TIP3    H169128   6.659   1.958  11.561 -0.9931 -1.3967 -1.3260
15879TIP3    H269129   6.740   1.835  11.595  1.8911  1.1124  1.5479
15880TIP3   OH269130   0.888   4.947  12.791  0.2643 -0.4940 -0.1059
15880TIP3    H169131   0.925   4.859  12.784 -0.7036 -0.9074 -0.1920
15880TIP3    H269132   0.912   4.976  12.879  1.1465 -0.5801 -0.3143
15881TIP3   OH269133   1.289   2.783   5.101 -0.3734 -0.1652 -0.0176
15881TIP3    H169134   1.354   2.795   5.170 -0.5939 -0.3776  0.2310
15881TIP3    H269135   1.241   2.705   5.127 -0.1702 -0.5031 -0.6459
15882TIP3   OH269136   1.184   4.348  13.196 -0.0837 -0.7207 -0.4598
15882TIP3    H169137   1.168   4.315  13.285 -0.9895 -0.1973 -0.4159
15882TIP3    H269138   1.260   4.298  13.166  0.5178 -0.5882  0.7731
15883TIP3   OH269139   3.586   5.654   6.161  0.3486  0.1358 -0.4814
15883TIP3    H169140   3.590   5.656   6.065  0.9974  0.5362 -0.4557
15883TIP3    H269141   3.547   5.569   6.182  1.1215 -0.3811 -1.0823
15884TIP3   OH269142   4.190   0.687  14.927  0.0089  0.0438  0.3483
15884TIP3    H169143   4.120   0.677  14.863 -1.5868  2.1074  1.5998
15884TIP3    H269144   4.242   0.607  14.920 -2.1425 -1.3228 -1.0446
15885TIP3   OH269145   4.326   6.320  15.738 -0.5477  0.2394 -0.2124
15885TIP3    H169146   4.282   6.356  15.661 -0.0203 -0.4770 -0.8613
15885TIP3    H269147   4.345   6.397  15.792 -0.4227  0.8200 -1.0599
15886TIP3   OH269148   3.049   2.579   5.176  0.0360 -0.0506  0.0802
15886TIP3    H169149   3.039   2.650   5.113  2.2363  1.9566  1.7922
15886TIP3    H269150   3.012   2.614   5.257 -2.5325 -2.4829  0.1227
15887TIP3   OH269151   5.284   3.355   3.557 -0.2461  0.3631 -0.1453
15887TIP3    H169152   5.248   3.341   3.645 -0.6057 -0.0575 -0.3525
15887TIP3    H269153   5.227   3.302   3.500 -1.1297  2.0095 -0.8601
15888TIP3   OH269154   6.047   2.218   0.422 -0.6926  0.3930  0.8591
15888TIP3    H169155   6.110   2.281   0.456  0.4120  0.0851 -0.5363
15888TIP3    H269156   6.008   2.261   0.346  0.6419 -0.8492 -0.5838
15889TIP3   OH269157   3.389   4.491  15.741 -0.6866  0.1913 -0.0346
15889TIP3    H169158   3.418   4.406  15.775 -1.6303 -0.0605  0.1602
15889TIP3    H269159   3.314   4.470  15.685  0.7670  0.6062 -2.2535
15890TIP3   OH269160   2.211   0.912   1.239 -0.4127  0.3772 -0.5311
15890TIP3    H169161   2.251   0.996   1.215  1.2942  0.4003  2.0365
15890TIP3    H269162   2.163   0.930   1.319 -0.9383 -0.8828 -0.5398
15891TIP3   OH269163   1.170   2.196   4.596  0.4999  0.4241 -0.4166
15891TIP3    H169164   1.156   2.144   4.675  0.5168 -0.9630 -1.2849
15891TIP3    H269165   1.200   2.281   4.628  2.4566 -0.7167  1.0340
15892TIP3   OH269166   3.948   0.105  16.181  0.1261  0.3716  0.7603
15892TIP3    H169167   3.924   0.013  16.196 -0.1554  0.0946 -1.1868
15892TIP3    H269168   4.041   0.102  16.159 -0.4938  0.1323 -2.2051
15893TIP3   OH269169   1.052   2.792  16.833 -0.7895 -0.2299  0.0119
15893TIP3    H169170   1.082   2.720  16.777 -0.9692  0.7765 -1.4569
15893TIP3    H269171   0.959   2.774  16.847 -0.4154 -1.2972  1.3155
15894TIP3   OH269172   0.586   4.649   4.578 -0.3965  0.6888 -0.2757
15894TIP3    H169173   0.504   4.626   4.534  0.2980 -0.7241 -0.8909
15894TIP3    H269174   0.639   4.688   4.510 -0.5230  1.5707  0.1165
15895TIP3   OH269175   4.305   2.411   2.607  0.3918  0.5624  0.9231
15895TIP3    H169176   4.374   2.356   2.569 -1.2595 -0.0147 -1.5162
15895TIP3    H269177   4.330   2.500   2.584  1.1005  0.5091  1.4483
15896TIP3   OH269178   1.215   3.252  16.083  0.1414  0.3396  0.0411
15896TIP3    H169179   1.150   3.182  16.082 -0.0959  0.5517  0.3081
15896TIP3    H269180   1.240   3.260  16.175  2.0406 -1.0912 -0.2971
15897TIP3   OH269181   1.803   3.302   1.522  0.4994  0.1314 -0.3911
15897TIP3    H169182   1.802   3.305   1.427  2.0952 -1.1878 -0.4794
15897TIP3    H269183   1.829   3.212   1.543 -0.8794  0.0815  1.3090
15898TIP3   OH269184   0.121   4.715   0.626 -0.0024 -0.1800 -0.8568
15898TIP3    H169185   0.076   4.741   0.706 -0.1479  0.2309 -1.0702
15898TIP3    H269186   0.052   4.707   0.560  0.1004 -0.6376 -0.9135
15899TIP3   OH269187   6.016   6.801   0.127 -0.1212  0.3529  1.2568
15899TIP3    H169188   6.071   6.756   0.191 -2.0368 -0.8644  2.1370
15899TIP3    H269189   6.011   6.891   0.159 -0.1038  0.0370  2.1736
15900TIP3   OH269190   6.544   5.829   3.092 -0.1504  0.1675  0.1816
15900TIP3    H169191   6.467   5.821   3.037 -1.7869  3.0216  1.8023
15900TIP3    H269192   6.612   5.863   3.034 -1.9156  3.4709 -0.2406
15901TIP3   OH269193   0.666   3.610  15.841 -0.0746  0.2304  0.0953
15901TIP3    H169194   0.735   3.551  15.809  0.5817  0.6415  0.6965
15901TIP3    H269195   0.585   3.561  15.829  0.5116 -1.1587  1.3129
15902TIP3   OH269196   3.336   0.741  11.130  0.0241 -0.3996 -0.0518
15902TIP3    H169197   3.249   0.716  11.161 -0.7221 -0.1318 -1.7912
15902TIP3    H269198   3.345   0.695  11.047 -0.2813  2.8223 -2.0372
15903TIP3   OH269199   0.395   5.155   3.566 -0.0183 -0.7396 -0.2352
15903TIP3    H169200   0.352   5.240   3.579 -0.6598 -0.8628 -1.3935
15903TIP3    H269201   0.477   5.162   3.615 -1.0145 -0.2357  1.4431
15904TIP3   OH269202   3.847   2.078  10.750 -0.3018  0.1357 -0.3060
15904TIP3    H169203   3.923   2.024  10.730 -0.5989 -0.1612 -0.6380
15904TIP3    H269204   3.865   2.114  10.837  0.3004  0.2134 -0.4589
15905TIP3   OH269205   1.344   6.562   5.925  0.0017  0.4992 -0.1669
15905TIP3    H169206   1.300   6.600   6.002  1.0843 -0.6156  1.0492
15905TIP3    H269207   1.283   6.495   5.894 -0.2022  0.5810  0.0488
15906TIP3   OH269208   3.934   2.879  12.588 -0.1514  0.6435 -0.5237
15906TIP3    H169209   4.003   2.838  12.536 -0.2662  0.1646 -0.3153
15906TIP3    H269210   3.853   2.862  12.539 -0.2243  0.4335 -0.3397
15907TIP3   OH269211   3.084   4.280  14.196 -0.7555  0.1011 -0.1345
15907TIP3    H169212   3.172   4.301  14.227 -1.0044  0.5428  0.2955
15907TIP3    H269213   3.050   4.217  14.259 -0.4612 -0.6771 -0.7429
15908TIP3   OH269214   3.530   5.673   5.900  0.0054  0.1586  0.1427
15908TIP3    H169215   3.583   5.723   5.838 -1.5162  0.7162 -0.7498
15908TIP3    H269216   3.465   5.628   5.846  0.5052 -1.7678  1.0553
15909TIP3   OH269217   1.899   5.981   2.868  0.2281  0.0775 -0.1272
15909TIP3    H169218   1.895   5.944   2.956 -1.9495 -1.7145 -0.9004
15909TIP3    H269219   1.809   5.980   2.837  0.9093  0.8434 -2.3226
15910TIP3   OH269220   1.285   3.005  15.275 -0.0392  0.2549 -0.0869
15910TIP3    H169221   1.260   3.017  15.367  3.9211 -0.7633  1.3109
15910TIP3    H269222   1.345   3.077  15.257  1.3133 -1.0399 -0.9588
15911TIP3   OH269223   4.202   1.761   5.459 -0.2104 -0.7003  0.0462
15911TIP3    H169224   4.202   1.851   5.427  0.3689 -1.1637 -1.3066
15911TIP3    H269225   4.276   1.757   5.521 -0.7435 -0.0525  0.7434
15912TIP3   OH269226   5.988   3.017  13.748  0.1083 -0.2427 -0.7231
15912TIP3    H169227   5.937   3.001  13.827  0.6044 -0.1808 -0.3826
15912TIP3    H269228   6.009   2.930  13.715  0.9417 -0.2875 -0.0968
15913TIP3   OH269229   5.702   0.257  16.021  0.0800  0.1307  0.1986
15913TIP3    H169230   5.700   0.189  16.089  1.1441 -0.2266 -0.1048
15913TIP3    H269231   5.636   0.229  15.958 -1.0853  0.5890  1.1784
15914TIP3   OH269232   1.430   5.346  14.825 -0.4035 -0.1366  0.2814
15914TIP3    H169233   1.451   5.439  14.837 -1.7127  0.4433 -1.4542
15914TIP3    H269234   1.405   5.316  14.912 -1.5829  1.5953  0.5991
15915TIP3   OH269235   3.282   1.560   3.794  0.1865 -0.5315  0.0450
15915TIP3    H169236   3.350   1.531   3.855  0.3872 -1.0278 -0.4171
15915TIP3    H269237   3.319   1.545   3.707 -1.0426 -2.1509 -0.2462
15916TIP3   OH269238   0.809   3.647   3.586 -0.2340  0.0287 -0.0324
15916TIP3    H169239   0.902   3.624   3.595 -0.2441  0.1665  0.4617
15916TIP3    H269240   0.800   3.673   3.495 -0.2798 -2.1920 -0.7287
15917TIP3   OH269241   5.336   0.371  16.254 -0.1099  0.4923 -0.7078
15917TIP3    H169242   5.373   0.438  16.196 -0.2467  0.5666 -0.7104
15917TIP3    H269243   5.374   0.389  16.340  0.7264 -0.1108 -0.9343
15918TIP3   OH269244   5.515   4.358  13.386 -0.2562 -0.4347 -0.2485
15918TIP3    H169245   5.422   4.379  13.380 -0.5315 -1.5238 -0.0531
15918TIP3    H269246   5.521   4.268  13.354  0.3525 -1.2805  2.0474
15919TIP3   OH269247   6.243   4.952  11.806  0.2899  0.5460 -0.6298
15919TIP3    H169248   6.202   5.033  11.773  0.2577  0.3248 -1.1430
15919TIP3    H269249   6.314   4.983  11.862 -0.7570  0.9366  0.5143
15920TIP3   OH269250   6.183   6.475   5.046  0.2860 -0.3026  0.1770
15920TIP3    H169251   6.177   6.399   5.104 -1.5200  0.2444  0.7479
15920TIP3    H269252   6.221   6.544   5.101  0.2916 -0.2951  0.1634
15921TIP3   OH269253   0.213   0.571   1.749  0.0483 -0.5698 -0.0033
15921TIP3    H169254   0.219   0.619   1.831  0.1516  0.3450 -0.5278
15921TIP3    H269255   0.175   0.634   1.687  2.3476 -0.3466 -1.3076
15922TIP3   OH269256   3.100   2.994   0.023  0.6540 -0.6354  0.2275
15922TIP3    H169257   3.045   2.964   0.095 -0.7559  1.6477  0.2227
15922TIP3    H269258   3.184   3.015   0.064  0.1557 -0.2033  1.0618
15923TIP3   OH269259   4.079   4.368   0.349 -0.6406 -0.0770 -0.3191
15923TIP3    H169260   4.036   4.301   0.296  1.1580 -0.6847 -1.0912
15923TIP3    H269261   4.052   4.350   0.439 -2.0857 -0.3343 -0.7876
15924TIP3   OH269262   0.453   4.080  11.466 -0.0343  0.1447 -0.8816
15924TIP3    H169263   0.435   4.139  11.393  1.0675  1.5370 -0.0879
15924TIP3    H269264   0.512   4.130  11.522  0.2941 -1.4407  0.2345
15925TIP3   OH269265   6.485   3.276  16.381 -0.3782 -0.1647 -0.1369
15925TIP3    H169266   6.491   3.261  16.286 -2.0503  0.2660 -0.3300
15925TIP3    H269267   6.518   3.195  16.420 -1.0495 -0.9313 -1.1072
15926TIP3   OH269268   0.183   3.418  12.773 -0.0649  0.3581 -0.5623
15926TIP3    H169269   0.264   3.438  12.726 -1.4174  1.5135 -2.5814
15926TIP3    H269270   0.189   3.469  12.854  1.1859  0.4568 -0.6976
15927TIP3   OH269271   4.076   4.210   3.585 -0.3937 -0.0836  0.1051
15927TIP3    H169272   4.134   4.266   3.534  0.7623 -1.7232 -0.4713
15927TIP3    H269273   3.995   4.207   3.533  0.2859 -0.6250 -0.9510
15928TIP3   OH269274   6.639   5.753   3.521 -0.4276  0.5073 -0.5367
15928TIP3    H169275   6.709   5.725   3.462 -0.1185  2.1035 -0.9782
15928TIP3    H269276   6.570   5.688   3.509  0.6672 -0.6690 -0.6610
15929TIP3   OH269277   2.017   0.470   4.617 -0.1361  0.3055  0.3795
15929TIP3    H169278   2.023   0.410   4.543 -1.8445  1.6623 -0.9509
15929TIP3    H269279   2.010   0.413   4.694 -0.7984 -1.1850 -0.7330
15930TIP3   OH269280   2.731   0.164   2.464 -0.2383 -0.3398 -0.0289
15930TIP3    H169281   2.784   0.215   2.403 -2.2666 -0.5544 -2.0926
15930TIP3    H269282   2.673   0.228   2.506  0.9397 -0.2379  1.5387
15931TIP3   OH269283   5.546   1.301  14.973 -0.3728 -0.3437 -0.1578
15931TIP3    H169284   5.634   1.276  14.943  0.3939  2.2517 -0.3578
15931TIP3    H269285   5.561   1.380  15.025 -2.1466 -2.1670  3.5149
15932TIP3   OH269286   2.497   5.555   2.309 -0.4070  0.8847 -0.2858
15932TIP3    H169287   2.548   5.628   2.274 -0.8761  1.4097  0.0983
15932TIP3    H269288   2.408   5.588   2.313 -0.4871  0.5905  0.6941
15933TIP3   OH269289   4.618   2.616   2.445  0.3192 -0.0415  0.2516
15933TIP3    H169290   4.694   2.636   2.390  1.2397 -1.3008  1.0186
15933TIP3    H269291   4.547   2.666   2.406  1.3746  0.6081 -0.9207
15934TIP3   OH269292   6.137   3.358  15.774  0.2668  0.0652  0.1745
15934TIP3    H169293   6.178   3.423  15.830 -2.2193  0.1132  2.1129
15934TIP3    H269294   6.100   3.408  15.702 -0.4787  0.6541  0.9496
15935TIP3   OH269295   2.055   4.184   5.731 -0.1196 -1.0128 -0.0670
15935TIP3    H169296   2.059   4.129   5.810 -0.1616 -0.3574  0.3962
15935TIP3    H269297   2.137   4.166   5.685  1.3818  0.8758  1.6750
15936TIP3   OH269298   1.852   3.964   1.760  0.1867 -0.1556 -0.1364
15936TIP3    H169299   1.833   3.922   1.677  1.4036 -0.5160 -0.2631
15936TIP3    H269300   1.905   3.900   1.808  0.4833  0.4949  0.4341
15937TIP3   OH269301   4.484   2.489  12.845  0.2248 -1.1771 -0.5032
15937TIP3    H169302   4.420   2.546  12.888  1.1313 -0.6197  0.1663
15937TIP3    H269303   4.434   2.411  12.819 -0.5710 -1.0926  0.6862
15938TIP3   OH269304   5.194   4.145  11.181 -0.1725  0.1542  0.2849
15938TIP3    H169305   5.150   4.224  11.213 -0.2033  0.2662 -0.0366
15938TIP3    H269306   5.177   4.080  11.249  1.2321  0.8562  1.3783
15939TIP3   OH269307   4.107   0.479  12.271 -0.2282 -0.4465 -0.0961
15939TIP3    H169308   4.011   0.487  12.272 -0.1815  0.3592  1.6212
15939TIP3    H269309   4.135   0.522  12.351  1.7036  0.6727 -1.3138
15940TIP3   OH269310   1.094   1.761  11.981 -0.0588 -0.2358 -0.2666
15940TIP3    H169311   1.028   1.828  11.966 -0.5563 -0.6897 -0.1062
15940TIP3    H269312   1.129   1.780  12.068  1.0305  0.8542 -0.9078
15941TIP3   OH269313   5.025   6.000  10.909 -0.3285  0.5502  0.4172
15941TIP3    H169314   4.974   6.075  10.939  1.2200  1.5827  0.5572
15941TIP3    H269315   5.078   6.033  10.837  0.2067 -0.4625  0.3198
15942TIP3   OH269316   3.083   1.688   4.432 -0.4155 -0.3352  0.4239
15942TIP3    H169317   3.054   1.616   4.487  0.9519 -0.7861  0.5865
15942TIP3    H269318   3.142   1.647   4.368 -0.8578  0.3979 -0.4835
15943TIP3   OH269319   5.351   0.796  12.531  0.3280  0.1721 -0.6433
15943TIP3    H169320   5.352   0.739  12.607  0.0397  1.3461  0.2827
15943TIP3    H269321   5.423   0.766  12.476 -0.9811 -2.2937 -1.1723
15944TIP3   OH269322   6.704   6.409  11.637 -0.1091  0.3803 -0.4252
15944TIP3    H169323   6.731   6.501  11.633  2.6289 -0.3274 -0.1436
15944TIP3    H269324   6.657   6.401  11.720  2.5894  0.9012  1.2834
15945TIP3   OH269325   3.947   4.908  11.703 -0.4970  0.3179  0.1270
15945TIP3    H169326   3.977   4.996  11.726  1.7441 -0.4664  0.4854
15945TIP3    H269327   3.903   4.920  11.619 -0.1236  1.7670  0.0960
15946TIP3   OH269328   1.168   5.785   5.461  0.4521 -0.2268 -0.4322
15946TIP3    H169329   1.196   5.694   5.461 -0.6408 -0.5804  0.3016
15946TIP3    H269330   1.127   5.797   5.375  1.3756 -0.1608 -0.8761
15947TIP3   OH269331   2.724   2.995   6.023 -0.2750  0.4794  0.3209
15947TIP3    H169332   2.693   2.961   5.939  1.5221  0.1626 -0.2727
15947TIP3    H269333   2.784   2.927   6.055 -0.8330  0.6529  1.8230
15948TIP3   OH269334   4.010   2.714  13.218  0.5109  0.4913 -0.6866
15948TIP3    H169335   4.103   2.733  13.229  0.3382  0.3338  1.3049
15948TIP3    H269336   3.966   2.766  13.285 -0.6222 -1.1734 -0.0697
15949TIP3   OH269337   2.171   3.154  11.766 -0.1735  0.0838  0.3846
15949TIP3    H169338   2.235   3.177  11.698 -1.9236  2.1321 -0.6856
15949TIP3    H269339   2.181   3.222  11.832 -1.0288  0.2546  0.3473
15950TIP3   OH269340   4.611   0.267  12.290 -0.1758 -0.9274 -0.7947
15950TIP3    H169341   4.518   0.286  12.277 -0.0761  0.1654 -0.0014
15950TIP3    H269342   4.636   0.317  12.367  0.9527 -1.6329 -0.6719
15951TIP3   OH269343   5.193   5.045   5.741  0.2980 -0.1974  0.0142
15951TIP3    H169344   5.161   4.977   5.800  1.4120 -0.7112  0.0440
15951TIP3    H269345   5.222   4.999   5.663 -1.2946  0.4948 -1.0386
15952TIP3   OH269346   4.160   4.315  13.554 -0.3096  0.2419  0.7786
15952TIP3    H169347   4.192   4.399  13.521 -1.8937  0.2815 -0.7986
15952TIP3    H269348   4.096   4.337  13.621 -2.5732  0.4853 -1.3146
15953TIP3   OH269349   2.424   1.888   1.991  0.5658 -0.3340  0.1736
15953TIP3    H169350   2.487   1.947   1.951 -0.0620  1.3866  1.5645
15953TIP3    H269351   2.347   1.942   2.008 -1.0711 -2.2054 -0.8547
15954TIP3   OH269352   0.659   1.853  16.419  0.3980  0.2779  0.8159
15954TIP3    H169353   0.641   1.787  16.486 -3.7363 -0.0132 -0.3322
15954TIP3    H269354   0.696   1.803  16.346  0.3919 -0.2121  1.1410
15955TIP3   OH269355   0.580   1.853   4.210 -0.8994 -0.1113 -0.1008
15955TIP3    H169356   0.501   1.836   4.262 -0.9754  0.3840 -0.0483
15955TIP3    H269357   0.648   1.870   4.274 -0.8200 -0.2410 -0.1511
15956TIP3   OH269358   5.324   0.143  16.097  0.7615  0.5767 -0.5937
15956TIP3    H169359   5.402   0.095  16.124 -0.2613 -0.9138 -0.1979
15956TIP3    H269360   5.321   0.219  16.155  1.6797  0.4322 -0.3387
15957TIP3   OH269361   3.235   1.375   2.644  0.3194  0.0467 -0.5610
15957TIP3    H169362   3.155   1.424   2.659  0.0808 -0.2566 -0.8225
15957TIP3    H269363   3.230   1.349   2.552  0.3539 -0.6102 -0.3842
15958TIP3   OH269364   4.920   4.084   2.174 -0.4919  0.0195 -1.0556
15958TIP3    H169365   4.934   4.021   2.104 -1.9227 -0.7757 -0.6704
15958TIP3    H269366   4.973   4.052   2.247  0.4776  0.4826 -1.5428
15959TIP3   OH269367   2.962   1.938  10.773  0.1324  0.3640 -0.0971
15959TIP3    H169368   3.053   1.964  10.792  0.3495 -0.7447  0.4682
15959TIP3    H269369   2.909   2.004  10.817  0.6467  1.3448 -0.8883
15960TIP3   OH269370   3.644   0.914   4.847 -0.6632  0.5291 -0.1747
15960TIP3    H169371   3.622   0.974   4.776  1.2368  0.8878 -0.4914
15960TIP3    H269372   3.705   0.963   4.902 -2.2184  0.3452  1.8784
15961TIP3   OH269373   3.294   3.070   5.689 -0.3010  0.4276  0.5399
15961TIP3    H169374   3.265   3.102   5.774 -0.6577  2.1501 -0.1838
15961TIP3    H269375   3.388   3.092   5.686 -0.4988  1.2802  0.1312
15962TIP3   OH269376   4.235   6.054  12.114 -0.2733 -0.2102  0.3391
15962TIP3    H169377   4.226   5.963  12.085 -0.5988  0.2201 -1.0076
15962TIP3    H269378   4.198   6.105  12.042  2.5162  1.1342 -0.2982
15963TIP3   OH269379   6.622   4.516   3.897 -0.5746 -0.0561  0.6145
15963TIP3    H169380   6.606   4.526   3.803 -0.9596  0.5059  0.7349
15963TIP3    H269381   6.711   4.549   3.910 -0.1127 -1.1422  0.2847
15964TIP3   OH269382   4.021   1.855   4.432 -0.0336 -0.1593 -0.2715
15964TIP3    H169383   4.023   1.769   4.473 -0.4199 -0.2413 -0.4187
15964TIP3    H269384   4.096   1.854   4.372  0.3109 -0.1730  0.1537
15965TIP3   OH269385   0.081   2.465   4.222 -0.5023  0.2043  0.0937
15965TIP3    H169386   0.108   2.384   4.264 -0.1648  0.8360  1.1501
15965TIP3    H269387  -0.003   2.486   4.263  0.2833  1.3335  1.2422
15966TIP3   OH269388   5.599   3.839  16.467  0.1099 -0.7922  0.2636
15966TIP3    H169389   5.641   3.758  16.436  0.5085 -0.4744 -0.0301
15966TIP3    H269390   5.508   3.830  16.438 -0.0573 -1.5275  0.9848
15967TIP3   OH269391   4.813   6.572  16.528 -0.6766 -0.0515 -0.0368
15967TIP3    H169392   4.718   6.571  16.541 -0.5142  0.4010  1.3457
15967TIP3    H269393   4.844   6.493  16.572 -0.2168  0.9159  1.4489
15968TIP3   OH269394   5.569   5.007   2.469  0.1022 -0.3145 -0.2698
15968TIP3    H169395   5.495   5.009   2.530  1.1048  0.9319  0.9627
15968TIP3    H269396   5.536   5.047   2.389 -1.0831 -1.5040 -0.4189
15969TIP3   OH269397   4.249   6.728   5.338  0.9990  0.2563 -0.9969
15969TIP3    H169398   4.200   6.649   5.360 -0.0300  0.3031 -2.8714
15969TIP3    H269399   4.297   6.750   5.417  0.4232 -1.5991 -0.0826
15970TIP3   OH269400   1.527   3.506   6.324  0.1612  0.5973  0.0527
15970TIP3    H169401   1.569   3.592   6.320 -0.4843  0.8876 -0.9479
15970TIP3    H269402   1.512   3.490   6.417  1.3914  1.0123  0.3442
15971TIP3   OH269403   0.053   5.209  12.084  0.4110 -0.3933 -0.5344
15971TIP3    H169404   0.037   5.274  12.152 -0.2579  0.3365 -1.3674
15971TIP3    H269405   0.148   5.210  12.071  0.3602  0.8104 -0.9128
15972TIP3   OH269406   4.216   0.329   0.589 -0.2606 -0.1960  0.3175
15972TIP3    H169407   4.157   0.255   0.594  0.4224 -0.6831  1.8461
15972TIP3    H269408   4.214   0.367   0.677  1.6123 -0.1975  0.4019
15973TIP3   OH269409   2.948   3.157   6.043 -0.3940  0.2853 -0.3941
15973TIP3    H169410   2.958   3.161   6.138  0.9416 -0.8657 -0.4667
15973TIP3    H269411   2.864   3.113   6.030 -1.5634  2.2039  0.2160
15974TIP3   OH269412   4.049   2.952  13.660  0.1148  0.7375  0.0205
15974TIP3    H169413   3.985   3.017  13.690 -0.2867  0.1811  0.3869
15974TIP3    H269414   4.130   2.976  13.704 -0.0855  0.8709  0.3195
15975TIP3   OH269415   5.183   3.544  10.086 -0.0622  0.2586  0.0509
15975TIP3    H169416   5.126   3.546  10.163  0.7871  0.0012  0.6925
15975TIP3    H269417   5.268   3.518  10.120  0.1302 -0.6932 -1.1051
15976TIP3   OH269418   0.946   5.505   5.043  0.3763  0.2274  0.0900
15976TIP3    H169419   1.030   5.465   5.063  1.0932  1.1790 -0.9077
15976TIP3    H269420   0.893   5.434   5.008  1.6393  0.1226 -1.7094
15977TIP3   OH269421   2.040   0.564   0.680 -0.4037 -0.4095  0.0028
15977TIP3    H169422   2.111   0.511   0.643  0.6773 -1.4914  3.3193
15977TIP3    H269423   2.074   0.653   0.680 -0.5638 -0.2989 -1.7001
15978TIP3   OH269424   1.724   1.702   6.589 -0.4084 -0.5013 -0.2702
15978TIP3    H169425   1.630   1.714   6.575 -0.1092  1.5593 -0.9669
15978TIP3    H269426   1.764   1.744   6.512  1.1084  1.4165  1.4627
15979TIP3   OH269427   3.134   2.648  15.211 -0.4169  0.1724 -0.0219
15979TIP3    H169428   3.097   2.726  15.170  0.1633  1.0896  1.0955
15979TIP3    H269429   3.135   2.669  15.305  2.3226 -0.0061  0.0739
15980TIP3   OH269430   4.743   4.667   1.532  0.8707  0.0160 -0.0733
15980TIP3    H169431   4.833   4.700   1.541  1.2316 -1.2792  1.4225
15980TIP3    H269432   4.746   4.612   1.453  1.2610  0.3806 -0.3180
15981TIP3   OH269433   4.174   2.755  11.494  0.1802  0.4708  0.1304
15981TIP3    H169434   4.181   2.816  11.568  0.7725  1.9623 -1.0879
15981TIP3    H269435   4.190   2.810  11.417 -2.3650 -0.6166 -1.2952
15982TIP3   OH269436   0.043   0.934  12.403 -0.1105 -0.5497 -0.0291
15982TIP3    H169437   0.064   1.009  12.459 -0.2958 -1.2083  0.9504
15982TIP3    H269438   0.083   0.859  12.447 -1.6057 -1.3301  0.0698
15983TIP3   OH269439   0.837   5.542   5.369 -0.3116 -0.3533 -0.5037
15983TIP3    H169440   0.752   5.576   5.344 -0.8739 -1.4204 -0.1020
15983TIP3    H269441   0.864   5.595   5.443  0.9944  2.2937 -2.6746
15984TIP3   OH269442   1.370   5.386  10.939  0.2184 -0.1643  0.7131
15984TIP3    H169443   1.350   5.302  10.980  1.2916 -0.8965 -0.2278
15984TIP3    H269444   1.456   5.374  10.899 -0.4505  0.7463 -1.1062
15985TIP3   OH269445   2.333   4.310   1.980  0.3241  0.1074 -0.0876
15985TIP3    H169446   2.252   4.362   1.974  1.4493  2.0805  0.7660
15985TIP3    H269447   2.376   4.322   1.896  0.6912  0.8211  0.1863
15986TIP3   OH269448   1.609   0.567  13.533  0.1616 -0.7126  0.2129
15986TIP3    H169449   1.614   0.633  13.464 -2.3882  0.6144  1.1787
15986TIP3    H269450   1.687   0.582  13.586 -0.2644  1.4763  0.3179
15987TIP3   OH269451   3.565   4.028  11.004  0.2488 -0.6624  0.2276
15987TIP3    H169452   3.477   3.995  10.986  0.2826 -0.1352 -0.9683
15987TIP3    H269453   3.615   4.008  10.926  0.5983  1.0412 -0.0207
15988TIP3   OH269454   5.628   3.390   3.360  0.0303 -0.4991  0.2084
15988TIP3    H169455   5.665   3.474   3.334 -1.6510  0.2506  0.0975
15988TIP3    H269456   5.607   3.401   3.453  1.0826 -1.3167  0.5729
15989TIP3   OH269457   5.375   2.695  13.456  0.6623  0.1694  0.3222
15989TIP3    H169458   5.293   2.645  13.463  0.8257  0.0179  1.2805
15989TIP3    H269459   5.355   2.779  13.498  1.0429  0.0641  0.7249
15990TIP3   OH269460   5.648   6.250  16.075 -0.6256  0.2749  0.4309
15990TIP3    H169461   5.602   6.285  16.151 -0.9195 -0.1180  0.4351
15990TIP3    H269462   5.695   6.173  16.107  2.1017  2.0355  1.0247
15991TIP3   OH269463   4.490   2.578  10.347  0.0519 -0.4531  0.1285
15991TIP3    H169464   4.442   2.495  10.345 -0.5859 -0.0826 -0.8522
15991TIP3    H269465   4.562   2.563  10.408 -0.0370 -1.7323 -0.0563
15992TIP3   OH269466   4.835   3.695   3.500 -0.1868  0.3640 -0.6707
15992TIP3    H169467   4.778   3.661   3.568  1.2416  0.0792  0.4322
15992TIP3    H269468   4.776   3.722   3.430 -1.5228 -2.3322 -0.7039
15993TIP3   OH269469   4.428   0.102   2.441 -0.2998  1.0025  0.3343
15993TIP3    H169470   4.391   0.019   2.469  1.2164  0.3037  0.3449
15993TIP3    H269471   4.490   0.126   2.510 -1.4038  2.6466  0.8133
15994TIP3   OH269472   2.311   5.712   3.121  0.1059  0.1915 -0.0599
15994TIP3    H169473   2.296   5.676   3.033 -1.2906 -1.7896  0.9069
15994TIP3    H269474   2.369   5.786   3.107  1.9530 -1.5343 -2.4227
15995TIP3   OH269475   5.501   4.309  17.064  0.2619  0.3391  0.7144
15995TIP3    H169476   5.501   4.367  17.140 -2.7745 -0.5781  1.5832
15995TIP3    H269477   5.508   4.367  16.988 -0.7717  1.6930  1.6194
15996TIP3   OH269478   1.516   5.570   1.625 -0.1081  0.4525 -0.5109
15996TIP3    H169479   1.453   5.640   1.643  0.3854  0.3517  2.0358
15996TIP3    H269480   1.530   5.529   1.710  3.3415  0.4161 -0.9801
15997TIP3   OH269481   0.566   0.310   3.335  0.2379 -0.3047 -0.0419
15997TIP3    H169482   0.660   0.301   3.351  0.5992  1.8624 -0.6247
15997TIP3    H269483   0.551   0.261   3.254  1.6147  2.0887 -1.8845
15998TIP3   OH269484   2.414   1.206   0.657 -0.2813  0.0608  0.2719
15998TIP3    H169485   2.499   1.221   0.698  0.8367  2.4349 -2.5715
15998TIP3    H269486   2.403   1.280   0.597 -2.8057 -1.9329 -1.9642
15999TIP3   OH269487   3.760   5.455   3.401 -0.6833  0.1643 -0.5089
15999TIP3    H169488   3.684   5.418   3.356  1.0335 -2.4258 -1.4883
15999TIP3    H269489   3.748   5.430   3.493 -1.2444  0.2229 -0.5625
16000TIP3   OH269490   5.050   2.430   4.640 -0.1955  0.2116 -0.0507
16000TIP3    H169491   5.099   2.509   4.660  0.5692 -0.2081 -0.2289
16000TIP3    H269492   5.111   2.376   4.589  0.9571 -2.3789  3.6258
16001TIP3   OH269493   0.192   1.984  10.890 -0.0183 -0.5371  0.5987
16001TIP3    H169494   0.119   2.008  10.834  0.4353  0.7943  0.5438
16001TIP3    H269495   0.152   1.936  10.962 -0.8135 -0.7425  0.0322
16002TIP3   OH269496   3.102   6.252  11.788  0.0833  0.3311 -0.5551
16002TIP3    H169497   3.162   6.309  11.741 -0.3945  1.2177 -0.1054
16002TIP3    H269498   3.122   6.164  11.755  0.9162  0.7335 -1.1518
16003TIP3   OH269499   1.981   0.255  15.727 -0.1101  0.2581  0.0298
16003TIP3    H169500   1.998   0.348  15.745 -0.8913  0.2406  0.9196
16003TIP3    H269501   2.035   0.209  15.792  1.2807  0.0288 -1.2315
16004TIP3   OH269502   5.621   1.360  13.369  0.1905  0.5123  0.0994
16004TIP3    H169503   5.637   1.266  13.364 -1.8019  0.1099  0.3482
16004TIP3    H269504   5.664   1.396  13.291  0.8223 -0.6130 -0.0988
16005TIP3   OH269505   5.645   6.036  13.085  0.5422 -0.5052 -0.1630
16005TIP3    H169506   5.739   6.020  13.087  0.6720 -0.3559 -2.5814
16005TIP3    H269507   5.636   6.131  13.090  0.4787 -0.5443  0.5606
16006TIP3   OH269508   6.477   3.320   3.362  0.1866  0.2480  0.1159
16006TIP3    H169509   6.572   3.312   3.356  0.3486  0.8798  1.3732
16006TIP3    H269510   6.445   3.297   3.275  1.7011  3.4413 -1.4704
16007TIP3   OH269511   0.549   1.888  13.142 -0.5582  0.1177 -0.4195
16007TIP3    H169512   0.461   1.865  13.172 -0.6496 -0.5382 -1.1480
16007TIP3    H269513   0.591   1.930  13.218 -1.8373  1.3807 -0.3723
16008TIP3   OH269514   4.919   3.491  15.507 -0.5021  0.2532  0.1199
16008TIP3    H169515   4.948   3.404  15.533 -0.8651  0.4532  1.2425
16008TIP3    H269516   4.836   3.477  15.461  0.0982 -0.0985 -0.8766
16009TIP3   OH269517   5.227   2.795  16.603  0.3882  0.4235 -0.2070
16009TIP3    H169518   5.216   2.802  16.508 -0.4451 -0.4870 -0.1886
16009TIP3    H269519   5.144   2.757  16.634  0.0249  2.1410  1.0677
16010TIP3   OH269520   2.706   3.816   0.311 -0.0640 -0.2265  0.4356
16010TIP3    H169521   2.696   3.910   0.300  1.4334  0.0814  1.3706
16010TIP3    H269522   2.623   3.787   0.350 -0.3208  0.7995  0.6883
16011TIP3   OH269523   2.533   6.113   4.647  0.2022 -0.1600 -0.1671
16011TIP3    H169524   2.563   6.056   4.717 -0.7285 -0.0253  0.3520
16011TIP3    H269525   2.571   6.075   4.567  1.7342  0.0056  0.4438
16012TIP3   OH269526   6.279   3.108  15.676 -0.5844  0.7621  0.4385
16012TIP3    H169527   6.217   3.179  15.694 -0.3141  1.3297 -0.7507
16012TIP3    H269528   6.361   3.139  15.716 -0.5146  1.0325  0.0875
16013TIP3   OH269529   3.534   2.503   4.627  0.3924 -0.6272  0.1421
16013TIP3    H169530   3.461   2.441   4.626  0.4262 -0.6700  0.3089
16013TIP3    H269531   3.596   2.467   4.691 -1.4396  1.6390  3.5353
16014TIP3   OH269532   1.762   6.599   5.010 -0.0729 -0.2779  0.0119
16014TIP3    H169533   1.680   6.647   4.999 -0.0261 -0.0177  0.7553
16014TIP3    H269534   1.735   6.511   5.036 -0.1168 -0.1589  0.3729
16015TIP3   OH269535   5.495   5.321  14.161 -0.3081 -0.2822 -0.5532
16015TIP3    H169536   5.480   5.286  14.248 -1.5606 -0.0327 -0.6487
16015TIP3    H269537   5.435   5.273  14.105 -0.5716  0.5694 -1.0268
16016TIP3   OH269538   2.174   1.087   6.453  0.2819  0.3313  0.1916
16016TIP3    H169539   2.112   1.072   6.524  1.0768 -1.3872  0.5633
16016TIP3    H269540   2.185   1.182   6.451 -0.8983  0.5248  1.3552
16017TIP3   OH269541   1.523   4.698  16.511  0.5853 -0.3086 -0.0497
16017TIP3    H169542   1.494   4.734  16.427 -0.1485 -0.4677  0.1361
16017TIP3    H269543   1.444   4.695  16.565  0.9339 -0.7799  0.4443
16018TIP3   OH269544   2.996   5.982  14.642 -0.2832 -0.3253 -0.2556
16018TIP3    H169545   3.015   6.022  14.727 -1.6020  0.1910 -0.1655
16018TIP3    H269546   2.952   6.052  14.593  2.4875  0.1769 -2.2691
16019TIP3   OH269547   3.318   0.707  15.378 -0.7001 -0.1268 -0.1005
16019TIP3    H169548   3.251   0.640  15.386 -2.3224  1.4787  0.2596
16019TIP3    H269549   3.273   0.789  15.397  0.5871  1.3939 -3.0003
16020TIP3   OH269550   0.200   0.744  11.888  0.2509 -0.1836  0.3537
16020TIP3    H169551   0.146   0.823  11.889  0.5602  0.0240  0.8331
16020TIP3    H269552   0.277   0.767  11.835  0.8124  0.1579  1.3010
16021TIP3   OH269553   2.452   4.423   4.302  0.4889 -0.6629  0.1264
16021TIP3    H169554   2.387   4.408   4.233  0.1339  0.0430  0.2898
16021TIP3    H269555   2.462   4.519   4.305 -0.0193 -0.6188  1.5107
16022TIP3   OH269556   0.049   4.010   5.299  0.3816  0.4818 -0.4630
16022TIP3    H169557   0.129   3.969   5.333  0.9044  3.1676  1.9220
16022TIP3    H269558   0.080   4.079   5.241 -0.2422  0.7204 -0.5173
16023TIP3   OH269559   6.111   5.515   4.734  0.0140  0.0366 -0.2624
16023TIP3    H169560   6.184   5.533   4.793  1.2605 -1.2424 -1.3615
16023TIP3    H269561   6.102   5.420   4.734 -2.4433  0.1900  0.7106
16024TIP3   OH269562   2.012   2.051   5.072 -0.5129  0.2853  0.9831
16024TIP3    H169563   1.929   2.007   5.091 -0.2389  0.4619  2.7811
16024TIP3    H269564   1.986   2.136   5.036 -1.0602 -0.6667 -0.9792
16025TIP3   OH269565   6.157   1.964   4.511 -0.1309  0.6767  0.4398
16025TIP3    H169566   6.187   1.875   4.491  0.7314  1.0442  0.0425
16025TIP3    H269567   6.234   2.007   4.549 -0.3822  1.4008  0.1531
16026TIP3   OH269568   3.100   5.604  12.756  0.0670  0.2306 -0.7185
16026TIP3    H169569   3.115   5.643  12.842 -1.7452  0.5663 -0.5157
16026TIP3    H269570   3.142   5.518  12.761  0.2241  0.3565  0.4058
16027TIP3   OH269571   5.169   3.036   3.640  0.3872  0.2832 -0.0853
16027TIP3    H169572   5.262   3.018   3.631  0.1389 -0.8748 -0.4916
16027TIP3    H269573   5.162   3.092   3.718  1.5009  1.1716 -0.6058
16028TIP3   OH269574   3.463   6.673  12.823  0.4552 -0.0006  0.3184
16028TIP3    H169575   3.471   6.644  12.914  0.7796 -1.3097 -0.1047
16028TIP3    H269576   3.553   6.672  12.790  0.5918  2.1878  0.4489
16029TIP3   OH269577   3.057   3.613   0.120 -0.5067  0.0842 -0.1189
16029TIP3    H169578   3.049   3.688   0.179 -0.4013  0.0191 -0.0221
16029TIP3    H269579   3.150   3.590   0.122 -0.7073 -0.7017  0.6615
16030TIP3   OH269580   2.381   4.034  15.724 -0.1743  0.1067  0.0670
16030TIP3    H169581   2.307   4.034  15.783  1.7501 -0.9300  2.6681
16030TIP3    H269582   2.429   4.114  15.745 -0.6872  0.9725 -1.8584
16031TIP3   OH269583   3.183   2.672   2.841  0.5669  0.2971 -0.2057
16031TIP3    H169584   3.113   2.720   2.796 -0.5621 -0.8697  0.2358
16031TIP3    H269585   3.179   2.584   2.804  0.6320 -0.2685  1.0711
16032TIP3   OH269586   2.683   2.137  11.304  0.3094  0.4234  0.1994
16032TIP3    H169587   2.669   2.135  11.209  1.0643 -0.4940  0.0974
16032TIP3    H269588   2.621   2.074  11.339 -0.1590  0.9605  0.3502
16033TIP3   OH269589   0.059   0.175  15.663 -0.1273 -0.3888  0.0773
16033TIP3    H169590   0.133   0.156  15.721  0.3351  1.3559  0.0999
16033TIP3    H269591   0.099   0.218  15.587 -1.2830  2.9450  1.1899
16034TIP3   OH269592   0.050   0.216   1.828  0.2681  0.6890  0.2802
16034TIP3    H169593   0.011   0.303   1.817 -0.2194  0.4855  0.3707
16034TIP3    H269594  -0.007   0.172   1.891  1.0100  0.6050  0.9058
16035TIP3   OH269595   6.489   3.237  14.705  0.5748 -0.2868  0.4235
16035TIP3    H169596   6.550   3.218  14.633  0.8546  1.7125  0.0816
16035TIP3    H269597   6.447   3.319  14.680 -1.4429 -1.0195  1.2242
16036TIP3   OH269598   1.158   1.943   2.760 -0.1744 -0.7534  0.5549
16036TIP3    H169599   1.130   1.911   2.846  0.1427  0.6390  1.2105
16036TIP3    H269600   1.106   2.021   2.745  0.7416 -0.2082  0.1122
16037TIP3   OH269601   5.585   4.322   5.261  0.2735  0.5095  0.3398
16037TIP3    H169602   5.652   4.254   5.253  0.3214  0.3250  1.9256
16037TIP3    H269603   5.526   4.290   5.330 -1.7812  0.4271 -1.3393
16038TIP3   OH269604   2.140   0.228   1.164 -0.6277 -0.6623 -0.2994
16038TIP3    H169605   2.160   0.319   1.188 -0.3257 -0.8898  0.3568
16038TIP3    H269606   2.050   0.230   1.133 -0.8420 -0.2429  0.3301
16039TIP3   OH269607   0.388   3.414  13.279  0.5079 -0.1135  0.5775
16039TIP3    H169608   0.353   3.477  13.342  1.1568  1.2929 -0.4195
16039TIP3    H269609   0.435   3.351  13.333 -1.5305 -0.7390  1.7446
16040TIP3   OH269610   2.697   6.471  14.735 -0.2639  0.5334 -0.2313
16040TIP3    H169611   2.714   6.481  14.642  1.9772  0.1313  0.0786
16040TIP3    H269612   2.617   6.419  14.740 -0.2271  0.2818 -1.9198
16041TIP3   OH269613   1.200   0.539  16.611 -0.9038 -0.3657 -0.4113
16041TIP3    H169614   1.214   0.634  16.612 -1.7110 -0.2412  0.4334
16041TIP3    H269615   1.106   0.529  16.597 -1.2125 -0.9675  1.7624
16042TIP3   OH269616   1.268   1.071  11.281 -0.8026 -0.1445  0.4345
16042TIP3    H169617   1.350   1.098  11.323 -0.6700 -0.6410  0.4979
16042TIP3    H269618   1.200   1.095  11.343 -0.6377 -0.5189  0.7616
16043TIP3   OH269619   5.420   1.558   6.005 -0.1179 -0.2406 -0.1056
16043TIP3    H169620   5.340   1.530   6.049  0.8831  0.2932  2.2253
16043TIP3    H269621   5.444   1.640   6.048  2.3117 -1.0055  0.1871
16044TIP3   OH269622   2.771   1.155   2.828  0.0187 -0.7117 -0.1370
16044TIP3    H169623   2.685   1.184   2.861 -0.3894 -0.3056 -1.4863
16044TIP3    H269624   2.782   1.067   2.865 -0.3600 -0.2561  1.1330
16045TIP3   OH269625   2.217   5.843   2.059  0.0055 -0.1498  0.1331
16045TIP3    H169626   2.158   5.836   2.134  1.2008 -2.5954  0.9483
16045TIP3    H269627   2.266   5.761   2.059  0.3087 -0.1091 -3.1485
16046TIP3   OH269628   2.816   6.126   4.930  0.3085 -0.8498  0.6598
16046TIP3    H169629   2.802   6.041   4.973 -2.4004 -0.9771 -0.2710
16046TIP3    H269630   2.746   6.182   4.964 -0.2894 -0.1665 -1.5312
16047TIP3   OH269631   6.080   2.750   0.208  0.4700  0.3975  0.6128
16047TIP3    H169632   6.062   2.712   0.294  0.4726 -1.0806 -0.0094
16047TIP3    H269633   6.081   2.845   0.224 -3.9346  0.5233  1.4537
16048TIP3   OH269634   2.504   3.039  12.932 -0.2506  0.3641 -0.5234
16048TIP3    H169635   2.523   2.969  12.869  1.7166  1.1310 -0.8621
16048TIP3    H269636   2.566   3.109  12.909 -1.2363  1.6787  0.6644
16049TIP3   OH269637   1.894   3.324   3.453  0.1123  0.1602  0.0132
16049TIP3    H169638   1.834   3.250   3.457  1.9793 -1.3546  1.6335
16049TIP3    H269639   1.902   3.354   3.543  2.3604 -0.1793 -0.0218
16050TIP3   OH269640   2.814   6.319  10.722 -0.1246 -0.0865 -0.0848
16050TIP3    H169641   2.745   6.361  10.773  1.5069  2.6900  0.0107
16050TIP3    H269642   2.801   6.350  10.633 -0.0857 -1.0612 -0.4440
16051TIP3   OH269643   5.876   1.793   5.502  0.6221  0.3682  0.5482
16051TIP3    H169644   5.911   1.729   5.564 -1.7208 -1.9745 -0.3218
16051TIP3    H269645   5.820   1.850   5.555  3.0065  2.0574  1.3943
16052TIP3   OH269646   6.684   0.969   0.891 -0.4268 -0.2040 -0.0939
16052TIP3    H169647   6.636   0.954   0.810 -1.2095  0.4836  0.2298
16052TIP3    H269648   6.712   1.060   0.886 -0.1101 -0.2801  0.2261
16053TIP3   OH269649   1.091   0.712  12.558  0.1462 -0.5466  0.5020
16053TIP3    H169650   1.173   0.690  12.514  0.5053 -0.4526  1.1183
16053TIP3    H269651   1.117   0.770  12.630 -0.5876  0.4947 -0.0458
16054TIP3   OH269652   1.006   4.463  12.992 -0.1783 -1.2533 -0.0111
16054TIP3    H169653   0.975   4.518  13.064  2.5622  0.5418 -0.0239
16054TIP3    H269654   1.039   4.384  13.035 -0.5616 -1.1639  0.4579
16055TIP3   OH269655   1.406   0.398  14.655 -0.3199  0.0952 -0.1675
16055TIP3    H169656   1.426   0.468  14.592 -2.4374  0.2440 -0.7645
16055TIP3    H269657   1.440   0.319  14.614  2.0458  0.7131  0.4784
16056TIP3   OH269658   1.430   4.568   4.934  0.5973 -0.0720  0.0798
16056TIP3    H169659   1.516   4.530   4.950  0.3672 -0.6593 -0.0676
16056TIP3    H269660   1.406   4.609   5.017  0.5359 -0.8651  0.4612
16057TIP3   OH269661   3.112   0.103  15.776 -0.2913 -1.0140 -0.3662
16057TIP3    H169662   3.121   0.197  15.789 -0.9144 -1.3385  3.6822
16057TIP3    H269663   3.202   0.070  15.776  0.0570 -0.4161 -3.5768
16058TIP3   OH269664   5.746   1.821  14.320  0.1967  0.1502 -0.3954
16058TIP3    H169665   5.671   1.876  14.301 -0.4751 -0.5324  0.2465
16058TIP3    H269666   5.811   1.880  14.359 -0.5307  0.4856  0.3274
16059TIP3   OH269667   0.130   3.501  16.714  0.4269  0.5478 -0.3392
16059TIP3    H169668   0.200   3.500  16.780  1.3195 -0.6962 -1.2314
16059TIP3    H269669   0.166   3.553  16.643 -0.6910  2.2161  0.2744
16060TIP3   OH269670   1.547   6.635   1.633  0.0981  0.0337  0.2627
16060TIP3    H169671   1.459   6.600   1.622 -0.4167  0.7770  1.8716
16060TIP3    H269672   1.604   6.560   1.617 -0.8653 -0.7430  0.3801
16061TIP3   OH269673   5.242   2.468   3.475  0.0900 -0.1837 -0.6065
16061TIP3    H169674   5.317   2.518   3.508  0.9225 -0.5606 -1.8491
16061TIP3    H269675   5.282   2.395   3.427 -1.0717 -2.0306  1.0777
16062TIP3   OH269676   4.788   2.142   0.533 -0.0421  0.6231 -0.0508
16062TIP3    H169677   4.865   2.189   0.565  1.1030 -1.7392  0.8498
16062TIP3    H269678   4.747   2.106   0.611 -0.2394 -0.8101 -0.7816
16063TIP3   OH269679   4.679   0.235  17.118  0.2297  0.1082  0.1911
16063TIP3    H169680   4.671   0.140  17.113 -1.0266  0.2122 -0.0405
16063TIP3    H269681   4.631   0.259  17.198  2.5021  0.3624  1.5658
16064TIP3   OH269682   5.188   4.484  12.727 -0.0647 -0.1059  0.2527
16064TIP3    H169683   5.149   4.490  12.814 -2.8306 -0.4757 -0.8417
16064TIP3    H269684   5.129   4.536  12.671  1.7965  0.3956 -1.3491
16065TIP3   OH269685   0.617   2.686  14.225 -0.5171  0.2787  0.2470
16065TIP3    H169686   0.673   2.712  14.298 -0.6059 -1.1914  0.8822
16065TIP3    H269687   0.659   2.723  14.147  0.8494 -0.0479  0.8029
16066TIP3   OH269688   3.765   4.373  15.297 -0.0479  0.1361 -0.1821
16066TIP3    H169689   3.711   4.303  15.332  0.5367 -0.1727  0.1175
16066TIP3    H269690   3.706   4.424  15.242 -0.5495 -0.4168 -0.1643
16067TIP3   OH269691   2.819   0.427   3.588 -0.0486 -0.3608  0.2859
16067TIP3    H169692   2.904   0.429   3.543  0.7734 -2.4248  1.5728
16067TIP3    H269693   2.774   0.351   3.551 -0.7872 -0.0493  0.5294
16068TIP3   OH269694   5.007   2.362  10.466 -0.2457 -0.2987  0.1655
16068TIP3    H169695   5.012   2.274  10.428 -0.5694 -0.0378 -0.5048
16068TIP3    H269696   5.041   2.352  10.555 -0.1988 -1.0829  0.0665
16069TIP3   OH269697   2.735   3.504   1.330  0.3639  0.0253  0.2501
16069TIP3    H169698   2.825   3.477   1.310  0.6804 -1.0236  2.6715
16069TIP3    H269699   2.729   3.594   1.298  1.8381 -0.3138 -1.1133
16070TIP3   OH269700   5.633   4.168  11.719 -0.2077  0.4034 -0.3871
16070TIP3    H169701   5.634   4.219  11.800 -0.7869  1.4245 -1.0060
16070TIP3    H269702   5.652   4.232  11.651  0.6185 -0.5087 -1.0378
16071TIP3   OH269703   4.843   2.689  14.616 -0.2233  0.5855  0.8034
16071TIP3    H169704   4.864   2.776  14.650  0.0612  0.6453  0.4850
16071TIP3    H269705   4.800   2.706  14.532  1.3752  0.3934 -0.0953
16072TIP3   OH269706   3.518   0.061  13.033 -0.0467 -0.0877  0.2037
16072TIP3    H169707   3.450   0.072  13.100 -0.0999  0.7513  0.0293
16072TIP3    H269708   3.525  -0.033  13.021 -0.7628 -0.2082  0.6545
16073TIP3   OH269709   3.044   0.432   3.460 -0.2273  0.3858  0.6335
16073TIP3    H169710   3.127   0.468   3.491  1.3114 -2.4776  0.2137
16073TIP3    H269711   3.034   0.468   3.372  1.7196 -0.7746 -0.1358
16074TIP3   OH269712   5.253   5.303  13.119  0.6466  0.5337 -0.0029
16074TIP3    H169713   5.293   5.390  13.122  1.5507  0.2452 -1.9811
16074TIP3    H269714   5.316   5.249  13.072  0.5835 -1.5155  2.1133
16075TIP3   OH269715   5.179   6.086   6.417  0.4922 -0.5179  0.2880
16075TIP3    H169716   5.256   6.121   6.373 -0.2760  0.4848 -0.2820
16075TIP3    H269717   5.208   6.000   6.450  2.1054  0.1855  0.8433
16076TIP3   OH269718   2.731   3.059  13.777 -0.0416  0.0171  0.2661
16076TIP3    H169719   2.685   3.039  13.695 -1.0304  0.7061  0.6308
16076TIP3    H269720   2.771   3.144  13.762  0.4872 -0.2336  0.2206
16077TIP3   OH269721   6.715   2.009  12.137  0.5064 -0.2790 -0.2591
16077TIP3    H169722   6.694   1.994  12.045 -0.2669  1.4770 -0.3975
16077TIP3    H269723   6.806   1.980  12.146  0.2387 -1.5588 -1.2745
16078TIP3   OH269724   2.459   0.444  16.632 -0.1170 -0.7263  0.0770
16078TIP3    H169725   2.417   0.530  16.639  0.3676 -0.4226 -0.6237
16078TIP3    H269726   2.546   0.462  16.596  0.7410 -1.3296  1.7756
16079TIP3   OH269727   1.910   3.913  13.231 -0.0826  0.0084  0.3328
16079TIP3    H169728   1.897   4.007  13.246 -1.0252 -0.0633 -0.0081
16079TIP3    H269729   1.999   3.907  13.195 -0.5602  0.9377 -1.0628
16080TIP3   OH269730   3.565   4.383  13.368 -0.2342 -0.6040  0.1468
16080TIP3    H169731   3.577   4.302  13.419 -0.0227  0.0396  1.1652
16080TIP3    H269732   3.644   4.389  13.315  0.8360  0.0780  1.7504
16081TIP3   OH269733   2.366   3.257  14.828 -0.3069  0.1822 -0.3538
16081TIP3    H169734   2.375   3.228  14.738 -0.9375 -0.7900 -0.1177
16081TIP3    H269735   2.420   3.197  14.879 -2.0003 -0.9738  0.1925
16082TIP3   OH269736   4.527   4.541   2.789  0.3672 -0.3339 -0.1852
16082TIP3    H169737   4.562   4.625   2.759 -1.2288  0.6603  0.5605
16082TIP3    H269738   4.526   4.548   2.884 -0.8988 -0.6832 -0.1473
16083TIP3   OH269739   3.562   1.993  14.103  0.3264 -0.5409  0.6660
16083TIP3    H169740   3.579   1.902  14.080  0.6285 -0.5870  1.0513
16083TIP3    H269741   3.572   2.042  14.021  1.1594 -0.7235  0.6509
16084TIP3   OH269742   5.849   3.509  12.051 -0.4218 -0.4411  0.0606
16084TIP3    H169743   5.918   3.563  12.089 -0.1311 -1.1282  0.5463
16084TIP3    H269744   5.786   3.571  12.015 -0.4956  0.2325  1.3182
16085TIP3   OH269745   1.962   2.003   1.836 -0.3136 -0.3465 -0.6964
16085TIP3    H169746   2.043   1.999   1.785  0.5199  1.7237  0.3228
16085TIP3    H269747   1.893   2.006   1.771  0.6422  0.9355 -1.7257
16086TIP3   OH269748   6.710   2.740   5.451  0.4664 -0.0631  0.1817
16086TIP3    H169749   6.645   2.782   5.395  0.2966 -0.9883 -0.3462
16086TIP3    H269750   6.780   2.714   5.391  0.3940 -0.8584  0.4320
16087TIP3   OH269751   1.117   1.484  12.932  0.2207  0.4194 -0.5882
16087TIP3    H169752   1.044   1.465  12.873  0.0409 -0.2963 -0.1480
16087TIP3    H269753   1.078   1.482  13.019  0.6084  0.8472 -0.4044
16088TIP3   OH269754   3.155   5.276  13.280 -0.1611  0.2940  0.1627
16088TIP3    H169755   3.177   5.214  13.211  1.6017  3.2753 -2.2028
16088TIP3    H269756   3.191   5.237  13.360  1.9516 -1.2120 -1.4089
16089TIP3   OH269757   0.822   1.563   0.523 -0.7028 -0.7018  0.3750
16089TIP3    H169758   0.742   1.587   0.569 -0.1316 -0.3714  1.2133
16089TIP3    H269759   0.815   1.608   0.438 -0.4564  1.0907  1.2447
16090TIP3   OH269760   4.546   4.083   1.454  0.0112  0.8818  0.5403
16090TIP3    H169761   4.500   4.002   1.437  0.0658  0.7934  0.8198
16090TIP3    H269762   4.512   4.114   1.538  0.3445  0.8940  0.6730
16091TIP3   OH269763   4.739   5.846   4.790 -0.7008  0.1558 -0.1853
16091TIP3    H169764   4.652   5.829   4.827 -0.2112 -0.0246  0.9043
16091TIP3    H269765   4.791   5.770   4.815 -0.1467  0.3995 -0.5920
16092TIP3   OH269766   1.117   1.621  10.884 -0.0136 -0.0493 -0.5474
16092TIP3    H169767   1.081   1.574  10.808 -0.5101 -0.2700 -0.1883
16092TIP3    H269768   1.209   1.635  10.863 -0.7093  2.3802 -2.4328
16093TIP3   OH269769   1.489   0.322   5.799 -0.2919 -0.2106 -0.4476
16093TIP3    H169770   1.518   0.249   5.854 -0.2659  0.1781  0.0683
16093TIP3    H269771   1.543   0.317   5.720  0.4051 -0.1533  0.0192
16094TIP3   OH269772   3.979   5.403   0.019  0.4758  0.1025  0.0463
16094TIP3    H169773   3.931   5.328  -0.014  1.1078  0.6355 -2.3263
16094TIP3    H269774   4.011   5.376   0.105  0.3426 -2.1728 -0.5559
16095TIP3   OH269775   5.553   2.642  14.765 -0.2000  0.4453  0.0249
16095TIP3    H169776   5.613   2.687  14.706  1.6764  1.7918  2.7375
16095TIP3    H269777   5.478   2.700  14.773  0.4383  1.2199  0.4712
16096TIP3   OH269778   2.150   6.568   5.240 -0.3754 -0.2331  0.1227
16096TIP3    H169779   2.141   6.653   5.283 -0.6057 -0.6346  0.8747
16096TIP3    H269780   2.186   6.589   5.154  0.6558  0.5352  0.7195
16097TIP3   OH269781   2.350   6.572   0.330 -0.3033  0.0184 -0.2735
16097TIP3    H169782   2.413   6.625   0.379  1.0750 -1.5385 -0.2982
16097TIP3    H269783   2.357   6.604   0.240  0.4943 -0.1857 -0.2863
16098TIP3   OH269784   6.718   6.823   1.657 -0.5608 -0.2755 -0.5661
16098TIP3    H169785   6.743   6.912   1.633 -0.3110 -0.3106 -0.4373
16098TIP3    H269786   6.637   6.833   1.707  0.0241 -0.0342  0.3469
16099TIP3   OH269787   5.413   5.153   3.444 -0.5364 -0.3194 -0.1622
16099TIP3    H169788   5.494   5.150   3.392 -1.4433  0.0915 -1.6528
16099TIP3    H269789   5.393   5.246   3.452 -0.4617 -0.3830  0.8788
16100TIP3   OH269790   6.020   6.769  10.736 -0.3905  0.2724  0.5000
16100TIP3    H169791   6.053   6.757  10.647 -1.7294 -0.5534  0.0889
16100TIP3    H269792   5.952   6.836  10.727 -0.5930  0.1181  0.8827
16101TIP3   OH269793   5.808   0.240  10.365 -0.3085  0.2345 -0.3875
16101TIP3    H169794   5.744   0.283  10.422  0.3150  0.0929  0.4482
16101TIP3    H269795   5.824   0.304  10.295  0.4200  1.2991  0.7002
16102TIP3   OH269796   2.256   1.881  13.684  0.4355 -0.1018  0.3443
16102TIP3    H169797   2.306   1.805  13.713  2.9550  1.0203 -0.6928
16102TIP3    H269798   2.302   1.956  13.723 -0.7384  0.9920 -0.2840
16103TIP3   OH269799   0.289   2.544  16.317 -0.0596  0.1140 -0.1577
16103TIP3    H169800   0.338   2.462  16.308  1.6409  1.0986 -0.2732
16103TIP3    H269801   0.200   2.522  16.287  0.4707 -1.5595 -0.6322
16104TIP3   OH269802   2.556   2.088   5.089  0.3278  0.2770  0.6195
16104TIP3    H169803   2.548   2.177   5.124  0.2843  0.6769 -0.3696
16104TIP3    H269804   2.613   2.043   5.151 -0.3745  0.7187  1.6297
16105TIP3   OH269805   2.398   2.416  11.784  0.4545 -0.0813 -0.1518
16105TIP3    H169806   2.327   2.355  11.767  1.3195 -1.0189 -0.4701
16105TIP3    H269807   2.355   2.502  11.785 -0.9132 -0.7242  1.0989
16106TIP3   OH269808   0.958   2.431  13.451  0.0481  0.4533 -0.1376
16106TIP3    H169809   1.039   2.454  13.497  0.1467  0.4168 -0.2888
16106TIP3    H269810   0.971   2.340  13.424 -0.6343 -0.0206  1.0710
16107TIP3   OH269811   2.462   3.484   2.688  0.3122 -0.0688 -0.1588
16107TIP3    H169812   2.496   3.505   2.601  1.0799 -0.7257 -0.0354
16107TIP3    H269813   2.382   3.537   2.697  2.1858  2.9539  0.2237
16108TIP3   OH269814   2.777   5.727  12.901 -0.0432 -0.1446 -0.4036
16108TIP3    H169815   2.780   5.732  12.996  1.9680  1.7705 -0.5002
16108TIP3    H269816   2.699   5.778  12.877 -1.4211 -1.8615  0.2030
16109TIP3   OH269817   3.403   5.966  11.919  0.5779  0.1178 -0.1491
16109TIP3    H169818   3.484   5.932  11.957  0.2083 -0.6170  0.0106
16109TIP3    H269819   3.363   5.889  11.877 -0.6046  0.2093  0.7782
16110TIP3   OH269820   4.529   3.962   2.663  0.4216 -0.1204  0.0629
16110TIP3    H169821   4.478   3.902   2.609 -0.0647  0.4853 -0.1604
16110TIP3    H269822   4.482   4.045   2.658  1.3230  0.4022  0.0199
16111TIP3   OH269823   0.207   5.258   3.118  0.1249  0.9078 -0.0537
16111TIP3    H169824   0.208   5.187   3.182 -2.8739  0.4628 -0.3436
16111TIP3    H269825   0.243   5.219   3.038 -1.9508 -0.5893 -0.3644
16112TIP3   OH269826   4.420   4.207   2.423 -0.0224 -0.0968  0.1445
16112TIP3    H169827   4.482   4.246   2.361  1.7343 -1.3266  1.0637
16112TIP3    H269828   4.447   4.240   2.508 -0.6327 -0.6794  0.5722
16113TIP3   OH269829   0.888   3.407   3.224 -0.2189 -0.5967 -0.0191
16113TIP3    H169830   0.961   3.353   3.192  0.4746 -0.2268  0.8914
16113TIP3    H269831   0.881   3.478   3.160  2.2126  1.0539  1.3608
16114TIP3   OH269832   5.201   1.693  15.816 -0.0164  0.4977 -0.1642
16114TIP3    H169833   5.184   1.758  15.747 -0.3130  1.1269  0.4931
16114TIP3    H269834   5.223   1.613  15.768  2.1247  1.5213 -1.0028
16115TIP3   OH269835   1.898   0.656  14.530 -0.0382  0.1163 -0.4083
16115TIP3    H169836   1.875   0.644  14.438 -0.2326  0.7183 -0.4405
16115TIP3    H269837   1.895   0.568  14.567 -1.0631  0.0082 -0.7184
16116TIP3   OH269838   6.413   3.494  12.951  0.2797 -0.6881 -0.1985
16116TIP3    H169839   6.503   3.461  12.953  0.4503 -0.2683 -0.6439
16116TIP3    H269840   6.398   3.528  13.039  0.5553 -0.7758 -0.1163
16117TIP3   OH269841   3.154   4.575  13.299 -0.4427  0.0067  0.2389
16117TIP3    H169842   3.084   4.550  13.239  0.1107 -0.1597 -0.3488
16117TIP3    H269843   3.229   4.523  13.272  0.9889  2.7757 -1.5398
16118TIP3   OH269844   4.140   5.618   3.572  0.2352  0.1977  0.2526
16118TIP3    H169845   4.218   5.663   3.606 -0.6404  0.1573  2.4783
16118TIP3    H269846   4.112   5.561   3.643  0.1080 -2.4434 -1.7425
16119TIP3   OH269847   6.528   5.766   2.353 -0.0446  0.7008  0.2364
16119TIP3    H169848   6.548   5.672   2.360  0.0864  0.7525  0.5684
16119TIP3    H269849   6.434   5.771   2.369 -0.2672  0.5053 -0.9019
16120TIP3   OH269850   6.368   5.146   2.423 -0.7053  0.5330  0.1422
16120TIP3    H169851   6.401   5.065   2.463  0.7096  0.5451 -0.8882
16120TIP3    H269852   6.288   5.119   2.378  1.3887 -1.2011 -2.9738
16121TIP3   OH269853   5.992   4.620  14.807 -0.0150  0.2745 -0.6631
16121TIP3    H169854   6.043   4.678  14.751 -0.6072  0.8937 -0.5816
16121TIP3    H269855   5.975   4.672  14.886 -1.4919  0.4046 -1.0371
16122TIP3   OH269856   5.957   0.621  16.321  0.2940  0.9277 -0.7914
16122TIP3    H169857   5.977   0.562  16.249  0.5145 -0.3989  0.3301
16122TIP3    H269858   5.987   0.707  16.291  1.3978  0.2011 -1.8311
16123TIP3   OH269859   5.103   0.146   5.902 -0.5001  0.1091 -0.1354
16123TIP3    H169860   5.044   0.098   5.960  1.4903 -0.4442  1.5670
16123TIP3    H269861   5.190   0.129   5.938  0.5074  3.0975 -0.8583
16124TIP3   OH269862   0.827   4.137  15.088 -0.5219  0.2799 -0.0850
16124TIP3    H169863   0.801   4.210  15.032 -1.9513  0.0383  0.2399
16124TIP3    H269864   0.855   4.068  15.028 -1.9692  0.0511 -0.5171
16125TIP3   OH269865   5.710   6.216   1.499  0.1664 -0.1709  0.1731
16125TIP3    H169866   5.709   6.162   1.420  2.0645 -1.2588  0.8364
16125TIP3    H269867   5.764   6.291   1.476  0.1179 -0.1174  0.2320
16126TIP3   OH269868   2.360   1.737  14.836  0.1346 -0.1476 -0.3349
16126TIP3    H169869   2.371   1.718  14.929 -1.3424 -1.4190 -0.3694
16126TIP3    H269870   2.379   1.654  14.792 -3.2182 -0.8639 -0.7639
16127TIP3   OH269871   0.999   3.201  12.773  0.3444 -0.1741 -0.7778
16127TIP3    H169872   1.008   3.271  12.837  0.9643 -1.5584  0.7272
16127TIP3    H269873   1.049   3.232  12.697  0.1228  1.2362 -0.3780
16128TIP3   OH269874   6.716   0.340   2.395 -0.8038 -0.2325 -0.2397
16128TIP3    H169875   6.782   0.386   2.344 -0.9561 -1.8744 -2.0279
16128TIP3    H269876   6.762   0.265   2.433 -1.1003 -0.0163  0.5683
16129TIP3   OH269877   0.055   1.234   3.343  0.0640 -0.0554  0.0927
16129TIP3    H169878   0.125   1.274   3.290  0.3551 -2.6559 -1.6944
16129TIP3    H269879  -0.023   1.239   3.287  0.1143 -1.8526 -0.1997
16130TIP3   OH269880   4.637   1.609   0.251 -0.4496 -0.3099 -0.5450
16130TIP3    H169881   4.694   1.580   0.322 -1.3270 -1.1911 -0.1597
16130TIP3    H269882   4.688   1.674   0.202  0.1334  0.4014  0.9585
16131TIP3   OH269883   6.211   3.248  14.422  0.2288  0.2036 -0.1438
16131TIP3    H169884   6.160   3.319  14.382  0.5025 -0.1809 -1.2186
16131TIP3    H269885   6.145   3.193  14.465 -0.2738 -0.1937 -1.3637
16132TIP3   OH269886   3.065   2.522   5.565  0.1735 -0.1038 -0.2759
16132TIP3    H169887   3.052   2.584   5.637 -0.6089 -0.4269 -0.1333
16132TIP3    H269888   3.042   2.571   5.487  2.0991  0.6085 -0.4556
16133TIP3   OH269889   0.022   1.392  14.025  0.2889 -0.0634  0.0706
16133TIP3    H169890   0.019   1.344  13.942 -0.0707  1.7638 -1.0351
16133TIP3    H269891   0.036   1.483  14.000 -4.1730  1.3580  1.6089
16134TIP3   OH269892   6.446   5.169  16.638  0.0898  0.2257  0.6807
16134TIP3    H169893   6.484   5.083  16.658 -1.3396 -0.2719  1.4232
16134TIP3    H269894   6.426   5.165  16.545 -0.1823 -0.3502  0.7578
16135TIP3   OH269895   5.504   5.722  15.069  0.5991 -0.0815 -0.2417
16135TIP3    H169896   5.540   5.654  15.012  0.9830 -0.3968  0.3731
16135TIP3    H269897   5.536   5.700  15.156  0.7057  0.8762 -0.0323
16136TIP3   OH269898   5.014   4.543   4.395 -0.0581 -0.8173 -0.2500
16136TIP3    H169899   5.068   4.470   4.426 -0.0300  0.1687  2.2984
16136TIP3    H269900   4.932   4.502   4.368 -0.0849 -1.8199  1.2107
16137TIP3   OH269901   0.354   6.209   4.604  0.4842  0.6410 -0.0607
16137TIP3    H169902   0.412   6.276   4.568 -2.3639  2.4145 -1.7528
16137TIP3    H269903   0.286   6.259   4.650 -0.2700 -1.2546  0.9754
16138TIP3   OH269904   0.559   4.142  12.065 -0.2394 -0.6036 -0.4025
16138TIP3    H169905   0.512   4.167  11.986  1.2244 -0.8124 -1.3783
16138TIP3    H269906   0.541   4.048  12.074 -2.0911 -0.1844  0.7267
16139TIP3   OH269907   3.648   2.755   2.375  0.7066  0.8578  0.7443
16139TIP3    H169908   3.571   2.714   2.413  0.5526 -0.8305 -1.2026
16139TIP3    H269909   3.613   2.820   2.314  0.8114  0.4961  0.2906
16140TIP3   OH269910   2.489   1.750  12.847 -0.2172 -0.2423  0.2820
16140TIP3    H169911   2.447   1.813  12.906 -0.1697  0.6835 -0.6419
16140TIP3    H269912   2.487   1.793  12.761  0.7060 -1.0897 -0.1824
16141TIP3   OH269913   1.987   3.048   3.547  0.7368  0.5940  0.6307
16141TIP3    H169914   2.045   3.061   3.621  0.5048 -0.2052  0.9643
16141TIP3    H269915   1.917   2.992   3.580  0.4493  0.5033 -0.0973
16142TIP3   OH269916   0.449   2.610  11.975  0.1391  0.3313 -0.7679
16142TIP3    H169917   0.424   2.522  11.948  1.2461 -0.3970  0.4828
16142TIP3    H269918   0.371   2.644  12.020 -0.3495  0.0579 -1.3963
16143TIP3   OH269919   3.689   2.300  13.124  0.0694  0.4464  0.3048
16143TIP3    H169920   3.601   2.325  13.095  0.9685  0.1638 -3.1990
16143TIP3    H269921   3.745   2.372  13.093  1.2491 -0.1152  1.0853
16144TIP3   OH269922   4.126   6.499   5.409  0.7825 -0.0684  0.7172
16144TIP3    H169923   4.096   6.457   5.489 -3.7011  1.1381 -0.0161
16144TIP3    H269924   4.142   6.427   5.348 -1.3271 -0.9412  1.1092
16145TIP3   OH269925   2.245   4.579  16.289 -0.1090 -0.1466  0.1852
16145TIP3    H169926   2.190   4.656  16.272 -1.1594 -0.6697  1.0771
16145TIP3    H269927   2.335   4.611  16.281 -0.5014  0.6940 -1.5672
16146TIP3   OH269928   3.801   6.315  14.894  0.0302 -0.2832 -0.2274
16146TIP3    H169929   3.860   6.369  14.946 -0.9405  0.0842  0.5194
16146TIP3    H269930   3.714   6.330  14.931 -0.4861 -1.1602 -1.0068
16147TIP3   OH269931   1.111   1.458  15.012  0.6471  0.2071  0.0037
16147TIP3    H169932   1.042   1.496  14.958  0.1709 -0.2509  0.2762
16147TIP3    H269933   1.160   1.402  14.952 -0.7361 -1.4112  0.2965
16148TIP3   OH269934   6.795   1.162  11.370 -0.3191 -0.2811 -0.2724
16148TIP3    H169935   6.766   1.097  11.306  0.0976 -1.5791  0.8246
16148TIP3    H269936   6.883   1.185  11.342 -0.6460  0.2067 -0.9449
16149TIP3   OH269937   4.635   5.688   1.383 -0.4688  0.2455 -0.2853
16149TIP3    H169938   4.661   5.602   1.417 -0.4021  0.6942  0.8486
16149TIP3    H269939   4.549   5.672   1.344 -0.1911 -0.4577 -0.6399
16150TIP3   OH269940   0.048   1.368   6.198  0.0674  0.4658 -0.0284
16150TIP3    H169941   0.050   1.309   6.273  0.2380 -0.9189 -1.0648
16150TIP3    H269942   0.103   1.442   6.224  0.9272 -0.4408  0.8538
16151TIP3   OH269943   6.172   6.775  11.445  0.0251 -0.0329  0.2729
16151TIP3    H169944   6.247   6.723  11.472 -1.1799 -1.2861  1.3858
16151TIP3    H269945   6.178   6.855  11.498  0.0114 -0.6040  1.1735
16152TIP3   OH269946   2.135   3.989   6.749  0.1468  0.5466 -0.1321
16152TIP3    H169947   2.227   3.966   6.763  0.0312 -0.9881 -1.5392
16152TIP3    H269948   2.100   4.002   6.837  1.2712 -0.7213  0.5442
16153TIP3   OH269949   2.756   2.223  16.119  0.1631 -0.4372  0.1121
16153TIP3    H169950   2.789   2.303  16.078 -0.3515 -0.7422 -0.9361
16153TIP3    H269951   2.817   2.155  16.091 -0.1228 -0.6288 -0.0477
16154TIP3   OH269952   4.563   0.702  15.944  0.0648  0.3804 -0.9685
16154TIP3    H169953   4.473   0.677  15.921 -1.2110  1.4653  2.2968
16154TIP3    H269954   4.609   0.619  15.954 -1.0656 -0.2723 -0.9898
16155TIP3   OH269955   2.069   3.290   3.900 -0.1114  0.4013  0.1222
16155TIP3    H169956   1.979   3.286   3.868 -0.2513 -0.8520  0.6205
16155TIP3    H269957   2.106   3.368   3.859 -2.0692  2.2370  1.6212
16156TIP3   OH269958   6.166   3.715   5.935  0.1481 -0.2296  0.1841
16156TIP3    H169959   6.100   3.783   5.953 -0.2342  0.2067 -2.4682
16156TIP3    H269960   6.148   3.647   6.000 -0.5410  1.4485  1.8477
16157TIP3   OH269961   3.769   6.704  14.312  0.0493 -0.8297 -0.3364
16157TIP3    H169962   3.724   6.716  14.229  1.8392 -1.6254 -1.4888
16157TIP3    H269963   3.745   6.617  14.341 -1.9452  0.0722  0.9304
16158TIP3   OH269964   5.314   2.876   2.640 -0.0229  0.2156 -0.0227
16158TIP3    H169965   5.386   2.918   2.687 -0.2027  1.3825 -0.7386
16158TIP3    H269966   5.317   2.914   2.552 -1.0550 -0.2689 -0.2874
16159TIP3   OH269967   4.350   4.290   0.278 -0.0470 -0.7071 -0.2605
16159TIP3    H169968   4.312   4.263   0.194  0.2094 -1.3814 -0.1689
16159TIP3    H269969   4.277   4.325   0.328  0.0802  1.3245 -1.3862
16160TIP3   OH269970   6.158   4.697   5.436  0.8048 -0.7206 -0.0452
16160TIP3    H169971   6.176   4.788   5.409 -0.3176 -0.5553 -0.2563
16160TIP3    H269972   6.176   4.645   5.358  3.3495 -0.9564  0.5845
16161TIP3   OH269973   5.310   2.871   4.412 -0.2456 -0.2039 -0.0462
16161TIP3    H169974   5.297   2.966   4.411  1.1558  0.0788 -3.2776
16161TIP3    H269975   5.363   2.855   4.490  0.1844  1.7900  0.1217
16162TIP3   OH269976   0.372   5.944   2.554  0.6147 -0.2156 -0.4405
16162TIP3    H169977   0.283   5.912   2.566  1.0373 -0.8984  1.0083
16162TIP3    H269978   0.381   6.015   2.618  1.0374  0.0316 -0.7639
16163TIP3   OH269979   4.993   4.656  12.613 -0.2912 -0.3146 -0.1404
16163TIP3    H169980   4.905   4.649  12.652 -0.6407 -0.9576 -1.0167
16163TIP3    H269981   4.977   4.687  12.525  0.3163 -0.9340 -0.4760
16164TIP3   OH269982   0.092   2.280   5.990  0.3175  0.2456  0.3823
16164TIP3    H169983   0.052   2.316   6.070 -1.6198 -0.7055 -0.0947
16164TIP3    H269984   0.146   2.351   5.956 -0.7426  1.5236  1.2683
16165TIP3   OH269985   2.499   4.524  15.966 -0.2550 -0.1176  0.3113
16165TIP3    H169986   2.520   4.431  15.957 -1.4431 -0.3376 -0.3686
16165TIP3    H269987   2.543   4.566  15.891 -0.8356 -0.3289 -0.1495
16166TIP3   OH269988   0.830   4.123  15.595 -0.1558 -0.3991  0.1976
16166TIP3    H169989   0.772   4.166  15.532 -0.1557 -0.5499  0.0950
16166TIP3    H269990   0.915   4.118  15.551 -0.3651 -1.2663 -0.1210
16167TIP3   OH269991   0.815   6.270   1.120  0.0635  0.6548 -0.1400
16167TIP3    H169992   0.903   6.273   1.158  1.3619 -0.9187 -2.7248
16167TIP3    H269993   0.794   6.177   1.116 -2.0883  1.0183  1.0124
16168TIP3   OH269994   4.350   5.541  12.927 -0.3912 -0.1700 -0.1752
16168TIP3    H169995   4.420   5.558  12.990 -0.8251 -4.0733  1.6198
16168TIP3    H269996   4.396   5.524  12.845  0.3822  1.5731 -0.1590
16169TIP3   OH269997   6.572   1.061  13.778  0.1556  0.2685  0.0516
16169TIP3    H169998   6.530   0.976  13.792  1.1585 -0.2465  0.0261
16169TIP3    H269999   6.588   1.064  13.684  3.0608 -1.0007  0.3885
16170TIP3   OH270000   5.015   6.390   5.692  0.4105  0.0230  0.2401
16170TIP3    H170001   5.098   6.355   5.724 -0.2230 -2.5967 -0.6692
16170TIP3    H270002   5.039   6.459   5.630  1.7908  0.7797  1.5525
16171TIP3   OH270003   4.519   2.988  10.637  0.2025  0.0594 -0.0015
16171TIP3    H170004   4.455   2.926  10.671  0.3160  0.2496  0.5659
16171TIP3    H270005   4.520   2.973  10.543  0.5307 -1.0922  0.1784
16172TIP3   OH270006   5.640   0.563   0.499  0.0021  0.5969  0.3924
16172TIP3    H170007   5.636   0.647   0.545 -0.4544  1.0819 -0.4993
16172TIP3    H270008   5.548   0.542   0.480  0.1367  0.0468  0.3296
16173TIP3   OH270009   5.631   3.871  11.077  0.3564 -0.0217 -0.0378
16173TIP3    H170010   5.680   3.925  11.015  0.1423 -1.4568 -1.5185
16173TIP3    H270011   5.654   3.907  11.163  0.8132  1.9048 -0.9057
16174TIP3   OH270012   6.134   4.402  12.891  0.0148  0.0162  0.0948
16174TIP3    H170013   6.150   4.487  12.932  1.6759 -0.2181 -0.0106
16174TIP3    H270014   6.087   4.423  12.810  0.3682  0.8436  0.0949
16175TIP3   OH270015   0.376   4.282  14.894  0.0893 -0.2870  0.3819
16175TIP3    H170016   0.298   4.316  14.851 -0.6426 -0.2195  1.7133
16175TIP3    H270017   0.429   4.360  14.912  0.7977 -0.3963 -1.1105
16176TIP3   OH270018   6.208   2.800   6.061 -0.6257  0.2883  0.1244
16176TIP3    H170019   6.226   2.891   6.039  1.2274  0.8084  3.2007
16176TIP3    H270020   6.139   2.803   6.126  0.4533 -0.3231  1.3511
16177TIP3   OH270021   6.758   1.792   3.098  0.1714 -0.4761  0.0320
16177TIP3    H170022   6.822   1.728   3.067  3.1526  1.0117  2.5317
16177TIP3    H270023   6.777   1.871   3.046 -0.9328 -0.5192 -0.4624
16178TIP3   OH270024   0.332   5.980  11.200  0.2006  0.0615 -0.0278
16178TIP3    H170025   0.311   5.891  11.228 -0.1917  0.3328  0.5614
16178TIP3    H270026   0.322   5.979  11.105 -1.1776 -0.1696  0.1056
16179TIP3   OH270027   5.803   1.879  17.021  0.0393  0.2928  0.1851
16179TIP3    H170028   5.877   1.908  17.074  1.3883 -0.8031 -1.0059
16179TIP3    H270029   5.783   1.791  17.054  0.9223 -0.4213 -1.0764
16180TIP3   OH270030   5.971   2.704   2.563 -0.2356 -0.1985  0.3870
16180TIP3    H170031   5.954   2.790   2.524  0.7684  0.5096  1.4455
16180TIP3    H270032   5.932   2.642   2.502 -2.4631  1.0720  0.4116
16181TIP3   OH270033   1.255   2.756   4.508  0.4136  0.1820  0.1162
16181TIP3    H170034   1.189   2.734   4.573  1.2652 -1.1480  0.5612
16181TIP3    H270035   1.289   2.672   4.478  1.1022  0.8091 -0.9554
16182TIP3   OH270036   4.143   6.134   1.948  0.3911 -0.1974  0.0593
16182TIP3    H170037   4.121   6.142   2.041 -1.0464  1.6593 -0.3896
16182TIP3    H270038   4.094   6.057   1.919 -0.5210  0.1995  0.4986
16183TIP3   OH270039   2.235   4.515  12.002 -0.7133  0.3748  0.0236
16183TIP3    H170040   2.245   4.446  12.069 -0.3229  0.0569 -0.3578
16183TIP3    H270041   2.175   4.477  11.937  0.3912 -0.0546 -0.7649
16184TIP3   OH270042   1.820   0.506   1.804 -0.6620 -0.1262  0.1551
16184TIP3    H170043   1.865   0.529   1.885 -1.2784 -0.9664  0.7492
16184TIP3    H270044   1.730   0.537   1.817 -0.6952 -0.0173 -0.3237
16185TIP3   OH270045   3.260   4.852   0.960  0.5977 -0.0437  0.0057
16185TIP3    H170046   3.291   4.860   1.050  0.5260  0.6418 -0.0243
16185TIP3    H270047   3.339   4.853   0.907  0.5732  1.8112 -0.0786
16186TIP3   OH270048   3.338   2.408  12.046  0.2947  0.3201  0.4697
16186TIP3    H170049   3.287   2.423  11.967  1.5120  0.8070 -0.2549
16186TIP3    H270050   3.329   2.314  12.063 -0.9366  0.4254  0.4412
16187TIP3   OH270051   4.321   4.597  12.787 -0.2816  0.3733  0.7334
16187TIP3    H170052   4.350   4.552  12.707  1.0796  0.8192  0.9637
16187TIP3    H270053   4.279   4.677  12.756 -2.1604 -0.6901  0.3523
16188TIP3   OH270054   1.589   4.772   2.666  0.8029 -0.4672 -0.7377
16188TIP3    H170055   1.559   4.689   2.629  0.5416 -0.7040  0.0065
16188TIP3    H270056   1.586   4.759   2.761  0.1129  0.6189 -0.5952
16189TIP3   OH270057   5.717   6.502   5.279 -0.1709 -0.3883 -0.5752
16189TIP3    H170058   5.625   6.515   5.256 -0.1469  1.4506  0.1818
16189TIP3    H270059   5.755   6.459   5.203 -1.3808  0.0190 -1.4329
16190TIP3   OH270060   1.344   5.476   4.203  0.0238 -0.3695  0.1370
16190TIP3    H170061   1.286   5.442   4.135 -1.5987  1.5181  0.4828
16190TIP3    H270062   1.295   5.550   4.241  1.4858 -0.4807  2.3771
16191TIP3   OH270063   4.390   0.885   0.060  0.2883 -0.3769  0.1649
16191TIP3    H170064   4.468   0.870   0.113 -0.3546  0.0682  1.2812
16191TIP3    H270065   4.327   0.819   0.090  0.3429 -0.9976 -1.0033
16192TIP3   OH270066   4.176   2.441   4.158 -0.0527 -0.0875  0.2092
16192TIP3    H170067   4.106   2.380   4.140 -0.0416  0.0369 -0.2648
16192TIP3    H270068   4.134   2.527   4.160  0.2267  0.1007 -1.0684
16193TIP3   OH270069   0.837   6.527  15.705  0.0688  0.2540  0.7646
16193TIP3    H170070   0.747   6.516  15.737 -0.2812 -0.0815 -0.2963
16193TIP3    H270071   0.830   6.594  15.637  0.1191 -1.5909 -1.1846
16194TIP3   OH270072   6.343   1.434   3.199  0.5419 -0.2644 -0.2799
16194TIP3    H170073   6.330   1.529   3.195 -1.4043 -0.1593  3.7439
16194TIP3    H270074   6.395   1.420   3.278 -2.3204 -2.5754  1.4409
16195TIP3   OH270075   5.886   5.998   4.986 -0.3913 -0.0748 -0.5560
16195TIP3    H170076   5.898   5.963   4.897 -0.2883 -0.6939 -0.3035
16195TIP3    H270077   5.935   5.938   5.042 -1.8840 -0.6843  0.1213
16196TIP3   OH270078   4.891   6.506  15.686  0.0978  0.0128  0.1581
16196TIP3    H170079   4.814   6.557  15.660  0.7064  0.6730 -0.4323
16196TIP3    H270080   4.961   6.571  15.692 -0.0278  0.0196  3.9524
16197TIP3   OH270081   6.649   1.412   1.095 -0.0151  0.4030  0.2986
16197TIP3    H170082   6.657   1.350   1.168 -0.0526 -0.6043 -0.5263
16197TIP3    H270083   6.561   1.397   1.061 -0.1442  1.1560  0.2999
16198TIP3   OH270084   2.225   2.604   5.456 -0.9181 -0.0313  0.3602
16198TIP3    H170085   2.147   2.623   5.508 -0.4845  1.7569  0.4133
16198TIP3    H270086   2.296   2.602   5.521 -0.2832  2.7733 -0.1159
16199TIP3   OH270087   5.500   0.794   2.939 -0.2014 -0.0086 -0.1404
16199TIP3    H170088   5.421   0.842   2.964 -1.0452 -0.2771 -2.0777
16199TIP3    H270089   5.559   0.805   3.013 -2.1089  0.0554  1.4528
16200TIP3   OH270090   4.724   1.472   1.262  0.2353  0.3815 -0.6899
16200TIP3    H170091   4.721   1.409   1.191  0.7803  0.6327 -0.9416
16200TIP3    H270092   4.816   1.477   1.286 -0.2157 -1.8584  2.0010
16201TIP3   OH270093   4.177   1.582   4.560  0.1676 -0.6672 -0.5121
16201TIP3    H170094   4.126   1.501   4.553  0.8730 -1.2067  0.4033
16201TIP3    H270095   4.185   1.613   4.469  0.6388 -2.0925 -0.9783
16202TIP3   OH270096   4.768   0.886  13.514 -0.2023 -0.7589 -0.0516
16202TIP3    H170097   4.795   0.816  13.455  2.9064  0.0843  0.2052
16202TIP3    H270098   4.762   0.964  13.458 -0.3863 -0.5917  0.1986
16203TIP3   OH270099   1.962   1.401  14.757 -0.3067  0.0444 -0.2337
16203TIP3    H170100   2.028   1.467  14.737 -0.3200 -0.2092 -1.1863
16203TIP3    H270101   1.889   1.423  14.699 -0.5471 -0.4400 -0.1147
16204TIP3   OH270102   0.273   0.837   1.592  0.1144  0.0145 -0.1331
16204TIP3    H170103   0.298   0.748   1.569  0.8612  0.2059 -0.0906
16204TIP3    H270104   0.334   0.862   1.661  0.1054  0.6650 -0.3535
16205TIP3   OH270105   2.737   4.348  13.819 -0.0685  0.1926  0.3029
16205TIP3    H170106   2.783   4.317  13.897 -1.0656  2.0752  1.7405
16205TIP3    H270107   2.803   4.397  13.770  0.5687 -1.0161 -0.0776
16206TIP3   OH270108   5.066   0.295   4.805  0.5904  0.5255 -0.0938
16206TIP3    H170109   5.045   0.234   4.877  0.0996  1.5278  0.6354
16206TIP3    H270110   5.152   0.266   4.774 -0.9258 -2.5755 -1.9551
16207TIP3   OH270111   2.479   1.417   1.652 -0.3286  0.0597  0.5255
16207TIP3    H170112   2.509   1.493   1.600 -0.9554  1.6455  2.3573
16207TIP3    H270113   2.559   1.381   1.689 -0.1511  1.0446  1.1622
16208TIP3   OH270114   2.865   6.211   0.846  0.3081  0.1264  0.1091
16208TIP3    H170115   2.884   6.271   0.919  1.0196 -1.5255  1.3297
16208TIP3    H270116   2.801   6.150   0.882  2.6845 -2.4193  0.3624
16209TIP3   OH270117   6.690   4.348   1.202  0.6127 -0.4602 -0.5595
16209TIP3    H170118   6.755   4.409   1.167 -0.2349  1.2594  0.6824
16209TIP3    H270119   6.735   4.263   1.205  2.3650  0.4158 -0.8963
16210TIP3   OH270120   4.532   2.846  11.962 -0.1484 -0.0372  0.0524
16210TIP3    H170121   4.533   2.940  11.977 -0.6743  0.0064 -0.1482
16210TIP3    H270122   4.611   2.814  12.004 -0.5429  0.3385  1.1329
16211TIP3   OH270123   6.039   5.159   5.190 -0.1236 -0.5834 -0.5422
16211TIP3    H170124   6.048   5.254   5.186 -0.2788 -0.5742 -0.6858
16211TIP3    H270125   5.944   5.143   5.192 -0.1553 -0.7982 -2.4001
16212TIP3   OH270126   6.125   0.208  13.097 -0.1535  0.2126 -0.3293
16212TIP3    H170127   6.039   0.173  13.120 -0.0098 -0.0272 -0.1527
16212TIP3    H270128   6.160   0.241  13.180  0.3313 -0.5725 -0.2108
16213TIP3   OH270129   5.676   4.586  16.551 -0.2080  0.1764 -0.7051
16213TIP3    H170130   5.714   4.608  16.636  0.4439  0.3360 -1.0335
16213TIP3    H270131   5.736   4.522  16.513 -0.6431 -0.1032 -0.9257
16214TIP3   OH270132   4.832   4.133  11.625 -0.1348  0.6433 -0.2620
16214TIP3    H170133   4.794   4.209  11.669  1.2119  0.9657  0.4126
16214TIP3    H270134   4.886   4.170  11.555  0.7192  0.3519  0.2221
16215TIP3   OH270135   0.615   5.628   2.010 -0.6211 -0.4285 -0.3397
16215TIP3    H170136   0.532   5.632   2.057 -1.4732  0.8961 -1.8521
16215TIP3    H270137   0.676   5.678   2.064 -0.9275 -0.9899  0.5408
16216TIP3   OH270138   4.284   0.294  11.972 -0.0807  0.4096  0.2325
16216TIP3    H170139   4.189   0.284  11.981 -0.1768  1.6839  0.8067
16216TIP3    H270140   4.313   0.324  12.059  1.1995 -2.2724  0.8417
16217TIP3   OH270141   4.014   2.814  10.982  0.3146  0.1622  0.1703
16217TIP3    H170142   4.056   2.876  11.041 -2.2693  1.4308  0.8061
16217TIP3    H270143   4.022   2.854  10.896 -0.0814  0.6878  0.3725
16218TIP3   OH270144   4.333   4.969   4.604 -0.5409  0.1392  0.2429
16218TIP3    H170145   4.330   4.994   4.512 -0.6995  0.1465  0.2480
16218TIP3    H270146   4.301   4.879   4.606 -0.2392  0.0317  0.2554
16219TIP3   OH270147   2.382   4.754   5.084 -0.2634 -0.8890 -0.2059
16219TIP3    H170148   2.325   4.740   5.008 -0.1455 -2.3091 -0.0708
16219TIP3    H270149   2.422   4.668   5.099  0.0360 -0.5240  1.1945
16220TIP3   OH270150   2.651   6.792  11.913  0.0315  0.4057  0.3341
16220TIP3    H170151   2.740   6.791  11.948 -0.3068 -0.8141  1.2560
16220TIP3    H270152   2.659   6.751  11.827  0.1329 -1.3783  1.1455
16221TIP3   OH270153   0.243   3.318  15.717 -0.5730  0.2702 -0.1513
16221TIP3    H170154   0.322   3.350  15.672 -0.8772  0.4839 -0.5447
16221TIP3    H270155   0.175   3.322  15.650 -1.1338  0.9968  0.4479
16222TIP3   OH270156   5.293   3.828   3.338 -0.3865  0.0878  0.6300
16222TIP3    H170157   5.245   3.816   3.257 -1.5337  0.3377  1.2468
16222TIP3    H270158   5.280   3.747   3.387 -1.6648  0.8006  1.5279
16223TIP3   OH270159   6.662   6.090  13.863 -0.3594  0.1513  0.3208
16223TIP3    H170160   6.611   6.023  13.908 -2.3201 -0.2773 -2.2913
16223TIP3    H270161   6.624   6.173  13.892  0.4178  0.0802  1.6488
16224TIP3   OH270162   5.636   3.142   2.684 -0.2620  0.7937  0.1398
16224TIP3    H170163   5.669   3.070   2.630 -2.1845  0.0391 -0.1121
16224TIP3    H270164   5.648   3.220   2.630  1.4099  0.6397  0.2263
16225TIP3   OH270165   4.432   2.127  12.959  0.6991  0.2899 -0.6112
16225TIP3    H170166   4.375   2.179  12.901 -0.9936 -1.1890 -0.3616
16225TIP3    H270167   4.480   2.069  12.899 -1.6004 -1.7653 -0.5937
16226TIP3   OH270168   3.967   1.692   0.924 -0.9356 -0.5002 -0.2256
16226TIP3    H170169   3.902   1.741   0.974  0.1610  0.6481  0.1246
16226TIP3    H270170   3.964   1.730   0.836  0.6400  0.9830  0.3113
16227TIP3   OH270171   0.705   4.859  12.594  0.2612 -0.0178 -0.7413
16227TIP3    H170172   0.776   4.887  12.651 -0.6935 -0.4499  0.7287
16227TIP3    H270173   0.648   4.935  12.587  0.6655  0.2102 -1.6014
16228TIP3   OH270174   1.338   4.299  13.996  0.4922  0.0736  0.1395
16228TIP3    H170175   1.396   4.256  14.058  1.4598 -0.3346 -1.0031
16228TIP3    H270176   1.275   4.231  13.971  1.6698 -0.5709 -1.2294
16229TIP3   OH270177   2.138   4.662  13.841 -0.6848 -0.1795 -0.7308
16229TIP3    H170178   2.208   4.603  13.867  1.3223  1.5448 -1.9095
16229TIP3    H270179   2.098   4.690  13.923  0.1848 -0.9834 -0.0095
16230TIP3   OH270180   0.251   5.605  13.759 -0.8224 -0.2651  0.8454
16230TIP3    H170181   0.345   5.605  13.778 -1.0139  0.8386  1.8755
16230TIP3    H270182   0.229   5.512  13.747 -0.0778 -0.7702  3.0222
16231TIP3   OH270183   5.880   2.062   3.765 -0.5754 -0.2829 -0.6536
16231TIP3    H170184   5.871   2.107   3.681 -2.2138  0.5588 -0.0678
16231TIP3    H270185   5.973   2.071   3.787 -0.3456  0.4771 -1.8291
16232TIP3   OH270186   2.019   4.753  11.794 -0.0407  0.2577  0.0714
16232TIP3    H170187   1.963   4.751  11.717  0.4377 -0.7015 -0.2634
16232TIP3    H270188   2.015   4.665  11.830  0.0590  0.5837  0.9228
16233TIP3   OH270189   6.642   5.336   4.163  0.1217 -0.3745 -0.2426
16233TIP3    H170190   6.575   5.305   4.224 -0.1454  2.2381  0.9150
16233TIP3    H270191   6.613   5.304   4.077 -1.4361 -1.1150  0.5199
16234TIP3   OH270192   3.314   4.643   2.109 -0.0938 -0.7416 -0.5350
16234TIP3    H170193   3.254   4.641   2.034 -2.4663  0.4232  1.1863
16234TIP3    H270194   3.324   4.551   2.134 -0.3790 -1.0291 -1.4599
16235TIP3   OH270195   1.422   5.562  12.045  0.8833 -0.0692 -0.0487
16235TIP3    H170196   1.334   5.582  12.011  1.1935  0.8106 -0.3712
16235TIP3    H270197   1.409   5.553  12.140  0.3845 -0.3307 -0.1339
16236TIP3   OH270198   4.310   6.634   2.241  0.7796 -0.2105 -0.3128
16236TIP3    H170199   4.364   6.631   2.321  1.1773  1.7445 -0.4672
16236TIP3    H270200   4.373   6.622   2.170  0.9015  1.0951 -0.4469
16237TIP3   OH270201   6.424   6.149  11.921  0.0946 -0.1527  0.0133
16237TIP3    H170202   6.414   6.157  12.016 -0.4933  2.1583 -0.1758
16237TIP3    H270203   6.350   6.093  11.894 -1.6522  1.7027  0.6559
16238TIP3   OH270204   5.014   1.489   1.839  0.5543  0.0999  0.1807
16238TIP3    H170205   4.953   1.475   1.766  0.1850 -0.8542  0.6544
16238TIP3    H270206   4.958   1.500   1.915  0.9555 -1.6326  0.7686
16239TIP3   OH270207   6.277   3.524   6.294  0.4220 -0.2049  0.4381
16239TIP3    H170208   6.297   3.464   6.222  2.1210  0.5455  0.2218
16239TIP3    H270209   6.191   3.560   6.273  1.1494  0.4776 -1.5845
16240TIP3   OH270210   4.199   2.281   1.589  0.4062  0.1433 -0.1761
16240TIP3    H170211   4.185   2.271   1.683 -2.2184  2.3588 -0.1864
16240TIP3    H270212   4.293   2.272   1.577  1.3183  2.9074  3.2003
16241TIP3   OH270213   6.553   6.624  13.493 -0.1713  0.2137 -0.1243
16241TIP3    H170214   6.520   6.712  13.511  0.3001  0.8010 -1.9464
16241TIP3    H270215   6.476   6.574  13.468 -0.8137 -0.5688  2.9652
16242TIP3   OH270216   4.688   0.065  12.554 -0.2059  0.6035 -0.2653
16242TIP3    H170217   4.618   0.069  12.488 -1.0254 -2.3287  0.2926
16242TIP3    H270218   4.643   0.040  12.634  1.4751 -2.1544 -0.0544
16243TIP3   OH270219   1.262   2.918   5.829  1.0938  0.0931  0.6068
16243TIP3    H170220   1.220   2.904   5.744 -0.4734 -1.3917  1.5602
16243TIP3    H270221   1.189   2.927   5.890  2.1811 -0.3036  2.0073
16244TIP3   OH270222   0.936   5.630  14.766  0.2095 -0.2388 -0.0527
16244TIP3    H170223   0.957   5.538  14.750  0.1594 -0.1848 -0.4442
16244TIP3    H270224   0.981   5.651  14.848  1.1346 -0.3040 -0.5313
16245TIP3   OH270225   0.577   3.921  13.297 -0.1954  0.3067  0.2591
16245TIP3    H170226   0.536   4.006  13.314 -0.2969  0.1901  0.6071
16245TIP3    H270227   0.588   3.882  13.384  2.6707  1.2609  0.4567
16246TIP3   OH270228   4.864   0.390  14.180  0.3337  0.0392  0.1227
16246TIP3    H170229   4.840   0.418  14.269 -0.5966  1.5463 -0.5638
16246TIP3    H270230   4.806   0.317  14.161 -2.0184  1.9304 -0.4984
16247TIP3   OH270231   5.791   5.487   5.933  0.3653  0.2270  0.2247
16247TIP3    H170232   5.858   5.552   5.913  0.2630  0.4280  0.5324
16247TIP3    H270233   5.709   5.536   5.934 -0.2527 -0.4870 -3.1472
16248TIP3   OH270234   1.933   0.606   6.566 -0.0613 -0.2535 -0.5817
16248TIP3    H170235   1.958   0.695   6.538  0.2530 -1.0361 -3.0319
16248TIP3    H270236   1.985   0.548   6.510  0.7748 -2.0509  1.8836
16249TIP3   OH270237   2.659   4.840   3.461 -0.1549 -0.5857  1.4356
16249TIP3    H170238   2.725   4.803   3.520 -0.4440  0.9952  2.8526
16249TIP3    H270239   2.653   4.932   3.489  0.0856  0.3898 -1.4447
16250TIP3   OH270240   2.348   1.346   5.890  0.0507  0.3269 -0.2566
16250TIP3    H170241   2.336   1.440   5.902 -1.8347  0.1641 -0.5680
16250TIP3    H270242   2.351   1.310   5.979 -0.9126  0.5134 -0.1440
16251TIP3   OH270243   6.720   4.999   0.455  0.1192 -0.5198  0.5601
16251TIP3    H170244   6.697   5.035   0.540 -1.6598 -0.2914  0.0382
16251TIP3    H270245   6.804   5.038   0.433 -0.7625  1.7441  0.9203
16252TIP3   OH270246   5.464   2.279   1.230 -0.7097  0.1131 -0.8631
16252TIP3    H170247   5.543   2.272   1.175  0.8541 -3.4224  1.4457
16252TIP3    H270248   5.495   2.321   1.310 -1.0564 -1.3916  0.1027
16253TIP3   OH270249   3.459   6.010  15.222  0.4342 -0.2094  0.5126
16253TIP3    H170250   3.493   5.986  15.135  0.6605  1.6605  0.0511
16253TIP3    H270251   3.510   6.087  15.247 -1.4320  0.8882  1.1246
16254TIP3   OH270252   3.746   1.078  15.404  0.0829 -0.2407  0.2036
16254TIP3    H170253   3.791   1.008  15.357  0.3840 -0.7730  1.2477
16254TIP3    H270254   3.653   1.059  15.395  0.1250 -0.1591 -0.4302
16255TIP3   OH270255   6.753   1.070   5.231 -0.6162  0.8058 -0.5471
16255TIP3    H170256   6.806   1.126   5.286 -0.0054  1.6298 -1.9157
16255TIP3    H270257   6.815   1.010   5.190 -1.0078  0.4530 -0.6412
16256TIP3   OH270258   0.369   2.244   5.021  0.2487  0.0341 -0.2596
16256TIP3    H170259   0.345   2.254   4.929 -0.5358 -3.5446 -0.6182
16256TIP3    H270260   0.288   2.260   5.069  0.8391  2.6911 -0.0325
16257TIP3   OH270261   5.105   2.585   1.313  0.0110 -0.4757 -0.0574
16257TIP3    H170262   5.140   2.594   1.402  1.2533 -1.1034 -0.4504
16257TIP3    H270263   5.012   2.604   1.322  0.4031  1.1516  1.0717
16258TIP3   OH270264   6.790   2.960  12.436  0.2726  0.2752 -0.2859
16258TIP3    H170265   6.731   2.934  12.507 -0.6981  0.9022 -0.8412
16258TIP3    H270266   6.784   2.888  12.373  1.9880 -0.8169  0.7257
16259TIP3   OH270267   6.803   5.327  11.010 -0.3626  0.4740 -0.0739
16259TIP3    H170268   6.742   5.365  11.073 -2.5494 -1.1413 -1.1206
16259TIP3    H270269   6.766   5.348  10.925  0.2159 -1.0271 -0.7259
16260TIP3   OH270270   5.713   0.892  13.331 -0.2780 -0.5984 -0.2964
16260TIP3    H170271   5.767   0.819  13.300  2.0209  1.1290 -0.6749
16260TIP3    H270272   5.772   0.944  13.386 -1.4429  1.5415 -0.9310
16261TIP3   OH270273   4.264   5.640   4.615  0.1277  0.6096 -0.5195
16261TIP3    H170274   4.303   5.688   4.542  2.2334 -0.5296 -0.2027
16261TIP3    H270275   4.230   5.560   4.575  0.5888  0.3376 -0.3656
16262TIP3   OH270276   2.411   4.300  14.100 -0.0692 -0.6196 -0.1996
16262TIP3    H170277   2.502   4.328  14.111 -0.4726  0.7056 -0.1635
16262TIP3    H270278   2.386   4.266  14.186 -0.2126  0.8549  0.3674
16263TIP3   OH270279   2.912   3.271   3.684  0.2737 -0.2358  0.2157
16263TIP3    H170280   2.900   3.313   3.599  0.9669 -0.4858 -0.0115
16263TIP3    H270281   2.824   3.264   3.720 -0.1777 -1.1819 -0.9837
16264TIP3   OH270282   3.937   3.868  16.064  0.4225  0.2915  0.4469
16264TIP3    H170283   4.005   3.805  16.089  0.2693 -0.1050 -0.1104
16264TIP3    H270284   3.949   3.941  16.124  0.1669 -0.5588  1.5740
16265TIP3   OH270285   0.950   5.446   1.846  0.2012  0.1279  0.1621
16265TIP3    H170286   0.984   5.376   1.790  1.1315  1.1472 -0.5829
16265TIP3    H270287   0.855   5.443   1.833  0.0997 -1.7133  1.0271
16266TIP3   OH270288   2.560   5.506  11.046  0.7392 -0.2649  0.2534
16266TIP3    H170289   2.591   5.467  10.964  0.2498  1.9596 -1.0622
16266TIP3    H270290   2.500   5.441  11.082  1.0688 -1.3551 -1.0599
16267TIP3   OH270291   2.291   1.780  17.145 -0.0081 -0.1933 -0.3881
16267TIP3    H170292   2.200   1.796  17.169 -0.3805 -2.0465 -0.4348
16267TIP3    H270293   2.336   1.771  17.229  0.0850  0.4200 -0.3670
16268TIP3   OH270294   6.207   6.275   1.766 -0.0309 -0.1137  0.1141
16268TIP3    H170295   6.199   6.368   1.745 -1.0655 -0.1273  0.3681
16268TIP3    H270296   6.197   6.230   1.681  2.6748  0.0526 -0.3644
16269TIP3   OH270297   2.934   5.010   3.737  0.0018 -0.0045  0.2918
16269TIP3    H170298   3.028   5.026   3.728 -0.2949  0.7192 -2.6508
16269TIP3    H270299   2.905   5.073   3.803  1.4825  0.0434  0.9472
16270TIP3   OH270300   0.197   2.480   6.413  0.4423 -0.6460 -0.5751
16270TIP3    H170301   0.155   2.467   6.498  0.9260 -0.9536 -0.3795
16270TIP3    H270302   0.216   2.574   6.409 -0.0394 -0.5453 -0.5623
16271TIP3   OH270303   6.825   0.537  12.756  0.1670 -0.0172 -0.0317
16271TIP3    H170304   6.829   0.557  12.850  3.4171  0.8507 -0.2351
16271TIP3    H270305   6.797   0.446  12.753 -1.4495  0.3572  1.6765
16272TIP3   OH270306   4.346   4.446  12.560  0.2465 -0.5170 -0.2476
16272TIP3    H170307   4.310   4.433  12.472  0.2676  0.2076 -0.3676
16272TIP3    H270308   4.405   4.372  12.573 -1.6916 -2.0806  0.1856
16273TIP3   OH270309   2.866   5.613  15.917  0.3630 -0.1617  0.1767
16273TIP3    H170310   2.923   5.582  15.847  1.3328 -0.2723  0.9874
16273TIP3    H270311   2.856   5.707  15.900  2.2519  0.2340  0.9746
16274TIP3   OH270312   2.406   4.586  11.811  0.0196 -0.6582 -0.1680
16274TIP3    H170313   2.354   4.583  11.892  0.5492 -1.5713  0.1592
16274TIP3    H270314   2.494   4.560  11.838  0.8937  1.6727 -0.5606
16275TIP3   OH270315   4.696   5.238  15.587 -0.0717 -0.1758  0.2255
16275TIP3    H170316   4.617   5.230  15.641 -1.2994  0.4147 -1.4116
16275TIP3    H270317   4.747   5.307  15.629 -1.5742  1.1201 -0.0026
16276TIP3   OH270318   3.992   5.449  12.055 -0.1165 -0.6034  0.3676
16276TIP3    H170319   3.913   5.396  12.044  0.3011 -0.7688 -2.5528
16276TIP3    H270320   4.064   5.390  12.031  0.6078  0.4566 -0.1087
16277TIP3   OH270321   3.445   6.478  16.896  0.6077  0.0634 -0.5798
16277TIP3    H170322   3.374   6.420  16.868  0.1268  0.1875  0.3307
16277TIP3    H270323   3.406   6.566  16.894  0.8617  0.1786 -0.4916
16278TIP3   OH270324   3.657   4.751   2.540 -0.1562 -0.3170 -0.3048
16278TIP3    H170325   3.636   4.690   2.611  1.3402 -1.5138 -0.8278
16278TIP3    H270326   3.594   4.730   2.471  0.2517 -1.2247 -0.4256
16279TIP3   OH270327   6.027   5.636   5.917 -0.4095  0.3120  0.4564
16279TIP3    H170328   6.018   5.720   5.872  1.2006  0.8348  1.0339
16279TIP3    H270329   6.048   5.573   5.847  0.8989  0.8887  0.3122
16280TIP3   OH270330   2.025   6.217  15.026 -0.3222 -0.3428 -0.7385
16280TIP3    H170331   2.034   6.304  14.986  1.8303 -0.9232 -1.6895
16280TIP3    H270332   1.931   6.207  15.040 -0.5880  2.5150  0.3480
16281TIP3   OH270333   5.485   4.043  16.233  0.6790  0.3585 -0.8203
16281TIP3    H170334   5.413   4.079  16.182 -0.8432 -1.1991  0.1296
16281TIP3    H270335   5.455   3.957  16.261  1.4719  0.9865  2.4982
16282TIP3   OH270336   2.289   2.907  15.777 -0.5378 -0.1597 -0.8780
16282TIP3    H170337   2.291   2.868  15.690 -1.2227  0.9245 -1.3981
16282TIP3    H270338   2.235   2.848  15.829  1.2285 -1.7018 -0.7140
16283TIP3   OH270339   4.331   3.902   3.223 -0.0707  0.5465 -0.7531
16283TIP3    H170340   4.344   3.991   3.191  0.0126 -0.0285 -2.4034
16283TIP3    H270341   4.420   3.868   3.236 -0.0983  0.5682 -0.4996
16284TIP3   OH270342   5.692   2.640  14.280  0.2400 -0.3515 -0.2741
16284TIP3    H170343   5.695   2.593  14.197 -1.4189  0.0648 -0.6090
16284TIP3    H270344   5.748   2.588  14.339 -1.8697 -3.1111 -0.4674
16285TIP3   OH270345   4.423   6.169   2.357  0.2119 -0.0259 -0.1497
16285TIP3    H170346   4.449   6.206   2.272 -0.2141 -0.4205 -0.4564
16285TIP3    H270347   4.419   6.075   2.343  1.4891 -0.2251  0.6883
16286TIP3   OH270348   4.508   5.707   3.149 -0.0153 -0.1686  0.0451
16286TIP3    H170349   4.584   5.705   3.090 -2.0306 -0.5005 -2.7498
16286TIP3    H270350   4.499   5.798   3.174  0.2278  0.2131 -1.1680
16287TIP3   OH270351   2.303   4.477  11.340 -0.1880 -0.0131  0.2371
16287TIP3    H170352   2.274   4.568  11.330 -1.0322 -0.4729 -2.0140
16287TIP3    H270353   2.394   4.478  11.311 -0.8468 -0.2340 -1.9726
16288TIP3   OH270354   5.809   5.969  15.072  0.2012 -0.1401 -0.2259
16288TIP3    H170355   5.901   5.992  15.087  0.4363 -1.4013  0.4193
16288TIP3    H270356   5.763   6.008  15.146  0.0335  1.4728 -1.1515
16289TIP3   OH270357   2.632   2.389  14.155 -0.1153  0.3874 -0.0672
16289TIP3    H170358   2.673   2.378  14.069  1.0252  0.9824  0.3819
16289TIP3    H270359   2.702   2.369  14.217 -0.1691  2.4815  0.7340
16290TIP3   OH270360   0.874   2.314  12.546 -0.0096 -0.0062  0.3069
16290TIP3    H170361   0.923   2.391  12.515 -0.3273  0.0871  0.0344
16290TIP3    H270362   0.843   2.272  12.466 -1.8757  0.9078  0.4928
16291TIP3   OH270363   0.125   0.461   4.311  0.0956  0.8166  0.3937
16291TIP3    H170364   0.122   0.556   4.325  2.3700  1.1053 -0.5264
16291TIP3    H270365   0.085   0.449   4.225  2.0906  1.3283 -0.6653
16292TIP3   OH270366   1.426   1.782  11.971  0.2786  0.0926  0.1430
16292TIP3    H170367   1.360   1.777  11.902  0.1065  0.7129  0.2588
16292TIP3    H270368   1.377   1.790  12.052  0.4919  1.2230  0.1710
16293TIP3   OH270369   6.499   6.611   5.865 -0.0507 -0.1559 -0.2277
16293TIP3    H170370   6.523   6.597   5.956 -1.8361 -1.0538  0.1492
16293TIP3    H270371   6.511   6.706   5.852  0.2875 -0.0239  0.9082
16294TIP3   OH270372   4.935   0.868   4.053 -0.0313  0.1180  0.3586
16294TIP3    H170373   4.870   0.937   4.040 -0.8412 -0.5754  0.6413
16294TIP3    H270374   4.925   0.812   3.976  0.7213  0.3857  0.0608
16295TIP3   OH270375   0.607   6.734   3.316  0.5332  0.1629 -0.0114
16295TIP3    H170376   0.585   6.715   3.224  0.0137 -0.2056  0.1832
16295TIP3    H270377   0.645   6.653   3.349  0.3042  0.1511  0.2256
16296TIP3   OH270378   4.172   6.578   9.994  0.2492  0.4377  0.8140
16296TIP3    H170379   4.179   6.569  10.089 -0.7794 -0.1451  0.8426
16296TIP3    H270380   4.084   6.612   9.979  0.3157  0.2981  0.0579
16297TIP3   OH270381   4.911   1.457  16.616  0.5591  0.1963  0.0157
16297TIP3    H170382   4.867   1.416  16.541 -1.7641  0.2477  1.2606
16297TIP3    H270383   4.907   1.391  16.685 -0.9557  1.5498  1.2901
16298TIP3   OH270384   3.603   2.959   2.137 -0.0114 -0.3194 -0.0868
16298TIP3    H170385   3.532   3.023   2.132 -1.7220 -2.1304 -0.4724
16298TIP3    H270386   3.682   3.009   2.118 -1.3550  1.5041 -1.2607
16299TIP3   OH270387   2.762   4.123  12.488 -0.5146  0.1797  0.1322
16299TIP3    H170388   2.737   4.212  12.515 -1.1108  0.1283 -0.2263
16299TIP3    H270389   2.730   4.116  12.398 -1.0147 -0.6106  0.3625
16300TIP3   OH270390   6.299   0.324   1.194  0.2906 -0.6078  0.0682
16300TIP3    H170391   6.287   0.298   1.103 -1.7605  1.2839 -0.2818
16300TIP3    H270392   6.393   0.316   1.209  0.7020 -0.8293 -2.2404
16301TIP3   OH270393   3.734   5.938  14.837 -0.8000 -0.5809 -0.0847
16301TIP3    H170394   3.769   5.849  14.838 -1.3577 -0.8153 -0.7000
16301TIP3    H270395   3.688   5.944  14.754 -0.0679  0.5664 -0.4188
16302TIP3   OH270396   5.783   2.888   4.043  0.5995  0.0915  0.4245
16302TIP3    H170397   5.752   2.977   4.024  1.4927  0.0777 -1.3065
16302TIP3    H270398   5.775   2.842   3.959  2.2936 -0.8039  0.7210
16303TIP3   OH270399   5.690   0.184   5.355  0.1004 -0.0070  0.5991
16303TIP3    H170400   5.704   0.153   5.266 -0.1181  0.0285  0.5528
16303TIP3    H270401   5.655   0.108   5.402 -2.1840  0.6279  0.0482
16304TIP3   OH270402   0.181   0.759  13.172 -0.2356  0.2747  0.0171
16304TIP3    H170403   0.163   0.760  13.265 -2.5405  0.5219 -0.3789
16304TIP3    H270404   0.117   0.698  13.135 -0.0331  0.9421 -1.5226
16305TIP3   OH270405   6.818   2.217   1.324 -0.3449 -0.3938 -0.7132
16305TIP3    H170406   6.737   2.231   1.274 -0.0219 -0.2085 -1.1935
16305TIP3    H270407   6.859   2.141   1.282 -0.2630 -0.4747 -0.4860
16306TIP3   OH270408   4.271   6.822  13.266 -0.2228 -0.9159 -0.1619
16306TIP3    H170409   4.279   6.860  13.179 -0.9045  1.1505  0.6268
16306TIP3    H270410   4.190   6.770  13.262 -0.7834 -0.0362 -0.5042
16307TIP3   OH270411   0.309   2.468   2.174 -0.0571  0.1104  0.0210
16307TIP3    H170412   0.354   2.466   2.089 -0.2285 -0.5472 -0.0623
16307TIP3    H270413   0.350   2.397   2.224  0.1926  0.6402  0.5646
16308TIP3   OH270414   6.777   2.750   2.255  0.0357 -0.6813 -0.0708
16308TIP3    H170415   6.700   2.695   2.240  0.7314 -1.6276 -0.2207
16308TIP3    H270416   6.793   2.791   2.170  0.3293 -1.3132 -0.3265
16309TIP3   OH270417   6.115   4.309  11.762  0.5266  0.2152 -0.2860
16309TIP3    H170418   6.120   4.345  11.850  1.0885  0.1020 -0.2683
16309TIP3    H270419   6.205   4.315  11.728  0.5794 -0.9094 -0.3878
16310TIP3   OH270420   2.830   4.920   4.134 -0.1218  0.6989 -0.0812
16310TIP3    H170421   2.919   4.942   4.107 -0.4231  0.8239 -1.0030
16310TIP3    H270422   2.791   5.004   4.160 -0.1339  0.7189 -0.1647
16311TIP3   OH270423   4.837   0.995   1.537  0.1784 -0.1728 -0.0075
16311TIP3    H170424   4.759   0.960   1.495 -1.2638 -0.5043  2.6735
16311TIP3    H270425   4.848   1.082   1.499 -1.8144  0.0607 -0.1568
16312TIP3   OH270426   0.053   1.875   4.572 -0.4248 -0.1089  0.1955
16312TIP3    H170427   0.011   1.925   4.502 -1.1092 -1.8106 -0.6578
16312TIP3    H270428  -0.006   1.884   4.647 -0.4043  0.5668  0.1344
16313TIP3   OH270429   4.343   6.483   4.960  0.1298 -0.4472  0.4411
16313TIP3    H170430   4.248   6.477   4.946 -0.3444  1.7816  2.1016
16313TIP3    H270431   4.375   6.394   4.947 -1.8914 -0.9499 -1.8982
16314TIP3   OH270432   1.910   5.272   3.366  0.2639  0.4048  0.6713
16314TIP3    H170433   1.934   5.336   3.299  1.2534 -1.3962 -0.7659
16314TIP3    H270434   1.878   5.197   3.317 -0.9313 -0.2309  2.3231
16315TIP3   OH270435   6.329   1.533  15.934 -0.1401  0.0563  0.4738
16315TIP3    H170436   6.331   1.518  15.840  2.5673 -3.3736  0.8554
16315TIP3    H270437   6.368   1.619  15.946 -0.0028  0.3119 -1.4926
16316TIP3   OH270438   2.614   6.735  14.897  0.1848  0.6546  0.0607
16316TIP3    H170439   2.643   6.759  14.985  1.4468  1.7314 -0.6073
16316TIP3    H270440   2.656   6.650  14.881 -0.1165  0.4135  0.5123
16317TIP3   OH270441   2.730   1.624  11.621  0.1410 -0.2456 -0.1634
16317TIP3    H170442   2.771   1.709  11.640 -0.9066  0.4624 -0.9590
16317TIP3    H270443   2.769   1.564  11.685  0.5238  0.9347  0.7524
16318TIP3   OH270444   4.049   6.484  12.962  0.7448 -0.1046 -0.0195
16318TIP3    H170445   4.058   6.390  12.944 -2.2371 -0.2862 -0.9981
16318TIP3    H270446   4.097   6.496  13.044 -0.4519 -2.9240  1.2418
16319TIP3   OH270447   5.902   0.377  15.363 -0.4713  0.4191 -0.1722
16319TIP3    H170448   5.882   0.373  15.270  0.9947 -1.0602 -0.4874
16319TIP3    H270449   5.997   0.389  15.366 -0.7512  2.8029  1.1779
16320TIP3   OH270450   6.063   5.506  11.717 -0.2155  0.4191  0.0105
16320TIP3    H170451   6.047   5.579  11.777  2.4441 -0.1768  1.6026
16320TIP3    H270452   6.155   5.515  11.694  0.1459 -2.3432  0.1334
16321TIP3   OH270453   3.846   4.974   5.328  0.2268  0.1372  0.3686
16321TIP3    H170454   3.920   4.982   5.267  1.4597  0.9693  1.8898
16321TIP3    H270455   3.778   5.029   5.290 -0.0870 -1.5597 -1.6710
16322TIP3   OH270456   5.476   1.645   1.866  0.1342 -0.0347  0.1009
16322TIP3    H170457   5.507   1.736   1.874  0.9489 -0.4658  2.5686
16322TIP3    H270458   5.383   1.649   1.888 -0.2570  0.3896 -1.4642
16323TIP3   OH270459   3.596   2.650  16.781  0.0936  0.5422 -0.0655
16323TIP3    H170460   3.619   2.588  16.712 -1.6026 -0.6436  0.3613
16323TIP3    H270461   3.633   2.611  16.861  0.4554  0.9496 -0.0332
16324TIP3   OH270462   0.961   3.834  17.009 -0.0748  0.0382 -0.0657
16324TIP3    H170463   0.909   3.799  17.081 -0.8045 -0.5800 -0.8743
16324TIP3    H270464   1.049   3.803  17.026  0.4127  2.2953  2.1248
16325TIP3   OH270465   5.268   1.991  13.685  0.6770  0.2438 -0.3183
16325TIP3    H170466   5.176   2.015  13.692  0.8543  1.0342 -0.6205
16325TIP3    H270467   5.278   1.960  13.595  0.9087  1.0971 -0.5997
16326TIP3   OH270468   6.414   0.691  16.118 -0.0157 -0.0246  0.3910
16326TIP3    H170469   6.332   0.672  16.072  0.6503  1.1910 -1.3943
16326TIP3    H270470   6.471   0.618  16.096  0.3293  0.5953 -0.8376
16327TIP3   OH270471   1.878   3.660   4.233  0.1728 -0.1887  0.0742
16327TIP3    H170472   1.841   3.622   4.312 -1.7607  0.4520 -0.4812
16327TIP3    H270473   1.858   3.597   4.164  0.5744 -0.0629 -0.1665
16328TIP3   OH270474   2.311   2.054  14.485 -0.2258 -0.2175  0.3699
16328TIP3    H170475   2.321   1.959  14.499 -0.7674 -0.2139  0.8168
16328TIP3    H270476   2.385   2.093  14.531  1.4254 -0.5434 -1.8668
16329TIP3   OH270477   6.757   6.361  13.434 -0.4023  0.5555  0.1104
16329TIP3    H170478   6.846   6.357  13.398 -0.8200  1.8196 -1.1392
16329TIP3    H270479   6.764   6.423  13.507 -0.1796  0.3154  0.2972
16330TIP3   OH270480   1.267   6.833  13.205  0.7022 -0.3685  0.6617
16330TIP3    H170481   1.198   6.879  13.157  0.2745 -1.6712 -0.0290
16330TIP3    H270482   1.324   6.798  13.136  0.5369 -1.5768  1.1187
16331TIP3   OH270483   1.621   3.591  10.875 -0.4417 -0.2533  0.6073
16331TIP3    H170484   1.534   3.582  10.911 -0.4335 -4.0441  0.0758
16331TIP3    H270485   1.607   3.605  10.781 -0.5377 -0.9917  0.5008
16332TIP3   OH270486   4.056   5.963  12.299  0.4614  0.5380 -0.2552
16332TIP3    H170487   4.129   5.987  12.242  0.6854 -0.7748 -0.5348
16332TIP3    H270488   4.052   6.035  12.363  0.6968  1.6379 -1.4342
16333TIP3   OH270489   6.027   2.965  17.184  0.5956  0.2883 -0.4248
16333TIP3    H170490   6.075   3.008  17.113 -1.1169  1.7389 -0.7849
16333TIP3    H270491   6.046   2.872  17.173  0.6103  0.4989 -2.6461
16334TIP3   OH270492   0.814   0.241  11.361  0.3194  0.5791 -0.3298
16334TIP3    H170493   0.827   0.158  11.408 -1.2795  0.6079  0.2154
16334TIP3    H270494   0.794   0.213  11.271  0.0546  0.3757 -0.2107
16335TIP3   OH270495   1.116   6.023  11.994  0.6495 -0.3860  0.0865
16335TIP3    H170496   1.093   5.994  11.906  1.5258 -0.2999 -0.1769
16335TIP3    H270497   1.172   5.954  12.029  0.5426 -0.2838  0.4647
16336TIP3   OH270498   3.193   1.758  12.145  0.3544 -0.4072  0.2389
16336TIP3    H170499   3.114   1.734  12.193 -1.1433  1.5982 -1.0560
16336TIP3    H270500   3.207   1.851  12.167  0.7608 -0.0010 -1.5923
16337TIP3   OH270501   2.600   3.569  16.495 -0.1548  0.4131  0.2882
16337TIP3    H170502   2.559   3.500  16.442 -0.3887  0.8194 -0.0693
16337TIP3    H270503   2.674   3.526  16.537  0.0334  0.0739 -0.3697
16338TIP3   OH270504   5.066   2.242  11.446 -0.1225  0.0314 -0.7366
16338TIP3    H170505   5.104   2.329  11.457 -1.4029  0.6337 -0.8717
16338TIP3    H270506   5.126   2.183  11.492  0.3125  1.0821  0.0702
16339TIP3   OH270507   4.446   4.424   4.577 -0.1421  0.5280 -0.0728
16339TIP3    H170508   4.484   4.365   4.511  0.1411  1.7126 -1.0186
16339TIP3    H270509   4.493   4.507   4.563 -1.6674  1.4450  0.1064
16340TIP3   OH270510   2.034   5.311  15.568  0.1599 -0.4519  0.2417
16340TIP3    H170511   2.125   5.287  15.584  0.7022  2.1770  1.6561
16340TIP3    H270512   2.008   5.259  15.492  2.9598 -1.0045 -0.4241
16341TIP3   OH270513   5.845   2.822   5.020 -0.4034  0.3828 -0.0717
16341TIP3    H170514   5.844   2.819   5.115 -0.8801  1.4065 -0.0372
16341TIP3    H270515   5.820   2.734   4.993 -2.0399  0.5650  0.7542
16342TIP3   OH270516   0.904   0.627   6.134 -0.0515  0.0595  0.4285
16342TIP3    H170517   0.857   0.565   6.077  0.0581 -1.1889  1.6409
16342TIP3    H270518   0.869   0.610   6.221  0.0071  1.7251  0.7995
16343TIP3   OH270519   2.811   2.677  13.980  0.0003  0.3995  0.0218
16343TIP3    H170520   2.762   2.718  14.051 -0.3958  0.3245 -0.2044
16343TIP3    H270521   2.858   2.604  14.021 -4.1203 -2.9128 -0.5458
16344TIP3   OH270522   3.748   5.663  16.301  0.4577  0.3433  0.1628
16344TIP3    H170523   3.843   5.666  16.315  0.7039 -0.2308 -1.2320
16344TIP3    H270524   3.716   5.599  16.365  1.2363 -0.6504 -0.4191
16345TIP3   OH270525   0.548   4.283   5.659 -0.4482 -0.3342  0.3351
16345TIP3    H170526   0.535   4.352   5.724 -1.0636  1.3556 -1.4791
16345TIP3    H270527   0.542   4.328   5.574  0.1737 -2.4577 -0.9160
16346TIP3   OH270528   3.483   5.057  15.907 -0.1278 -0.3110 -0.7328
16346TIP3    H170529   3.576   5.060  15.889  0.2069  1.2304  0.9269
16346TIP3    H270530   3.449   5.141  15.874 -0.8007 -0.5802 -0.7425
16347TIP3   OH270531   6.672   2.104  14.534 -0.3050  0.0447  0.1861
16347TIP3    H170532   6.700   2.147  14.614 -0.9005  0.0398  0.3992
16347TIP3    H270533   6.605   2.162  14.497 -0.5199 -0.2858  0.0493
16348TIP3   OH270534   6.620   3.813  13.193  0.2385  0.6499 -0.0279
16348TIP3    H170535   6.634   3.904  13.167  0.4167  0.7326  0.3431
16348TIP3    H270536   6.533   3.792  13.160 -0.4884  1.4779  1.2720
16349TIP3   OH270537   0.999   0.205   0.492  0.0453 -0.0490  0.3992
16349TIP3    H170538   0.952   0.286   0.512 -0.8719 -0.0313 -1.5280
16349TIP3    H270539   0.992   0.152   0.571 -0.9850  1.0061  1.0460
16350TIP3   OH270540   6.273   0.277  16.400  0.3465  0.4198 -0.4622
16350TIP3    H170541   6.318   0.284  16.483  0.2301 -0.6993 -0.2966
16350TIP3    H270542   6.213   0.352  16.399 -1.2791 -0.7520  1.4696
16351TIP3   OH270543   2.639   5.933   1.967 -0.1483  0.0428 -0.2125
16351TIP3    H170544   2.698   5.977   1.906 -0.6601  1.2626  0.1375
16351TIP3    H270545   2.627   5.845   1.930 -0.6464  0.8184 -1.9934
16352TIP3   OH270546   5.340   2.107   5.415 -0.1355  0.0382  0.1126
16352TIP3    H170547   5.352   2.075   5.505  1.3896 -2.2655 -0.8232
16352TIP3    H270548   5.421   2.085   5.371 -1.1952  0.2976 -2.0921
16353TIP3   OH270549   6.686   2.122  16.150 -0.7473 -0.9010  0.5020
16353TIP3    H170550   6.735   2.114  16.068 -1.6274 -2.2698  0.0747
16353TIP3    H270551   6.617   2.186  16.130 -2.1916 -2.6666 -0.5216
16354TIP3   OH270552   3.236   4.273  10.501 -0.4922 -0.5115 -0.1799
16354TIP3    H170553   3.249   4.321  10.583  1.5367 -0.6442 -0.3777
16354TIP3    H270554   3.142   4.252  10.500 -1.2904  2.5111  0.3982
16355TIP3   OH270555   6.144   0.263   2.228 -0.3375  0.7486  0.1534
16355TIP3    H170556   6.213   0.223   2.282 -0.9635  0.2671  0.6103
16355TIP3    H270557   6.136   0.352   2.262  0.2454  0.9018 -0.0869
16356TIP3   OH270558   6.238   0.087   2.410  0.4466  0.4217 -0.4929
16356TIP3    H170559   6.284   0.112   2.490  0.8909 -1.2522 -0.1913
16356TIP3    H270560   6.178   0.018   2.437 -0.0956  0.5096 -1.4360
16357TIP3   OH270561   0.904   6.349   5.098 -0.3782 -0.0565 -0.5331
16357TIP3    H170562   0.876   6.261   5.121 -2.8833  0.3755 -1.6311
16357TIP3    H270563   0.896   6.354   5.003  0.6747  1.0781 -0.5983
16358TIP3   OH270564   1.958   4.416   3.808  0.4571  0.5565  0.6421
16358TIP3    H170565   1.865   4.394   3.808  0.5894 -0.0743  1.5176
16358TIP3    H270566   1.994   4.364   3.736  0.2320  0.3215  0.6963
16359TIP3   OH270567   5.246   4.030   5.493  0.0692 -0.2508 -0.1875
16359TIP3    H170568   5.332   4.005   5.460 -0.0129 -1.7704  0.7033
16359TIP3    H270569   5.185   3.973   5.446 -0.2045 -1.0910  1.1593
16360TIP3   OH270570   3.414   5.755   0.658 -0.0192  0.3804  0.5992
16360TIP3    H170571   3.491   5.698   0.657 -1.0501 -1.0871 -0.4049
16360TIP3    H270572   3.446   5.839   0.626  0.8139 -0.7610 -1.8072
16361TIP3   OH270573   3.332   5.896   3.277 -0.1007  0.3344 -0.4200
16361TIP3    H170574   3.380   5.825   3.233 -1.0905 -0.2956 -0.5016
16361TIP3    H270575   3.347   5.881   3.370 -0.9469 -0.4571 -0.4015
16362TIP3   OH270576   0.916   0.052   2.245 -0.4352 -0.4251 -0.2846
16362TIP3    H170577   0.959   0.094   2.319 -1.5171  0.2851 -0.0389
16362TIP3    H270578   0.988   0.015   2.194  0.3997 -0.0098  0.5549
16363TIP3   OH270579   6.231   1.206   1.626  0.4462  0.4016  0.2287
16363TIP3    H170580   6.259   1.203   1.535 -2.5998  0.6111 -0.8152
16363TIP3    H270581   6.206   1.297   1.641 -1.5755 -0.1341  0.3849
16364TIP3   OH270582   1.852   3.648   0.148  0.1922 -0.4568  0.0116
16364TIP3    H170583   1.869   3.598   0.228 -0.5019 -1.1582 -0.2698
16364TIP3    H270584   1.935   3.644   0.100  0.6082 -0.0404  0.6829
16365TIP3   OH270585   5.847   3.887  12.766 -0.3172 -0.3732  0.5320
16365TIP3    H170586   5.848   3.978  12.735  0.7233 -0.0774  1.4028
16365TIP3    H270587   5.861   3.836  12.686  1.7795  0.3591  0.3769
16366TIP3   OH270588   3.025   2.634  12.249  0.0095 -0.0777 -0.0616
16366TIP3    H170589   3.117   2.607  12.249 -0.1875 -0.7760  1.1698
16366TIP3    H270590   3.027   2.726  12.274  0.2912 -0.4689  1.4254
16367TIP3   OH270591   6.105   5.399  17.104  0.2042 -0.5853 -0.2958
16367TIP3    H170592   6.105   5.453  17.024  0.0150  2.7046  1.7288
16367TIP3    H270593   6.197   5.396  17.131  0.2352 -1.4601 -0.4998
16368TIP3   OH270594   2.822   2.929   5.477  0.0282  0.6409  0.6044
16368TIP3    H170595   2.786   2.972   5.555 -1.0274  1.9108 -0.5395
16368TIP3    H270596   2.833   2.999   5.413  0.6901 -0.4034 -0.4783
16369TIP3   OH270597   1.250   5.657   3.962 -0.0938 -0.3200 -0.3989
16369TIP3    H170598   1.222   5.643   4.052 -0.4678  0.8510 -0.3262
16369TIP3    H270599   1.286   5.745   3.961  3.7313 -1.6837 -0.4770
16370TIP3   OH270600   5.300   4.874   0.220 -0.9775 -0.5690  0.3957
16370TIP3    H170601   5.254   4.870   0.304 -2.3238  0.4251 -0.2523
16370TIP3    H270602   5.238   4.836   0.157 -0.5544 -0.0233 -0.3645
16371TIP3   OH270603   5.800   5.472   1.030  0.0920  0.2513  0.5784
16371TIP3    H170604   5.804   5.440   1.121 -0.1495  0.1377  0.5515
16371TIP3    H270605   5.889   5.500   1.010  0.3303 -0.4902  0.5717
16372TIP3   OH270606   0.255   1.580  16.862  0.2732  0.5079  0.9565
16372TIP3    H170607   0.310   1.516  16.816 -2.2808 -0.8073 -0.4874
16372TIP3    H270608   0.196   1.527  16.916 -2.2073  1.4854 -0.5993
16373TIP3   OH270609   2.233   2.244   2.583 -0.3571 -0.4492  0.2920
16373TIP3    H170610   2.184   2.287   2.514  0.2982  1.3035  0.8714
16373TIP3    H270611   2.182   2.262   2.663 -0.3514 -1.2226  0.4767
16374TIP3   OH270612   6.134   6.112  14.000 -0.5974  0.3081  0.4740
16374TIP3    H170613   6.050   6.078  13.971  0.8475 -1.3968 -2.0974
16374TIP3    H270614   6.121   6.206  14.007 -2.7042  0.0803  0.1544
16375TIP3   OH270615   4.724   0.829  12.311  0.1835  0.1862 -0.1879
16375TIP3    H170616   4.740   0.921  12.289 -0.9293 -0.1624 -2.8288
16375TIP3    H270617   4.696   0.831  12.402  2.1612  2.1987  0.4766
16376TIP3   OH270618   1.760   1.757   1.875 -0.7861 -0.2387  0.1885
16376TIP3    H170619   1.811   1.729   1.951 -1.4184 -2.6484 -0.1661
16376TIP3    H270620   1.813   1.729   1.800 -1.4818 -0.5104 -0.2075
16377TIP3   OH270621   1.171   0.438  10.925  0.0416 -0.0333 -0.2411
16377TIP3    H170622   1.116   0.419  10.849 -2.7513  0.5101  1.5070
16377TIP3    H270623   1.196   0.352  10.958 -1.1307 -0.3763 -0.1825
16378TIP3   OH270624   3.496   6.579   3.142  0.3322 -0.3480 -0.2740
16378TIP3    H170625   3.554   6.530   3.083  0.7699  0.6981 -0.7468
16378TIP3    H270626   3.516   6.544   3.229  0.3305 -1.2796 -0.6292
16379TIP3   OH270627   1.274   6.597   4.426  0.4612  0.0947 -0.4342
16379TIP3    H170628   1.180   6.612   4.434  0.6070  0.2854  1.5436
16379TIP3    H270629   1.286   6.505   4.447  0.6440 -0.1812 -1.6713
16380TIP3   OH270630   5.919   1.125   5.922  0.0056  0.6121  0.2741
16380TIP3    H170631   5.888   1.171   6.000  0.7423  2.2103 -0.3375
16380TIP3    H270632   5.869   1.162   5.850  0.2375  0.0571 -0.1836
16381TIP3   OH270633   2.668   5.500   1.595 -0.1172 -0.1598  0.1979
16381TIP3    H170634   2.668   5.443   1.517 -0.6333  2.6196 -2.0066
16381TIP3    H270635   2.576   5.511   1.616 -0.0214 -0.0858  0.5751
16382TIP3   OH270636   3.251   4.974   2.029  0.1941 -0.2837  0.3579
16382TIP3    H170637   3.320   4.972   1.962  1.1525  1.7130  1.2119
16382TIP3    H270638   3.272   4.902   2.087  0.6198 -0.6850 -0.2750
16383TIP3   OH270639   6.267   4.952  14.015 -0.0045 -0.0400 -0.1953
16383TIP3    H170640   6.272   4.975  14.108  0.0305  1.4419 -0.5443
16383TIP3    H270641   6.177   4.921  14.003  0.1754 -0.8525  0.4526
16384TIP3   OH270642   2.911   0.609  15.025  0.4138  0.2242  0.3932
16384TIP3    H170643   2.910   0.547  14.952  2.2488 -1.0197  1.3615
16384TIP3    H270644   2.873   0.560  15.098  2.2139  0.0591  1.2624
16385TIP3   OH270645   0.821   6.104  16.422 -0.2768 -0.3047 -0.0814
16385TIP3    H170646   0.758   6.140  16.360  0.6126 -0.2012 -0.9446
16385TIP3    H270647   0.790   6.134  16.508 -1.0501  0.2599 -0.5452
16386TIP3   OH270648   3.259   1.031  14.930  0.1923 -0.2132  0.1841
16386TIP3    H170649   3.243   0.945  14.892  0.8285 -1.3816  2.3961
16386TIP3    H270650   3.180   1.081  14.910 -0.5706 -1.5850 -0.3839
16387TIP3   OH270651   6.688   6.801  14.793 -0.5044  0.2375  0.1039
16387TIP3    H170652   6.647   6.863  14.853 -0.9864 -1.1336  1.2363
16387TIP3    H270653   6.715   6.728  14.848 -3.3609 -2.3146 -1.6165
16388TIP3   OH270654   0.688   5.545   2.597 -0.0893  0.1227 -0.3229
16388TIP3    H170655   0.781   5.523   2.589 -0.0490  0.2779 -0.2787
16388TIP3    H270656   0.676   5.563   2.690 -0.4192 -1.0669 -0.1221
16389TIP3   OH270657   2.063   4.150   1.195 -0.3874 -0.1852  0.6860
16389TIP3    H170658   2.050   4.079   1.133 -2.4718  1.4449 -0.9017
16389TIP3    H270659   2.037   4.113   1.279  0.1272 -1.7365  0.1992
16390TIP3   OH270660   6.404   0.972  10.745 -0.7770  0.4489 -0.2077
16390TIP3    H170661   6.451   1.039  10.794 -1.0665  0.5857 -0.1157
16390TIP3    H270662   6.340   1.020  10.693 -0.9492  0.2481 -0.1831
16391TIP3   OH270663   5.483   0.406   2.456  0.0587 -0.5682  0.1735
16391TIP3    H170664   5.488   0.447   2.370 -0.3443 -0.7822  0.0451
16391TIP3    H270665   5.556   0.344   2.457  0.0137 -0.6252 -0.0451
16392TIP3   OH270666   2.864   3.418   3.449  0.9265 -0.2889  0.2240
16392TIP3    H170667   2.789   3.446   3.396 -0.5447 -1.3822  1.6118
16392TIP3    H270668   2.940   3.428   3.391 -0.1439  1.7165 -0.9346
16393TIP3   OH270669   5.179   2.495  15.623 -0.6355 -0.2358  0.5053
16393TIP3    H170670   5.084   2.498  15.630 -0.6477  0.0068  0.2692
16393TIP3    H270671   5.208   2.578  15.661 -0.6543  0.7066 -1.3974
16394TIP3   OH270672   3.226   2.279   5.638 -0.6116 -0.1727 -0.4410
16394TIP3    H170673   3.214   2.298   5.731 -2.6309 -2.5435 -0.0911
16394TIP3    H270674   3.167   2.340   5.594  0.2128  0.8367 -0.1763
16395TIP3   OH270675   5.549   3.272  12.414  0.1309 -0.1104 -0.8416
16395TIP3    H170676   5.622   3.320  12.375  0.8193 -1.2549 -1.0009
16395TIP3    H270677   5.560   3.182  12.383  0.3698 -0.9529  1.4879
16396TIP3   OH270678   0.192   3.157   1.397  0.2199  0.1051  0.6398
16396TIP3    H170679   0.263   3.125   1.341 -0.0400  0.2467  0.2188
16396TIP3    H270680   0.114   3.111   1.364 -0.1133  0.9635  0.2000
16397TIP3   OH270681   2.952   4.502   3.607 -0.4258  0.1299 -0.1339
16397TIP3    H170682   3.018   4.438   3.632 -0.8843 -0.4724 -0.4054
16397TIP3    H270683   2.990   4.549   3.533  0.1775  0.6259  0.4892
16398TIP3   OH270684   6.174   4.595   0.925  0.4171 -0.5159 -0.4454
16398TIP3    H170685   6.101   4.655   0.944 -0.3342 -1.7752  0.8457
16398TIP3    H270686   6.230   4.600   1.003  0.4782 -1.2864 -0.4317
16399TIP3   OH270687   2.902   2.407   5.812 -0.0522  0.3217  0.0777
16399TIP3    H170688   2.834   2.343   5.787 -0.8500 -0.1833  3.1667
16399TIP3    H270689   2.983   2.356   5.813  0.3376  0.7123 -2.7020
16400TIP3   OH270690   0.186   3.143   2.086  0.1943 -0.2203 -0.9053
16400TIP3    H170691   0.276   3.175   2.092  1.0842 -2.6427  0.0540
16400TIP3    H270692   0.191   3.053   2.118 -2.6667 -0.3036 -0.4538
16401TIP3   OH270693   5.532   2.261   4.205 -0.4455  0.0643  0.0833
16401TIP3    H170694   5.481   2.180   4.214 -1.2013  0.7087  2.1324
16401TIP3    H270695   5.617   2.241   4.243  0.2559 -0.4681 -1.6830
16402TIP3   OH270696   0.497   2.813  15.807  0.4139 -0.2878 -0.0493
16402TIP3    H170697   0.432   2.744  15.795  0.6273 -0.5615  0.3093
16402TIP3    H270698   0.545   2.816  15.724 -0.5616  0.4674 -0.6059
16403TIP3   OH270699   5.849   6.234  16.416 -0.8640 -0.3939  0.3217
16403TIP3    H170700   5.935   6.275  16.416 -1.9592  2.0957 -0.5897
16403TIP3    H270701   5.799   6.285  16.480 -1.6306 -1.9869  1.0608
16404TIP3   OH270702   3.048   2.615  11.210 -0.0366  0.4395  0.0328
16404TIP3    H170703   2.956   2.621  11.186 -0.6592 -0.1181  2.0894
16404TIP3    H270704   3.092   2.588  11.129 -1.7179  0.3380 -0.8883
16405TIP3   OH270705   4.339   4.251   0.731  0.2938  0.6085 -0.1618
16405TIP3    H170706   4.354   4.214   0.818  0.1128 -0.6351 -0.6406
16405TIP3    H270707   4.414   4.223   0.679  0.1209  0.8746 -0.5632
16406TIP3   OH270708   5.009   2.794  14.059  0.5807  0.0707  0.0262
16406TIP3    H170709   5.075   2.725  14.051  1.1143  0.6143 -0.4259
16406TIP3    H270710   4.926   2.751  14.039  0.8882 -0.4835 -0.0586
16407TIP3   OH270711   4.697   2.490  13.736 -0.1019  0.1837 -0.4416
16407TIP3    H170712   4.717   2.535  13.818 -0.4837  0.6797 -0.6161
16407TIP3    H270713   4.618   2.439  13.756  0.2399 -0.2923 -0.2886
16408TIP3   OH270714   1.640   5.963  14.235  0.4507  0.2440 -0.2548
16408TIP3    H170715   1.656   5.902  14.163  0.3232 -0.6605  0.4628
16408TIP3    H270716   1.635   5.907  14.313  1.3685  1.2707  0.5737
16409TIP3   OH270717   4.574   4.622  14.765 -0.0123 -0.1178  0.3456
16409TIP3    H170718   4.648   4.566  14.743 -0.5822 -0.6039 -0.3473
16409TIP3    H270719   4.547   4.661  14.682  0.7032  1.6122  0.8782
16410TIP3   OH270720   5.970   6.613  11.414 -0.5492 -0.4546  0.4233
16410TIP3    H170721   6.008   6.531  11.381  0.7190 -0.2548  1.3070
16410TIP3    H270722   6.045   6.663  11.445 -1.4223  0.5915  0.9032
16411TIP3   OH270723   0.376   1.362   1.557  0.2036  0.3874  0.1149
16411TIP3    H170724   0.297   1.415   1.547 -0.1652  0.0893  1.2967
16411TIP3    H270725   0.411   1.354   1.468 -1.8393 -0.6137 -0.6608
16412TIP3   OH270726   6.308   3.998  13.567 -0.3485 -0.8452 -0.1614
16412TIP3    H170727   6.361   4.076  13.553  0.9250 -1.4357  1.1178
16412TIP3    H270728   6.319   3.978  13.660 -3.0365 -0.8496  0.2288
16413TIP3   OH270729   0.459   3.217  13.486 -0.0316 -0.0177  0.2089
16413TIP3    H170730   0.526   3.151  13.506 -1.0301 -0.9718  0.4812
16413TIP3    H270731   0.465   3.279  13.559  0.6109 -0.0428  0.1873
16414TIP3   OH270732   6.604   0.413   6.266  0.3650 -0.1846  0.3279
16414TIP3    H170733   6.642   0.466   6.336  0.2538 -0.6077  0.7106
16414TIP3    H270734   6.509   0.426   6.275  0.3981  1.1999 -0.8823
16415TIP3   OH270735   6.817   4.945   3.439  0.3318 -0.6254  0.4725
16415TIP3    H170736   6.802   4.974   3.529 -0.8925 -0.8062  0.3560
16415TIP3    H270737   6.822   4.849   3.445  0.1348 -0.6452  0.3433
16416TIP3   OH270738   4.004   3.381   5.035  0.1721 -0.1005 -0.3202
16416TIP3    H170739   3.923   3.422   5.004  0.2071  0.7024  0.6018
16416TIP3    H270740   4.048   3.351   4.955 -1.0857 -0.6591 -0.8220
16417TIP3   OH270741   3.250   6.581  11.471 -0.5677  0.6699 -0.2150
16417TIP3    H170742   3.310   6.642  11.515  0.5826 -0.8203  0.3605
16417TIP3    H270743   3.206   6.635  11.405 -0.1417  2.2869  0.7615
16418TIP3   OH270744   5.282   2.770   6.544  0.7151 -0.3301  0.0457
16418TIP3    H170745   5.376   2.753   6.539  0.7295  0.0735 -1.7400
16418TIP3    H270746   5.243   2.707   6.484  0.0295  0.6026 -0.5216
16419TIP3   OH270747   2.226   0.083  14.890  0.1851 -0.0691  0.0635
16419TIP3    H170748   2.293   0.136  14.933 -0.7411  0.6766  0.6323
16419TIP3    H270749   2.252  -0.008  14.907  1.7035  0.1712 -0.7859
16420TIP3   OH270750   4.964   4.354   3.219 -0.6052  0.1880 -0.2564
16420TIP3    H170751   4.991   4.415   3.287  2.2259  2.1428 -2.8839
16420TIP3    H270752   5.009   4.272   3.240 -1.6486 -0.0197  1.3877
16421TIP3   OH270753   6.192   6.346   6.178 -0.4537  0.2014 -0.1234
16421TIP3    H170754   6.120   6.391   6.223 -0.8355 -0.4822 -0.0376
16421TIP3    H270755   6.257   6.330   6.248 -0.8614 -0.4796  0.1105
16422TIP3   OH270756   2.536   6.232   4.303 -0.1415 -0.4554 -0.6570
16422TIP3    H170757   2.608   6.180   4.339 -0.1317 -1.0852 -1.5507
16422TIP3    H270758   2.460   6.173   4.305 -0.1087 -0.5634 -1.7664
16423TIP3   OH270759   6.651   3.937   1.255 -0.3732 -0.3452 -0.1934
16423TIP3    H170760   6.708   3.981   1.192 -1.6846  0.1937 -1.0654
16423TIP3    H270761   6.647   3.996   1.330  0.4465 -0.5393  0.0134
16424TIP3   OH270762   5.470   2.911   1.341 -0.0995  0.8795  0.0859
16424TIP3    H170763   5.556   2.877   1.317 -0.5024  0.6648 -1.1093
16424TIP3    H270764   5.459   2.886   1.433  0.0155 -1.4591 -0.4686
16425TIP3   OH270765   3.204   3.215   4.349  0.5962 -0.1467 -0.0225
16425TIP3    H170766   3.168   3.161   4.279  1.2480  0.3953 -0.7997
16425TIP3    H270767   3.128   3.244   4.399  0.0556 -0.0385 -0.8858
16426TIP3   OH270768   5.642   6.558  15.938  0.2176 -0.2633 -0.2568
16426TIP3    H170769   5.701   6.492  15.974  0.7039  0.1618 -0.2654
16426TIP3    H270770   5.601   6.515  15.863  0.7097 -0.4824 -0.4074
16427TIP3   OH270771   3.579   2.647  11.663  0.6519 -0.4286 -0.3368
16427TIP3    H170772   3.553   2.604  11.744  1.5586 -0.4091 -0.0232
16427TIP3    H270773   3.671   2.623  11.651  0.6666 -0.0355 -1.1048
16428TIP3   OH270774   0.795   4.662   5.051  0.1872  0.4035 -0.3192
16428TIP3    H170775   0.791   4.598   4.980 -0.9360  0.0757  0.0243
16428TIP3    H270776   0.854   4.622   5.115 -0.1675 -0.0963 -0.2992
16429TIP3   OH270777   5.967   5.493  13.637  0.3000  0.0095  0.5191
16429TIP3    H170778   6.018   5.417  13.665 -0.4974 -0.1896  1.4833
16429TIP3    H270779   5.917   5.462  13.561  1.8321  0.3093 -0.6669
16430TIP3   OH270780   6.148   1.067   2.721  0.6925  0.4706  0.3789
16430TIP3    H170781   6.141   1.026   2.808 -0.6902  1.4017  0.7444
16430TIP3    H270782   6.099   1.009   2.664 -0.3628  1.0270  0.6914
16431TIP3   OH270783   1.634   0.092  11.797 -0.7345  0.2701 -0.7226
16431TIP3    H170784   1.596   0.172  11.762  0.6892  1.5493  0.4880
16431TIP3    H270785   1.598   0.086  11.886 -2.2043 -1.4527 -1.3669
16432TIP3   OH270786   5.512   4.907   5.742  0.3351  0.2516  0.3625
16432TIP3    H170787   5.523   4.817   5.773  2.5017 -0.0218 -0.9708
16432TIP3    H270788   5.454   4.899   5.666 -1.3170  0.3350  1.5613
16433TIP3   OH270789   3.513   0.407   0.198 -0.4579  0.0064 -0.2210
16433TIP3    H170790   3.551   0.328   0.238 -0.9067  0.1174  0.4375
16433TIP3    H270791   3.444   0.433   0.259  0.0879  1.2700 -0.1141
16434TIP3   OH270792   2.084   6.141  13.588  0.3463  0.5281  0.0793
16434TIP3    H170793   2.169   6.099  13.571 -0.6658 -1.2370 -0.8799
16434TIP3    H270794   2.107   6.224  13.629  2.5256 -0.1076  0.2957
16435TIP3   OH270795   1.078   0.919  15.040 -0.5667 -0.5133 -0.2544
16435TIP3    H170796   1.153   0.902  14.983 -0.4031  1.2593 -0.6276
16435TIP3    H270797   1.015   0.965  14.984 -1.0070 -0.0153  0.6251
16436TIP3   OH270798   2.586   5.044  15.878 -0.0720 -0.1807  0.0143
16436TIP3    H170799   2.669   5.091  15.875  0.3781 -0.9679 -0.0384
16436TIP3    H270800   2.610   4.954  15.898 -0.7932 -0.7355 -1.5010
16437TIP3   OH270801   1.093   6.087   1.495 -0.1777  0.2868 -0.3203
16437TIP3    H170802   1.118   6.004   1.454  0.8034 -0.7848  2.2067
16437TIP3    H270803   1.008   6.068   1.536 -0.1826  0.6844 -0.1392
16438TIP3   OH270804   4.154   0.263  12.671 -0.2297  0.3235 -0.1025
16438TIP3    H170805   4.145   0.191  12.608  0.1674  0.0317  0.1723
16438TIP3    H270806   4.247   0.282  12.672 -0.3516  0.9457 -0.2815
16439TIP3   OH270807   3.569   6.387  12.138  0.0640 -0.4829  0.5370
16439TIP3    H170808   3.558   6.292  12.127 -2.5301 -0.0966 -1.0919
16439TIP3    H270809   3.635   6.411  12.073 -0.9582 -0.9113 -0.7006
16440TIP3   OH270810   5.563   3.426  11.077  0.2212  0.0564  0.2786
16440TIP3    H170811   5.643   3.433  11.025 -0.0622  2.0377  0.0591
16440TIP3    H270812   5.519   3.510  11.065 -1.8968 -0.9724  0.4150
16441TIP3   OH270813   3.371   2.720   0.626  0.2957  0.2120  0.0813
16441TIP3    H170814   3.278   2.701   0.608  0.5176 -1.3259  0.4183
16441TIP3    H270815   3.390   2.797   0.573 -0.7721 -0.3652 -1.1975
16442TIP3   OH270816   3.835   2.647   1.954  0.3620  0.4137  0.4194
16442TIP3    H170817   3.743   2.657   1.930 -0.1780  0.2977  2.2939
16442TIP3    H270818   3.881   2.711   1.900 -0.5698 -0.6122 -1.7304
16443TIP3   OH270819   4.772   5.342   1.178 -0.0254 -0.2836 -0.1935
16443TIP3    H170820   4.745   5.352   1.087  1.6834  2.8449 -0.5095
16443TIP3    H270821   4.697   5.374   1.229 -0.0521  0.3748 -0.6339
16444TIP3   OH270822   3.027   3.536   3.883  0.5060  0.0870  0.0149
16444TIP3    H170823   2.975   3.502   3.810  0.6287 -3.0795  1.2524
16444TIP3    H270824   2.985   3.619   3.906 -2.6645 -1.2764 -0.4347
16445TIP3   OH270825   4.592   4.051   0.248 -0.0870  0.5825  0.6890
16445TIP3    H170826   4.629   4.102   0.177 -0.1598  0.5069  0.5970
16445TIP3    H270827   4.499   4.040   0.225 -0.2882  1.2155  1.1773
16446TIP3   OH270828   4.100   0.598   3.626  0.3382  0.3272 -0.1927
16446TIP3    H170829   4.080   0.507   3.649 -0.8708  0.8699  1.0612
16446TIP3    H270830   4.178   0.592   3.571 -0.1211 -1.5159 -0.7200
16447TIP3   OH270831   1.481   3.622  15.221  0.3234  0.6449 -0.2208
16447TIP3    H170832   1.548   3.610  15.288  0.4425  0.0411 -0.4433
16447TIP3    H270833   1.483   3.716  15.202  1.6713  0.5079 -0.8148
16448TIP3   OH270834   6.292   5.952  14.446  0.2370 -0.0226  0.2289
16448TIP3    H170835   6.287   5.992  14.359  2.6944  0.6273  0.3212
16448TIP3    H270836   6.205   5.965  14.483 -0.0736  2.1025 -1.0946
16449TIP3   OH270837   4.613   3.832   1.056 -0.5020 -0.2156 -0.1159
16449TIP3    H170838   4.646   3.807   1.142 -0.1168 -0.5593 -0.3555
16449TIP3    H270839   4.684   3.809   0.996 -0.3668  0.9568 -0.4185
16450TIP3   OH270840   1.071   6.154   3.832 -0.3350 -0.4055 -0.2802
16450TIP3    H170841   0.991   6.116   3.867  0.1821 -1.6716 -0.4483
16450TIP3    H270842   1.111   6.085   3.780  1.3697 -0.1416  0.5824
16451TIP3   OH270843   0.404   2.577  13.090 -0.0235  0.0621  0.1184
16451TIP3    H170844   0.335   2.512  13.099  0.3576 -0.6965 -1.8693
16451TIP3    H270845   0.468   2.554  13.158  0.3461 -1.9977 -0.8551
16452TIP3   OH270846   4.082   2.129   4.120  0.3312 -0.1426  0.7719
16452TIP3    H170847   4.010   2.091   4.069  0.7374 -1.1409  0.9077
16452TIP3    H270848   4.057   2.115   4.211  0.9034 -0.9551  0.8222
16453TIP3   OH270849   5.534   5.383   0.313 -0.2844 -0.4968 -0.3135
16453TIP3    H170850   5.564   5.445   0.380 -0.7026 -0.8038  0.1649
16453TIP3    H270851   5.554   5.427   0.230 -0.3525  0.1752  0.0151
16454TIP3   OH270852   4.788   0.079  15.802  0.2894  0.3477 -0.2101
16454TIP3    H170853   4.724   0.098  15.734  0.2691  0.9839 -0.0166
16454TIP3    H270854   4.757  -0.002  15.842 -0.1054  0.3734 -0.4635
16455TIP3   OH270855   4.774   5.553  13.052  0.0301 -0.6559 -0.7000
16455TIP3    H170856   4.683   5.538  13.080  0.0335 -1.7046 -1.2132
16455TIP3    H270857   4.766   5.588  12.963  0.0488  1.9668  0.2485
16456TIP3   OH270858   1.421   4.197  13.148 -0.2369  0.2473  0.7741
16456TIP3    H170859   1.504   4.231  13.180 -0.7182  1.8243  0.4233
16456TIP3    H270860   1.437   4.104  13.135  0.9360  0.1680  2.4141
16457TIP3   OH270861   3.966   4.143   2.540 -0.0617  0.3912  0.6035
16457TIP3    H170862   3.977   4.238   2.549 -0.2967  0.5311 -0.4993
16457TIP3    H270863   3.908   4.133   2.465 -1.8139 -0.5752  2.0293
16458TIP3   OH270864   5.597   1.932   3.837 -0.8314 -0.1175  0.0273
16458TIP3    H170865   5.625   1.852   3.792 -0.4777 -1.2845  2.1781
16458TIP3    H270866   5.512   1.953   3.797  0.4214  0.2143 -2.6581
16459TIP3   OH270867   5.964   3.475   6.003 -0.2727 -0.1317  0.1843
16459TIP3    H170868   5.881   3.507   5.967 -0.2003 -0.0614  0.0776
16459TIP3    H270869   5.982   3.533   6.077  0.1065  0.3943 -0.3102
16460TIP3   OH270870   0.175   5.462  10.794  0.0360  0.2275  0.3882
16460TIP3    H170871   0.208   5.378  10.825  0.8109 -0.1506 -1.3430
16460TIP3    H270872   0.081   5.448  10.782 -0.0166 -0.0637  1.0628
16461TIP3   OH270873   4.837   6.173  13.367 -0.6322  0.9678  0.1115
16461TIP3    H170874   4.858   6.215  13.450  0.5944 -1.3436  1.0766
16461TIP3    H270875   4.899   6.210  13.305  0.8805  0.1423  1.0867
16462TIP3   OH270876   2.447   4.632   5.528 -0.5733 -0.9635 -0.1454
16462TIP3    H170877   2.536   4.602   5.544 -0.2673  0.4106  0.8958
16462TIP3    H270878   2.417   4.579   5.454  1.1627 -1.3371 -0.6330
16463TIP3   OH270879   6.226   0.235   4.440 -0.2080 -0.4420  0.4599
16463TIP3    H170880   6.265   0.236   4.528  0.2813 -0.5801  0.2482
16463TIP3    H270881   6.299   0.215   4.382 -0.1959  1.2883 -0.1610
16464TIP3   OH270882   4.965   1.912  11.277  0.0966  0.2441 -0.3436
16464TIP3    H170883   4.874   1.883  11.269  0.0726  0.0646  0.4526
16464TIP3    H270884   5.017   1.832  11.271  0.0804  0.0990  0.9841
16465TIP3   OH270885   1.829   4.095  12.936  0.4540 -0.0845  0.2009
16465TIP3    H170886   1.912   4.069  12.895  0.2648  0.1206 -0.3107
16465TIP3    H270887   1.853   4.115  13.027  0.8725 -0.5396  0.1918
16466TIP3   OH270888   1.229   6.496   1.040  0.2432 -0.1055 -0.4231
16466TIP3    H170889   1.207   6.484   1.132  0.2608 -2.1866 -0.6431
16466TIP3    H270890   1.221   6.590   1.026  1.0111  0.3749  1.8851
16467TIP3   OH270891   3.566   0.579  16.204  0.1141 -0.6603  0.1395
16467TIP3    H170892   3.622   0.653  16.230  3.7644 -2.4757 -1.7543
16467TIP3    H270893   3.581   0.513  16.272 -1.2788 -0.5400  0.5831
16468TIP3   OH270894   2.477   0.840  13.196  0.3587 -0.7274  0.6687
16468TIP3    H170895   2.499   0.895  13.121  0.5110  0.6327  1.6764
16468TIP3    H270896   2.562   0.815  13.233  0.2850 -1.4497  0.3698
16469TIP3   OH270897   0.442   5.466   5.737 -0.3492 -0.0209  0.2619
16469TIP3    H170898   0.456   5.443   5.828 -2.8681  1.0163  0.9996
16469TIP3    H270899   0.431   5.561   5.737 -0.7750 -0.0399 -1.0660
16470TIP3   OH270900   2.513   0.375  16.940 -0.3484 -0.2818 -0.0735
16470TIP3    H170901   2.429   0.359  16.983 -2.0128  3.2908 -1.5533
16470TIP3    H270902   2.562   0.427  17.003 -0.1630 -0.4442 -0.0828
16471TIP3   OH270903   5.551   2.344  14.069  0.1702 -0.2191  0.1612
16471TIP3    H170904   5.617   2.413  14.058  1.4448 -1.2486  1.0432
16471TIP3    H270905   5.601   2.263  14.071 -1.1820 -1.0762  0.4588
16472TIP3   OH270906   0.032   1.291  11.919  0.1195 -0.2236 -0.1197
16472TIP3    H170907  -0.053   1.252  11.901  0.1149 -0.4962  0.4811
16472TIP3    H270908   0.094   1.219  11.912  0.0490 -0.4664  1.5153
16473TIP3   OH270909   2.090   0.830   0.621  0.0607  0.0996  0.6030
16473TIP3    H170910   2.098   0.869   0.534  0.6889  0.9716  1.0353
16473TIP3    H270911   2.093   0.904   0.681  0.4483 -0.5513  1.4068
16474TIP3   OH270912   5.723   3.492  11.662  0.2769 -0.0396 -0.3832
16474TIP3    H170913   5.808   3.452  11.644  0.2860 -0.3553  0.3116
16474TIP3    H270914   5.662   3.418  11.667  0.0121  0.1609 -0.5803
16475TIP3   OH270915   2.111   1.288   2.567 -0.0688 -0.0431  0.4496
16475TIP3    H170916   2.150   1.208   2.533  1.0350  0.3483  0.7548
16475TIP3    H270917   2.031   1.300   2.516  1.1740  0.1604 -1.5201
16476TIP3   OH270918   1.582   1.990  12.546  0.2105 -0.1320 -0.5046
16476TIP3    H170919   1.571   1.959  12.636  2.7359 -0.9531 -0.4251
16476TIP3    H270920   1.549   1.919  12.492 -0.9416  0.2010 -0.2772
16477TIP3   OH270921   3.652   5.565  11.497  0.0574 -0.1490  0.5141
16477TIP3    H170922   3.651   5.578  11.591 -2.1457 -0.8033  0.6226
16477TIP3    H270923   3.604   5.484  11.482  0.1883  0.0329 -1.1850
16478TIP3   OH270924   1.835   4.384  15.949 -0.0634 -0.5403 -0.0333
16478TIP3    H170925   1.870   4.387  15.860  0.5352  0.1568  0.2111
16478TIP3    H270926   1.741   4.400  15.939  0.1496  0.4935 -0.4653
16479TIP3   OH270927   4.571   5.582  15.780 -0.1713 -0.1040  0.1653
16479TIP3    H170928   4.505   5.541  15.835 -0.1486 -0.0856  0.2063
16479TIP3    H270929   4.566   5.676  15.802 -0.3923 -0.0519 -0.1081
16480TIP3   OH270930   1.390   4.765   2.396 -0.1648 -0.7846  0.4405
16480TIP3    H170931   1.410   4.702   2.466  0.5131 -1.5452 -0.4059
16480TIP3    H270932   1.394   4.713   2.316 -1.4747 -0.0491 -0.1339
16481TIP3   OH270933   2.036   1.433  12.793 -0.3937  0.1239  0.6665
16481TIP3    H170934   2.129   1.458  12.793 -0.7992  1.7932 -0.3553
16481TIP3    H270935   1.997   1.485  12.863 -1.2598  2.6124 -1.5099
16482TIP3   OH270936   1.152   6.801   3.643 -0.0544 -0.3166 -0.6033
16482TIP3    H170937   1.168   6.893   3.665  0.0793 -0.8013  1.6495
16482TIP3    H270938   1.058   6.796   3.628 -0.1860  0.0715  0.0390
16483TIP3   OH270939   4.722   3.942  13.757  0.7099 -0.2382  0.1007
16483TIP3    H170940   4.663   3.894  13.816 -0.3312 -0.4812 -1.0824
16483TIP3    H270941   4.803   3.891  13.758  1.2305  0.5027  2.3306
16484TIP3   OH270942   5.811   3.411  12.348  0.3343 -0.4176 -0.6049
16484TIP3    H170943   5.879   3.469  12.381  0.2181 -0.2602 -0.6393
16484TIP3    H270944   5.763   3.465  12.285 -2.2944  0.7828  2.2003
16485TIP3   OH270945   3.429   4.681  12.342  0.5028  0.2170  0.0160
16485TIP3    H170946   3.474   4.666  12.259  0.8706 -2.4271  0.5999
16485TIP3    H270947   3.496   4.671  12.409  0.0159  1.3648  0.7157
16486TIP3   OH270948   4.938   4.922  16.218  0.1399  0.0655 -0.5184
16486TIP3    H170949   4.956   5.016  16.225 -0.9476  0.2584 -0.0524
16486TIP3    H270950   4.898   4.899  16.302  0.7957 -0.9190 -0.4623
16487TIP3   OH270951   0.316   2.134   2.545  0.6099  0.0930  0.0856
16487TIP3    H170952   0.248   2.139   2.612  0.7478  0.0594  0.2270
16487TIP3    H270953   0.396   2.116   2.593  0.7744  0.4550 -0.0513
16488TIP3   OH270954   3.783   0.064  13.429 -0.4014  0.3642 -0.0399
16488TIP3    H170955   3.690   0.043  13.439 -0.6373  1.0989 -0.6238
16488TIP3    H270956   3.792   0.151  13.468  0.5506 -0.6803  2.2839
16489TIP3   OH270957   4.181   2.972  11.949  0.5489 -0.0903 -0.0008
16489TIP3    H170958   4.151   2.958  12.039  1.8568 -1.3084  0.2868
16489TIP3    H270959   4.255   3.033  11.958 -0.4822  1.2687 -0.4765
16490TIP3   OH270960   6.468   3.727   5.196 -0.5618 -0.0367 -0.6791
16490TIP3    H170961   6.547   3.674   5.188 -0.5605 -0.1009 -0.2433
16490TIP3    H270962   6.401   3.666   5.227 -0.1010  0.5926  1.7480
16491TIP3   OH270963   1.437   5.156   4.426 -0.1281  0.0575 -0.0654
16491TIP3    H170964   1.478   5.161   4.340  1.0175  2.7432  0.5339
16491TIP3    H270965   1.368   5.090   4.416  0.7154 -0.5355 -2.6853
16492TIP3   OH270966   5.474   3.797   0.841 -0.5016 -0.3621  0.0411
16492TIP3    H170967   5.527   3.828   0.767 -1.0129  1.7215  0.4622
16492TIP3    H270968   5.535   3.791   0.914  0.4169 -4.3031 -0.8726
16493TIP3   OH270969   2.306   0.247  16.491  0.1197  0.0407  0.2944
16493TIP3    H170970   2.223   0.284  16.523 -0.1788 -0.6567  0.3561
16493TIP3    H270971   2.372   0.312  16.514 -0.1634 -0.1970  1.8507
16494TIP3   OH270972   4.512   6.763  16.373  0.0163  0.1656  0.4475
16494TIP3    H170973   4.512   6.769  16.278  0.2684 -0.9324  0.3613
16494TIP3    H270974   4.597   6.800  16.399  0.6457 -0.9669  0.1092
16495TIP3   OH270975   2.358   1.372  16.366 -0.3719 -0.7287 -0.7004
16495TIP3    H170976   2.326   1.396  16.279 -0.2116 -0.9857 -0.8316
16495TIP3    H270977   2.429   1.434  16.383 -0.6111 -0.4751 -0.6167
16496TIP3   OH270978   5.557   3.645   3.211 -0.4939  0.1106  0.3771
16496TIP3    H170979   5.550   3.699   3.290 -1.8681  0.8271 -0.2129
16496TIP3    H270980   5.599   3.703   3.147 -0.0612 -0.2259  0.3518
16497TIP3   OH270981   3.581   3.874  15.022  0.0759 -0.0945  0.0961
16497TIP3    H170982   3.531   3.794  15.007 -0.2406 -0.0734  0.9760
16497TIP3    H270983   3.660   3.844  15.069 -0.1995  0.1353  0.7198
16498TIP3   OH270984   4.707   3.937   2.953 -0.2052  0.7838 -0.1271
16498TIP3    H170985   4.727   3.882   3.029  1.2210  0.9869 -0.3198
16498TIP3    H270986   4.636   3.891   2.908 -2.4006  1.6003  2.2686
16499TIP3   OH270987   3.605   6.291   3.335 -0.7435 -0.0621  0.0665
16499TIP3    H170988   3.690   6.303   3.291 -0.5752  1.0202  0.6544
16499TIP3    H270989   3.603   6.198   3.356  1.0049  0.1335  1.3843
16500TIP3   OH270990   6.231   2.869  15.300 -0.0874  0.1281 -0.0432
16500TIP3    H170991   6.186   2.801  15.350 -1.2759 -0.5037 -1.8745
16500TIP3    H270992   6.321   2.869  15.333 -0.9419  0.1786  2.4639
16501TIP3   OH270993   0.148   3.314   3.886  0.0662  0.3616 -0.5112
16501TIP3    H170994   0.068   3.266   3.910  0.3172  0.4121  0.4610
16501TIP3    H270995   0.211   3.291   3.954  1.0588 -0.0858 -1.5477
16502TIP3   OH270996   0.402   3.683   4.370  0.2683  0.0696  0.1063
16502TIP3    H170997   0.430   3.613   4.310 -0.1658 -2.0980  2.2620
16502TIP3    H270998   0.313   3.658   4.395 -0.3557  2.0934  0.0553
16503TIP3   OH270999   1.123   5.565   1.100  0.7875  0.1696  0.1227
16503TIP3    H171000   1.167   5.512   1.166 -0.4281 -0.6525  0.3028
16503TIP3    H271001   1.066   5.623   1.151  2.2254  1.8243 -0.0554
16504TIP3   OH271002   6.437   2.812   1.744 -0.0003 -0.1453 -0.0896
16504TIP3    H171003   6.434   2.877   1.815 -0.7911  0.2783 -0.4951
16504TIP3    H271004   6.476   2.734   1.784  1.0892  0.6078  0.3826
16505TIP3   OH271005   3.865   0.848  16.760 -0.0949  0.1247  0.0358
16505TIP3    H171006   3.839   0.767  16.803 -0.5569  1.0241  1.5440
16505TIP3    H271007   3.803   0.913  16.794 -0.4062  0.9158 -1.9420
16506TIP3   OH271008   4.349   5.512   5.288 -0.1998 -0.4998 -0.5270
16506TIP3    H171009   4.380   5.595   5.254  1.3601 -0.1959  1.4815
16506TIP3    H271010   4.277   5.487   5.228 -1.1995  2.5844 -0.7892
16507TIP3   OH271011   6.366   4.280  15.892 -0.6529  0.6178  0.4671
16507TIP3    H171012   6.279   4.287  15.931 -0.5005  2.1583  0.5903
16507TIP3    H271013   6.413   4.358  15.922  0.9488 -0.4259  0.8026
16508TIP3   OH271014   6.684   5.355   1.784 -0.0868 -0.2714 -0.0470
16508TIP3    H171015   6.598   5.381   1.817 -0.7781 -0.0289 -1.9483
16508TIP3    H271016   6.712   5.427   1.728  0.6933 -0.9881 -0.6109
16509TIP3   OH271017   0.636   3.769  14.304 -0.3053 -0.0485  0.4229
16509TIP3    H171018   0.581   3.694  14.283 -0.2260 -0.5942  2.0561
16509TIP3    H271019   0.706   3.733  14.358 -0.8205  1.3413  2.0917
16510TIP3   OH271020   3.324   4.422   2.444  0.2395  0.0414 -0.4949
16510TIP3    H171021   3.279   4.381   2.370 -0.2527 -0.3124 -0.0074
16510TIP3    H271022   3.254   4.462   2.495  0.5856  0.3517 -0.2583
16511TIP3   OH271023   5.261   6.811   5.186  0.2751  0.1516 -0.0543
16511TIP3    H171024   5.261   6.905   5.167 -0.7294  0.0360 -0.6960
16511TIP3    H271025   5.181   6.778   5.145  0.4930 -0.9480  0.3674
16512TIP3   OH271026   6.199   4.390   2.511  0.4391 -0.2518  0.4539
16512TIP3    H171027   6.197   4.354   2.423 -0.8105  1.4878 -0.3002
16512TIP3    H271028   6.286   4.368   2.545  1.1339 -0.5154 -1.4020
16513TIP3   OH271029   4.853   6.464   0.223 -0.4519  0.2144 -0.1738
16513TIP3    H171030   4.880   6.459   0.131  2.1389 -1.3061  0.5708
16513TIP3    H271031   4.827   6.555   0.235 -1.1005  0.4032 -2.4443
16514TIP3   OH271032   1.393   2.479   1.290  0.1884  0.2203  0.3472
16514TIP3    H171033   1.358   2.547   1.231 -1.1784 -1.2147 -0.5699
16514TIP3    H271034   1.426   2.411   1.231  2.6250  0.5483  1.2374
16515TIP3   OH271035   2.135   0.877  11.472  0.2930 -0.4276 -0.3758
16515TIP3    H171036   2.131   0.835  11.386  0.0997 -0.2488 -0.4537
16515TIP3    H271037   2.127   0.971  11.454 -0.6349 -0.4472 -0.0889
16516TIP3   OH271038   6.721   0.968   1.596 -0.3107  0.0509 -0.0535
16516TIP3    H171039   6.639   0.932   1.562 -0.7566  2.0164 -1.1923
16516TIP3    H271040   6.706   0.980   1.689 -0.9538 -0.5397 -0.0738
16517TIP3   OH271041   2.047   6.161   4.433  0.0551  0.1351  0.1631
16517TIP3    H171042   1.981   6.128   4.494  0.5748 -0.2629  0.5186
16517TIP3    H271043   2.000   6.224   4.379 -0.6127 -0.1259  0.4268
16518TIP3   OH271044   2.550   1.503   0.993  0.1799 -0.3068  0.3225
16518TIP3    H171045   2.462   1.539   0.981 -0.1049  0.4300  3.7779
16518TIP3    H271046   2.608   1.577   0.979  0.1613 -0.3806 -0.1857
16519TIP3   OH271047   3.426   1.441  11.908 -0.1330  0.2358  0.0282
16519TIP3    H171048   3.498   1.488  11.866  0.3758  0.3166  0.9797
16519TIP3    H271049   3.350   1.499  11.898  0.1097  0.5019 -0.2739
16520TIP3   OH271050   1.763   2.740   2.961  1.1896  0.4943  0.1508
16520TIP3    H171051   1.690   2.702   3.009  1.0596 -0.1946 -0.5536
16520TIP3    H271052   1.841   2.711   3.009  1.0330  0.4635  0.3863
16521TIP3   OH271053   6.392   3.958  12.158  0.4154 -0.1629  0.4368
16521TIP3    H171054   6.468   3.967  12.101  1.3276 -0.1607  1.6085
16521TIP3    H271055   6.394   3.867  12.186  0.3707 -0.0058  0.9703
16522TIP3   OH271056   1.588   5.335  11.635 -0.7561  0.6957  0.2507
16522TIP3    H171057   1.647   5.407  11.612  0.4724  0.1403  1.5038
16522TIP3    H271058   1.635   5.287  11.703 -2.4440 -0.1134  0.8878
16523TIP3   OH271059   1.452   2.269  16.228  0.3265  0.1777  0.4806
16523TIP3    H171060   1.525   2.240  16.173 -0.4917 -3.8323  1.2563
16523TIP3    H271061   1.494   2.301  16.308  1.3555  3.3939 -1.1388
16524TIP3   OH271062   2.365   3.795  11.831 -0.1065  0.3973 -0.3958
16524TIP3    H171063   2.443   3.845  11.855  0.6311 -1.0377  0.3285
16524TIP3    H271064   2.323   3.775  11.914 -0.5391  0.0620 -0.6944
16525TIP3   OH271065   5.338   1.783   1.456  0.1325 -0.2692  0.4401
16525TIP3    H171066   5.325   1.828   1.539 -0.9392 -0.7825  0.5686
16525TIP3    H271067   5.274   1.822   1.396  1.9790  1.2593 -0.6728
16526TIP3   OH271068   1.254   6.024  12.827  0.2473 -0.3480 -0.4060
16526TIP3    H171069   1.174   6.075  12.839 -1.4118 -2.4759 -1.6112
16526TIP3    H271070   1.228   5.934  12.846  1.7696 -1.4151 -2.8750
16527TIP3   OH271071   1.026   6.175  12.512  0.0850  0.3962  0.2331
16527TIP3    H171072   0.958   6.230  12.552 -1.1090 -0.9482  0.1297
16527TIP3    H271073   1.006   6.177  12.418  0.0119 -0.2238  0.2318
16528TIP3   OH271074   0.026   6.195  10.584 -0.1324  0.4111 -0.0571
16528TIP3    H171075   0.106   6.245  10.602  0.3331 -0.9851  2.1402
16528TIP3    H271076   0.057   6.112  10.546 -0.5511  0.0574  0.3512
16529TIP3   OH271077   1.591   4.288   6.338 -0.8643 -0.8127  0.5296
16529TIP3    H171078   1.587   4.373   6.381 -1.4645 -0.7307  0.3245
16529TIP3    H271079   1.580   4.225   6.409  2.0064 -0.8469  1.0655
16530TIP3   OH271080   5.046   4.136   1.562 -0.0184 -0.2792  0.4840
16530TIP3    H171081   5.025   4.058   1.510 -0.7090 -0.5657  1.1570
16530TIP3    H271082   5.008   4.117   1.648  1.5369 -0.0398  1.2576
16531TIP3   OH271083   1.928   1.341  16.182 -0.2397  0.6445  0.1929
16531TIP3    H171084   1.964   1.429  16.170 -0.0652  0.4434 -0.7749
16531TIP3    H271085   2.005   1.285  16.194 -0.2241  0.2834 -1.4425
16532TIP3   OH271086   5.828   4.220   3.051 -0.0071  0.1934 -0.0406
16532TIP3    H171087   5.793   4.173   3.127  0.4618 -2.2889 -1.2494
16532TIP3    H271088   5.921   4.231   3.070 -0.3293  1.8301  0.7701
16533TIP3   OH271089   3.602   3.795   4.770  0.5095 -0.3369  0.2527
16533TIP3    H171090   3.647   3.822   4.850 -3.6233  0.9462  2.4584
16533TIP3    H271091   3.616   3.701   4.765  2.0205 -0.2299  1.7075
16534TIP3   OH271092   2.959   1.003   4.450 -0.4758  0.4456 -0.0743
16534TIP3    H171093   2.907   1.081   4.430 -1.1310  0.2872  0.9460
16534TIP3    H271094   2.912   0.960   4.521 -0.4499 -1.2106 -1.0064
16535TIP3   OH271095   2.525   4.739   0.089  0.4371  0.4004 -0.7167
16535TIP3    H171096   2.468   4.688   0.147 -0.3398  1.0841 -0.8620
16535TIP3    H271097   2.484   4.825   0.083  1.6452  1.0116 -0.6023
16536TIP3   OH271098   4.421   3.431  15.771  0.3228 -0.2206  0.2638
16536TIP3    H171099   4.485   3.455  15.837  0.9084 -0.1981 -0.3001
16536TIP3    H271100   4.350   3.494  15.781  1.1471  0.7972 -0.1930
16537TIP3   OH271101   3.412   4.345  10.847  0.5097  0.1696 -0.5421
16537TIP3    H171102   3.377   4.262  10.878  1.1400  0.0308 -0.1868
16537TIP3    H271103   3.358   4.367  10.771 -0.2176 -0.1270 -0.1216
16538TIP3   OH271104   1.385   5.294   0.163 -0.0676  0.5680 -0.1123
16538TIP3    H171105   1.324   5.365   0.181 -1.5238 -0.7814  0.5240
16538TIP3    H271106   1.362   5.265   0.075  0.3142  0.6804 -0.2492
16539TIP3   OH271107   2.257   5.047  14.755 -0.0315  0.2511  0.0526
16539TIP3    H171108   2.296   5.123  14.798  0.1096 -0.1624  0.6604
16539TIP3    H271109   2.168   5.075  14.732 -0.5269  0.1031  1.6823
16540TIP3   OH271110   2.764   1.206  12.977  0.2388 -0.0277 -0.3816
16540TIP3    H171111   2.674   1.173  12.972 -0.1767  0.8305  0.9775
16540TIP3    H271112   2.807   1.170  12.899 -1.4395  0.0264 -1.3899
16541TIP3   OH271113   3.229   1.694  11.122  0.2142 -0.1505  0.5554
16541TIP3    H171114   3.293   1.676  11.053  0.2192  0.2678  0.4464
16541TIP3    H271115   3.157   1.634  11.104  1.1285 -1.5926  1.4629
16542TIP3   OH271116   5.747   5.018  15.870 -0.2053  0.2470  0.0950
16542TIP3    H171117   5.803   4.951  15.908  1.2108  1.2476 -0.1267
16542TIP3    H271118   5.789   5.101  15.893 -0.5396  0.9704 -1.6780
16543TIP3   OH271119   2.197   3.655   2.352  0.7755  0.3172 -0.5633
16543TIP3    H171120   2.210   3.689   2.440  0.7793  0.1379 -0.4946
16543TIP3    H271121   2.285   3.626   2.325  0.3242 -2.2399  0.4517
16544TIP3   OH271122   1.202   3.029   1.620  0.1290  0.0442 -0.1939
16544TIP3    H171123   1.202   3.029   1.716 -0.6469 -2.7479 -0.1105
16544TIP3    H271124   1.118   2.989   1.596  0.5688  0.1309 -2.0245
16545TIP3   OH271125   4.418   1.244   4.255  0.3884 -0.0404 -0.3169
16545TIP3    H171126   4.485   1.311   4.267  0.7818 -0.7630  2.0531
16545TIP3    H271127   4.355   1.259   4.326  0.9671 -2.6598  0.8579
16546TIP3   OH271128   1.226   2.681  15.530  0.5356  0.5076 -0.2632
16546TIP3    H171129   1.284   2.726  15.591 -1.1675 -0.5527  2.2875
16546TIP3    H271130   1.138   2.697  15.564 -0.2601 -3.1325 -0.2465
16547TIP3   OH271131   1.626   1.756  11.701 -0.1686  0.2246 -0.3853
16547TIP3    H171132   1.606   1.848  11.720 -1.2424  0.0759 -0.6957
16547TIP3    H271133   1.547   1.724  11.657 -1.1517 -1.6465  2.4155
16548TIP3   OH271134   4.515   3.088   5.532  0.2511 -0.1256 -0.2143
16548TIP3    H171135   4.450   3.081   5.462  0.1294  0.7585 -0.2034
16548TIP3    H271136   4.475   3.145   5.597  1.0681  0.5372 -0.2642
16549TIP3   OH271137   1.861   3.505  13.218  0.6444 -0.1397 -0.4386
16549TIP3    H171138   1.890   3.476  13.304  1.9051 -1.7844 -1.3495
16549TIP3    H271139   1.942   3.530  13.172 -0.0787  1.4575 -0.9095
16550TIP3   OH271140   1.115   5.533  13.235 -0.4290  0.5249  0.0149
16550TIP3    H171141   1.046   5.595  13.210  1.2522  2.2713 -0.5864
16550TIP3    H271142   1.194   5.567  13.192  0.8740 -1.2357  0.8952
16551TIP3   OH271143   2.453   5.824   4.576  0.2383 -0.2466  0.2138
16551TIP3    H171144   2.505   5.787   4.506 -1.9456 -0.8185 -1.2073
16551TIP3    H271145   2.513   5.831   4.650  2.5550  0.1382 -1.5976
16552TIP3   OH271146   4.919   5.871   0.912  0.5641 -0.5025 -0.5198
16552TIP3    H171147   4.894   5.963   0.904  0.9960 -0.4625 -1.4826
16552TIP3    H271148   4.870   5.840   0.989  0.4047  0.5179 -0.1964
16553TIP3   OH271149   5.834   2.239   0.889  0.2936  0.1589  0.6010
16553TIP3    H171150   5.743   2.245   0.859  0.3311  0.8937  0.6197
16553TIP3    H271151   5.868   2.328   0.880  1.1750 -0.2103  0.0841
16554TIP3   OH271152   4.819   4.774   4.182  0.0730 -0.7957 -0.3577
16554TIP3    H171153   4.754   4.840   4.205 -0.1835 -1.3661  0.6124
16554TIP3    H271154   4.851   4.801   4.096 -1.5398 -0.5825 -0.9245
16555TIP3   OH271155   2.503   0.341   2.142  0.0115  0.1396 -0.4056
16555TIP3    H171156   2.458   0.256   2.134  0.1399  0.0734 -0.4225
16555TIP3    H271157   2.467   0.393   2.070 -0.5815  0.3340  0.0221
16556TIP3   OH271158   3.987   5.863   5.872 -0.2348  0.5406  0.2546
16556TIP3    H171159   4.080   5.843   5.865  0.0413  1.1164  1.8782
16556TIP3    H271160   3.974   5.887   5.963 -2.2947 -1.0998  0.4762
16557TIP3   OH271161   5.385   1.589  12.990 -0.7523  0.5145 -0.2910
16557TIP3    H171162   5.475   1.564  13.009 -0.3817  1.7634 -0.3623
16557TIP3    H271163   5.336   1.565  13.069 -0.4154 -0.4092 -0.3528
16558TIP3   OH271164   5.424   3.329   5.149  0.1450  0.4392 -0.7888
16558TIP3    H171165   5.423   3.365   5.060  0.4920  0.8304 -0.6391
16558TIP3    H271166   5.379   3.396   5.202 -0.1826  0.1447 -0.6938
16559TIP3   OH271167   1.679   3.079  14.170 -0.4256  0.1388  0.2359
16559TIP3    H171168   1.618   3.017  14.210  0.4058 -1.7747 -1.2928
16559TIP3    H271169   1.626   3.125  14.105 -0.8383  0.4039  0.7499
16560TIP3   OH271170   4.087   3.274  12.668  0.5627 -0.3246 -0.2866
16560TIP3    H171171   4.071   3.213  12.595  1.4452 -1.2621  0.2785
16560TIP3    H271172   4.100   3.359  12.625 -0.2005 -0.6068 -1.1270
16561TIP3   OH271173   1.268   0.570   2.772 -0.2619  0.0597  0.1423
16561TIP3    H171174   1.302   0.523   2.696 -0.1791 -3.1626  2.0311
16561TIP3    H271175   1.320   0.650   2.776  0.2814 -0.0582 -2.6595
16562TIP3   OH271176   4.665   0.618   2.021 -0.3352  0.3348  0.1151
16562TIP3    H171177   4.730   0.687   2.033 -0.3552  0.4905 -0.6065
16562TIP3    H271178   4.581   0.665   2.019 -0.6614 -0.0235  2.7385
16563TIP3   OH271179   5.693   2.905  12.114  0.5281  0.2075  0.0593
16563TIP3    H171180   5.743   2.888  12.194 -1.9933  1.3250  2.0090
16563TIP3    H271181   5.602   2.891  12.140 -0.3180 -0.5657 -3.0004
16564TIP3   OH271182   1.916   5.368   5.034  0.0035 -0.6171 -0.5314
16564TIP3    H171183   1.887   5.440   5.091 -1.1730 -1.4635 -0.0248
16564TIP3    H271184   1.875   5.386   4.949 -2.8147 -2.1976  0.3693
16565TIP3   OH271185   1.931   2.348   6.077 -0.4457  0.3028  0.1709
16565TIP3    H171186   1.963   2.265   6.042  0.9364  0.1269  1.7357
16565TIP3    H271187   2.002   2.381   6.132 -1.2404  2.1789  0.1806
16566TIP3   OH271188   6.035   0.721  10.508 -0.4326  0.2910  0.3774
16566TIP3    H171189   6.029   0.814  10.532 -0.3686 -0.0867  1.9372
16566TIP3    H271190   6.126   0.709  10.482  0.0293  0.3020  1.8892
16567TIP3   OH271191   5.497   3.870  13.506  0.4411 -0.2690 -0.5205
16567TIP3    H171192   5.490   3.793  13.449  1.4895  0.9420 -2.4041
16567TIP3    H271193   5.575   3.854  13.559 -0.1711 -1.1161  0.1594
16568TIP3   OH271194   2.620   3.440   4.455 -0.2782 -0.4568  0.2215
16568TIP3    H171195   2.547   3.490   4.419 -0.9581 -0.6635  1.2647
16568TIP3    H271196   2.664   3.403   4.379  0.9326  2.5958 -0.7321
16569TIP3   OH271197   5.994   4.206   5.824 -0.3599 -0.4544  0.7601
16569TIP3    H171198   5.910   4.250   5.838  0.7284  2.1104 -0.0891
16569TIP3    H271199   6.017   4.226   5.733  1.3373 -0.7371  1.0823
16570TIP3   OH271200   1.030   3.705  11.662  1.0748 -0.5769  0.2096
16570TIP3    H171201   0.947   3.666  11.690  0.1204  1.0915 -0.1865
16570TIP3    H271202   1.089   3.689  11.735  0.5831 -2.2540  0.2907
16571TIP3   OH271203   5.262   0.786  15.786  0.0784 -0.4179 -0.4504
16571TIP3    H171204   5.310   0.833  15.855  0.8424 -0.9926 -0.5819
16571TIP3    H271205   5.177   0.768  15.825 -0.2427  1.0605 -0.3896
16572TIP3   OH271206   4.196   5.780   3.238  0.3486  0.5064 -0.1883
16572TIP3    H171207   4.238   5.699   3.269  3.0808  1.8771  0.0068
16572TIP3    H271208   4.225   5.790   3.148 -1.5875  0.3259 -0.8811
16573TIP3   OH271209   3.496   1.253   1.563  0.1552 -0.4233  0.1295
16573TIP3    H171210   3.468   1.260   1.654  0.7844 -1.7204  0.4593
16573TIP3    H271211   3.456   1.327   1.519 -2.1589 -1.1005  0.9540
16574TIP3   OH271212   5.389   4.314  16.780  0.1831 -0.3861  0.5025
16574TIP3    H171213   5.335   4.296  16.857 -0.4543  0.8189  0.3573
16574TIP3    H271214   5.472   4.345  16.816  0.2207 -0.7038  0.7012
16575TIP3   OH271215   0.077   4.842  12.855  0.5777 -0.8261  0.4177
16575TIP3    H171216   0.148   4.843  12.919  1.4089 -0.7273 -0.4814
16575TIP3    H271217   0.121   4.835  12.770 -0.5284 -1.8466 -0.1077
16576TIP3   OH271218   6.171   0.758  12.692  0.0897 -0.3044 -0.6661
16576TIP3    H171219   6.139   0.848  12.686  0.6566 -0.1240 -1.0094
16576TIP3    H271220   6.197   0.747  12.783  1.4119  0.3579 -0.9505
16577TIP3   OH271221   0.994   0.424  15.138  0.6341 -0.0642 -0.2984
16577TIP3    H171222   0.920   0.394  15.085  0.6020  0.0369 -0.3106
16577TIP3    H271223   0.983   0.519  15.143  0.9115 -0.0206 -0.5181
16578TIP3   OH271224   0.923   2.345  15.329  0.2804 -0.1081  1.0172
16578TIP3    H171225   0.837   2.379  15.356 -0.7911 -1.0327 -1.0566
16578TIP3    H271226   0.972   2.423  15.301  0.1154  0.4121  2.1217
16579TIP3   OH271227   2.836   3.021  17.134  0.0734 -0.8411  0.1689
16579TIP3    H171228   2.766   3.041  17.196  0.0021 -1.4758  0.3015
16579TIP3    H271229   2.916   3.023  17.187  0.0507 -1.0359  0.2127
16580TIP3   OH271230   3.752   2.924  14.701 -0.4319 -0.1298 -0.0621
16580TIP3    H171231   3.711   2.929  14.615 -0.7296 -0.4423  0.0587
16580TIP3    H271232   3.834   2.877  14.687 -1.5979 -2.3712  0.2104
16581TIP3   OH271233   0.615   2.988   1.541  0.1164 -0.0372 -0.1697
16581TIP3    H171234   0.536   2.957   1.584  0.4161  0.3285  0.6589
16581TIP3    H271235   0.664   3.034   1.609  1.3570 -0.8109 -0.4916
16582TIP3   OH271236   0.069   1.999   3.908  0.0018 -0.0460 -0.1672
16582TIP3    H171237   0.139   1.984   3.844 -0.5430 -0.1308 -0.7582
16582TIP3    H271238   0.090   2.084   3.947 -0.1535  0.4568 -1.1375
16583TIP3   OH271239   2.300   3.847   0.073  0.8172  0.0731  0.0479
16583TIP3    H171240   2.369   3.802   0.024  0.7507 -1.0463  0.9515
16583TIP3    H271241   2.222   3.794   0.060  0.3236  0.8334 -0.2038
16584TIP3   OH271242   4.328   1.686  11.601 -0.5314 -0.0286 -0.3801
16584TIP3    H171243   4.280   1.632  11.664  0.2772 -0.4368 -0.0871
16584TIP3    H271244   4.419   1.684  11.633 -0.1902  0.1358 -1.3007
16585TIP3   OH271245   5.059   4.372  11.256 -0.1050 -0.2019  0.4901
16585TIP3    H171246   5.108   4.418  11.188  0.1106  0.7563  1.2651
16585TIP3    H271247   5.007   4.440  11.299  1.1988 -0.3842  2.5165
16586TIP3   OH271248   1.899   0.133  16.139 -0.0415  0.1237 -0.1744
16586TIP3    H171249   1.856   0.061  16.185  0.7411 -0.2679 -0.0504
16586TIP3    H271250   1.979   0.095  16.104  0.7527  1.1069  0.5193
16587TIP3   OH271251   5.869   2.172   2.817 -0.5111 -0.0807 -0.4637
16587TIP3    H171252   5.892   2.111   2.887  1.1170 -0.3886 -1.2230
16587TIP3    H271253   5.812   2.121   2.759 -1.1548 -0.0913  0.1586
16588TIP3   OH271254   2.240   2.911   0.070 -0.4150 -0.8285 -0.3693
16588TIP3    H171255   2.164   2.897   0.126 -0.1378 -1.9548 -0.2454
16588TIP3    H271256   2.204   2.947  -0.011 -1.1146 -1.5459 -0.3930
16589TIP3   OH271257   6.045   2.752  13.670 -0.3423  0.6993 -0.1107
16589TIP3    H171258   6.088   2.667  13.666 -1.4747  0.0303  1.3001
16589TIP3    H271259   6.032   2.776  13.578  0.2037 -0.5284 -0.5301
16590TIP3   OH271260   4.673   0.603  11.191 -0.0331  0.4010 -0.8706
16590TIP3    H171261   4.682   0.697  11.175  0.4458  0.5207  0.0685
16590TIP3    H271262   4.676   0.564  11.103  2.4451  1.0425 -1.1466
16591TIP3   OH271263   2.220   5.177  16.306  0.1224  0.4134 -0.1303
16591TIP3    H171264   2.263   5.150  16.387 -0.6581 -1.4064 -0.2832
16591TIP3    H271265   2.287   5.228  16.259  0.6760  1.2332  1.4957
16592TIP3   OH271266   4.060   5.095  13.306 -0.1518 -0.0068 -0.2195
16592TIP3    H171267   3.985   5.040  13.328  0.1170 -0.5706 -0.6882
16592TIP3    H271268   4.055   5.169  13.367 -0.2970 -0.7373  0.6729
16593TIP3   OH271269   1.829   5.656  14.942  0.0616  0.0433 -0.5113
16593TIP3    H171270   1.916   5.691  14.922  0.4668 -0.9242 -0.4939
16593TIP3    H271271   1.798   5.711  15.015  0.2340  1.0255 -1.1509
16594TIP3   OH271272   4.393   2.540   0.099 -0.2178  0.1769  0.7000
16594TIP3    H171273   4.320   2.544   0.161 -0.9130  0.5756 -0.1301
16594TIP3    H271274   4.466   2.579   0.146 -0.5194 -0.2853  1.5683
16595TIP3   OH271275   3.266   4.132   0.783 -0.4337  0.0089 -0.3814
16595TIP3    H171276   3.310   4.187   0.718 -0.9738 -1.0700 -1.7152
16595TIP3    H271277   3.274   4.181   0.865  1.0110  1.0237 -1.0757
16596TIP3   OH271278   0.456   0.759  10.722 -0.0696  0.2960  0.1912
16596TIP3    H171279   0.530   0.819  10.718  0.1492  0.0804  0.8953
16596TIP3    H271280   0.378   0.815  10.724  0.1129  0.5413  0.3649
16597TIP3   OH271281   4.270   4.427  15.332 -0.4986 -0.1649  0.4339
16597TIP3    H171282   4.275   4.460  15.422 -1.6180  0.7441  0.1929
16597TIP3    H271283   4.257   4.505  15.279 -0.9660 -0.7944 -0.3988
16598TIP3   OH271284   0.947   6.788   4.852  0.5951  0.4504 -0.1422
16598TIP3    H171285   0.927   6.839   4.773 -0.9128  2.0621  1.1978
16598TIP3    H271286   0.863   6.775   4.895  1.1494 -1.8991  0.3905
16599TIP3   OH271287   2.498   6.637   3.605 -0.0112  0.3847 -0.3946
16599TIP3    H171288   2.560   6.680   3.664 -1.4406  0.8855  0.8151
16599TIP3    H271289   2.424   6.697   3.600 -0.8664 -0.6697 -0.9088
16600TIP3   OH271290   3.338   1.528   0.275 -0.5712 -0.4568  0.2241
16600TIP3    H171291   3.348   1.433   0.279 -1.1234 -0.5133  0.3682
16600TIP3    H271292   3.290   1.544   0.194 -0.4469 -0.2938  0.1812
16601TIP3   OH271293   5.377   2.533   0.876 -0.5681 -0.8544  0.5885
16601TIP3    H171294   5.369   2.628   0.877 -0.7825 -0.8661  0.2278
16601TIP3    H271295   5.348   2.505   0.963 -0.6550 -0.6031  0.6417
16602TIP3   OH271296   5.749   3.445  13.526  0.0722  0.4086 -0.4432
16602TIP3    H171297   5.745   3.350  13.513 -0.0676  0.0115  1.9047
16602TIP3    H271298   5.834   3.459  13.567 -0.8922  0.8779  1.5544
16603TIP3   OH271299   5.606   2.773   2.988 -0.5861 -0.4882 -0.6466
16603TIP3    H171300   5.687   2.780   3.037  0.3109  0.0797 -2.1439
16603TIP3    H271301   5.544   2.734   3.050 -0.1077  2.0145  1.5695
16604TIP3   OH271302   0.612   3.458  15.032 -0.2229  0.0156  0.1593
16604TIP3    H171303   0.526   3.420  15.014  0.0340 -0.5133  0.0045
16604TIP3    H271304   0.615   3.468  15.127 -0.9063  1.1505  0.0713
16605TIP3   OH271305   0.085   4.990  11.622 -0.2453 -0.4876  0.0048
16605TIP3    H171306   0.051   4.986  11.532  0.2984 -0.4341 -0.2045
16605TIP3    H271307   0.143   5.066  11.623  0.0983 -0.7494  0.2799
16606TIP3   OH271308   5.473   4.582   5.535  0.6463  0.1297  0.1848
16606TIP3    H171309   5.515   4.661   5.569 -0.4019  1.0395 -0.5734
16606TIP3    H271310   5.478   4.519   5.607 -0.5197  1.6236  1.6492
16607TIP3   OH271311   3.458   1.733   0.418 -0.3857 -1.0868 -0.3730
16607TIP3    H171312   3.403   1.727   0.496  1.5370 -3.9608  0.9477
16607TIP3    H271313   3.423   1.665   0.360  0.6886 -1.7722 -0.2366
16608TIP3   OH271314   2.231   0.608  11.162  0.2647  0.0189 -0.0888
16608TIP3    H171315   2.267   0.606  11.250 -2.2472  2.8161  1.1859
16608TIP3    H271316   2.153   0.551  11.166  1.4683 -1.8393 -1.3222
16609TIP3   OH271317   4.667   4.923   6.001 -0.1084 -0.1750 -0.3239
16609TIP3    H171318   4.635   4.994   6.057  0.9999  0.6009 -0.6338
16609TIP3    H271319   4.697   4.856   6.061  1.1002  0.6658  0.0463
16610TIP3   OH271320   2.548   1.006   4.083 -0.4497  0.1877  0.2312
16610TIP3    H171321   2.574   0.951   4.009 -2.1837 -1.8195  1.0150
16610TIP3    H271322   2.627   1.055   4.105  1.2417 -2.0145 -0.5119
16611TIP3   OH271323   4.481   0.668   1.583  0.0299 -0.5609 -0.2115
16611TIP3    H171324   4.544   0.610   1.625 -0.7489 -1.2915 -0.0065
16611TIP3    H271325   4.477   0.744   1.640 -0.9127 -1.4828  1.0157
16612TIP3   OH271326   2.432   4.348  13.489  0.5109  0.3142  0.2925
16612TIP3    H171327   2.341   4.359  13.515  1.0073  0.5323  2.0372
16612TIP3    H271328   2.481   4.352  13.570  2.0455 -0.3360 -0.5572
16613TIP3   OH271329   1.136   4.159  16.646 -0.0378  0.4187 -0.1369
16613TIP3    H171330   1.150   4.254  16.641  0.0333  0.4372  0.4200
16613TIP3    H271331   1.090   4.145  16.729  1.8370 -0.2370  0.8554
16614TIP3   OH271332   0.232   6.157  11.970 -0.2361 -0.1442  0.2749
16614TIP3    H171333   0.210   6.215  11.897 -0.0352  0.6903  0.8559
16614TIP3    H271334   0.148   6.118  11.995 -0.6529  1.0597  0.8336
16615TIP3   OH271335   4.891   4.734   3.221  0.2900  0.8707  0.2583
16615TIP3    H171336   4.942   4.741   3.301  0.4682 -0.6685  0.3111
16615TIP3    H271337   4.944   4.678   3.164 -0.1431  1.3975 -0.6832
16616TIP3   OH271338   5.549   4.753  10.382  0.0016  0.0093  0.1014
16616TIP3    H171339   5.471   4.702  10.401 -0.9552  0.9553 -1.0726
16616TIP3    H271340   5.613   4.689  10.350 -1.7191 -0.3606 -2.9373
16617TIP3   OH271341   0.890   6.067   4.045  0.0818 -0.0163  0.0658
16617TIP3    H171342   0.822   6.000   4.059 -0.2200  0.4875  1.0591
16617TIP3    H271343   0.854   6.147   4.083  0.1984  0.8868 -1.6204
16618TIP3   OH271344   4.557   3.211   0.041 -0.1307 -0.2781  0.0950
16618TIP3    H171345   4.506   3.278  -0.004  0.5029  1.4491  1.7924
16618TIP3    H271346   4.643   3.213  -0.003  0.4637  1.3455  1.2423
16619TIP3   OH271347   0.429   3.514  12.643  0.1620 -0.4490  0.5704
16619TIP3    H171348   0.518   3.543  12.663 -0.9405  2.0951  2.4170
16619TIP3    H271349   0.420   3.527  12.548  1.2400  1.0147  0.6341
16620TIP3   OH271350   3.407   2.519   0.009  0.0679 -0.4225 -0.1870
16620TIP3    H171351   3.435   2.550   0.095 -1.3352  0.1246  0.1026
16620TIP3    H271352   3.408   2.423   0.017 -1.2311 -0.3835  0.8836
16621TIP3   OH271353   2.307   2.178   6.545 -0.1291  0.6821 -0.4999
16621TIP3    H171354   2.231   2.121   6.554 -0.0998  0.3446 -2.1187
16621TIP3    H271355   2.371   2.142   6.606 -0.6867 -0.0193 -0.3065
16622TIP3   OH271356   4.959   2.156  16.279 -0.0377  0.3897 -0.7754
16622TIP3    H171357   4.942   2.170  16.186 -0.3915  1.8488 -0.5205
16622TIP3    H271358   5.053   2.172  16.289 -0.0803  0.6672 -0.8144
16623TIP3   OH271359   3.918   2.990  12.984  0.3918  0.1434 -0.1010
16623TIP3    H171360   3.824   3.011  12.984 -0.0746 -1.1295 -3.6285
16623TIP3    H271361   3.922   2.900  13.017  0.0960 -0.3339 -1.2833
16624TIP3   OH271362   5.635   5.741  10.669 -0.6131 -0.0440  0.1839
16624TIP3    H171363   5.692   5.792  10.611 -1.4738  0.6094 -0.1132
16624TIP3    H271364   5.556   5.794  10.677 -1.5424 -1.3365 -0.1330
16625TIP3   OH271365   4.153   6.048  15.025 -0.4753  0.4517  0.1085
16625TIP3    H171366   4.096   6.062  14.950  1.2701  0.2971 -1.3095
16625TIP3    H271367   4.159   5.953  15.034  0.2286  0.4511 -0.3028
16626TIP3   OH271368   3.576   5.384   6.002  0.2282  0.5319  0.2345
16626TIP3    H171369   3.516   5.436   5.949  0.1787  0.7391  0.4908
16626TIP3    H271370   3.545   5.396   6.092  1.7298  2.1543  0.6112
16627TIP3   OH271371   4.523   5.074   3.379 -0.2472  0.2879  0.0728
16627TIP3    H171372   4.566   5.111   3.302 -2.5990 -2.4994 -2.8943
16627TIP3    H271373   4.566   4.989   3.391  0.7879  1.1048  2.6089
16628TIP3   OH271374   5.021   4.587   0.128  0.3634  0.3154  0.4264
16628TIP3    H171375   5.096   4.536   0.159  1.1024  0.6849 -0.6799
16628TIP3    H271376   5.001   4.646   0.201  1.6288  0.7093  0.4922
16629TIP3   OH271377   0.181   0.685  12.178 -0.2098  0.2133  0.0919
16629TIP3    H171378   0.154   0.642  12.097 -2.5728  0.1619  0.8418
16629TIP3    H271379   0.175   0.779  12.159 -0.2489  0.2013  0.0445
16630TIP3   OH271380   4.020   2.954  14.985 -0.4422  0.8633 -0.2377
16630TIP3    H171381   3.967   2.930  15.062 -0.3692  0.4654 -0.3088
16630TIP3    H271382   4.096   2.897  14.990 -1.8713 -1.4275 -2.2635
16631TIP3   OH271383   2.605   6.292   1.162  0.3731  0.3310 -0.3969
16631TIP3    H171384   2.594   6.214   1.108  0.7271 -0.6301  0.8604
16631TIP3    H271385   2.625   6.362   1.100  2.2639 -1.0160 -1.4259
16632TIP3   OH271386   3.797   5.498  15.782 -0.8480 -0.2028 -0.0649
16632TIP3    H171387   3.804   5.593  15.783  1.1661 -0.3025  0.6744
16632TIP3    H271388   3.803   5.473  15.874 -1.2990 -1.0513 -0.2590
16633TIP3   OH271389   1.815   1.660   6.842 -0.4590 -0.3668  0.1768
16633TIP3    H171390   1.744   1.711   6.881  1.3026  1.7938  0.7126
16633TIP3    H271391   1.806   1.675   6.747 -0.3690  0.3794  0.2837
16634TIP3   OH271392   6.508   3.271  14.986  0.2841  0.4422  0.1404
16634TIP3    H171393   6.516   3.193  15.041  1.7287  0.3679 -0.1272
16634TIP3    H271394   6.493   3.236  14.898 -1.0169  0.5347  0.3117
16635TIP3   OH271395   0.881   6.156  14.776 -0.5857  0.6422 -0.2291
16635TIP3    H171396   0.950   6.159  14.709 -2.7567 -1.7740 -2.8681
16635TIP3    H271397   0.799   6.161  14.726 -2.3660 -1.3581  2.2139
16636TIP3   OH271398   0.898   1.051  16.716  0.1571 -0.4086  0.0990
16636TIP3    H171399   0.870   0.966  16.682 -3.8535  0.5212  0.5905
16636TIP3    H271400   0.852   1.060  16.799  1.4500  1.7825  0.6604
16637TIP3   OH271401   4.322   5.051  12.398  0.0185 -0.3038  0.4518
16637TIP3    H171402   4.292   5.116  12.461  2.0392  0.4236  0.7086
16637TIP3    H271403   4.346   5.102  12.321  1.0880 -0.7964  0.4513
16638TIP3   OH271404   3.608   6.116   0.844  0.3524  0.3709 -0.5152
16638TIP3    H171405   3.662   6.050   0.888  0.5033  1.4228  0.9496
16638TIP3    H271406   3.552   6.065   0.785  1.1022 -0.9743 -0.1253
16639TIP3   OH271407   3.467   3.751   2.172  0.5080 -0.2552 -0.5180
16639TIP3    H171408   3.494   3.832   2.216  2.1449 -0.6541 -0.6997
16639TIP3    H271409   3.460   3.687   2.242  0.8565 -0.3449 -0.5629
16640TIP3   OH271410   6.824   6.640  11.571  0.9321  0.4732 -0.2531
16640TIP3    H171411   6.913   6.634  11.536  1.9335  0.5274  2.1016
16640TIP3    H271412   6.819   6.727  11.610  0.7494 -0.4037  1.8100
16641TIP3   OH271413   4.179   3.543  10.464  0.1957  0.4857  0.3402
16641TIP3    H171414   4.216   3.465  10.505 -1.3148 -0.9238 -0.8410
16641TIP3    H271415   4.202   3.615  10.523 -0.6665 -1.2249  2.9179
16642TIP3   OH271416   1.385   2.260  12.361  0.8586  0.4947 -0.3865
16642TIP3    H171417   1.293   2.245  12.338  0.5319 -0.0787  1.1120
16642TIP3    H271418   1.391   2.354  12.376  0.7898  0.6913 -1.5478
16643TIP3   OH271419   5.820   3.604  13.337  0.3456 -0.6821  0.3564
16643TIP3    H171420   5.800   3.544  13.408 -0.2227  0.1922  0.9575
16643TIP3    H271421   5.882   3.557  13.281 -0.0044 -1.7669  0.8685
16644TIP3   OH271422   3.542   5.155  12.935  0.8545 -0.4379 -0.1402
16644TIP3    H171423   3.509   5.242  12.959 -1.2138 -0.9776 -0.8155
16644TIP3    H271424   3.635   5.169  12.919  0.3226  2.0137 -1.7037
16645TIP3   OH271425   6.125   4.002  13.363 -0.5721 -0.2727  0.0140
16645TIP3    H171426   6.183   3.988  13.438 -1.1074  0.2784  0.5487
16645TIP3    H271427   6.037   4.000  13.400 -0.8613 -0.2911 -0.6539
16646TIP3   OH271428   1.872   6.167   0.506  0.3468  0.0572  0.0240
16646TIP3    H171429   1.933   6.227   0.462  1.1194 -1.4174 -0.9900
16646TIP3    H271430   1.816   6.134   0.435  2.1452 -3.0000 -0.1550
16647TIP3   OH271431   1.570   3.262   2.154 -0.1637  0.2144  0.1197
16647TIP3    H171432   1.644   3.202   2.146 -2.0423 -2.2814  0.5262
16647TIP3    H271433   1.494   3.206   2.169 -2.1383  2.6811  0.0346
16648TIP3   OH271434   2.268   1.102  16.488  0.0394 -0.6346  0.0075
16648TIP3    H171435   2.263   1.193  16.459  0.7672 -0.5415  0.1464
16648TIP3    H271436   2.187   1.087  16.536  1.3317  1.0012  2.9496
16649TIP3   OH271437   4.748   1.060   1.064  0.1779 -0.7478  0.4067
16649TIP3    H171438   4.724   1.153   1.067 -0.0535 -0.6806 -1.8554
16649TIP3    H271439   4.666   1.014   1.082  0.1989 -0.5297  1.0906
16650TIP3   OH271440   0.984   5.004   1.777  0.0819  0.2503  0.7078
16650TIP3    H171441   0.959   4.916   1.750  1.0352  1.0532 -3.4028
16650TIP3    H271442   1.075   4.997   1.804 -0.3825 -0.2623  2.2656
16651TIP3   OH271443   4.471   6.185  14.150  0.1576  0.2513 -0.1211
16651TIP3    H171444   4.390   6.145  14.184  0.1278 -0.2922 -0.8048
16651TIP3    H271445   4.511   6.226  14.226 -1.3458  1.5529  0.0187
16652TIP3   OH271446   2.893   6.705   4.592 -0.1887 -0.9321  0.0892
16652TIP3    H171447   2.958   6.718   4.661  0.5166 -1.1629 -0.5328
16652TIP3    H271448   2.943   6.686   4.513 -0.8962  1.0766 -0.9290
16653TIP3   OH271449   6.829   1.116   3.771 -0.1120  0.1838 -0.0504
16653TIP3    H171450   6.795   1.205   3.767  2.1831  1.1866  1.0831
16653TIP3    H271451   6.854   1.096   3.681 -2.5990 -0.2374 -0.7414
16654TIP3   OH271452   1.450   6.831   1.188 -0.2984  0.1974  0.1324
16654TIP3    H171453   1.483   6.767   1.125 -0.3659 -1.1276  1.3754
16654TIP3    H271454   1.465   6.916   1.147  0.9879 -0.5537 -1.0355
16655TIP3   OH271455   6.147   2.865   3.778 -0.2079 -0.1130  0.3554
16655TIP3    H171456   6.233   2.899   3.755 -1.2022  3.2417  1.0510
16655TIP3    H271457   6.107   2.841   3.694  0.7598  0.0016 -0.1464
16656TIP3   OH271458   4.343   3.131   5.324  0.1020  0.2516  0.3182
16656TIP3    H171459   4.299   3.196   5.269  2.1915  1.6732  0.2088
16656TIP3    H271460   4.371   3.063   5.264 -1.3951 -0.3945  0.3117
16657TIP3   OH271461   6.599   2.485   5.759 -0.2095 -0.2349 -0.1455
16657TIP3    H171462   6.542   2.458   5.831 -1.6257  2.2585 -0.2139
16657TIP3    H271463   6.658   2.549   5.798  0.6045 -0.6312 -0.7140
16658TIP3   OH271464   0.917   4.413   6.108  0.2805  0.3460 -0.1648
16658TIP3    H171465   1.000   4.404   6.153 -0.7810  0.0278  1.8260
16658TIP3    H271466   0.925   4.358   6.030  1.4022 -0.8900  0.7839
16659TIP3   OH271467   0.879   3.726   5.107  0.7158 -0.8735  0.6501
16659TIP3    H171468   0.902   3.804   5.057  0.2659 -1.2921 -0.2558
16659TIP3    H271469   0.952   3.666   5.093 -0.0454 -1.5259 -0.7260
16660TIP3   OH271470   5.672   2.981   1.999  0.5411 -0.3968 -0.0663
16660TIP3    H171471   5.742   3.005   1.938  0.3421 -1.4790 -0.7618
16660TIP3    H271472   5.678   2.886   2.006 -0.2283 -0.4059  0.6464
16661TIP3   OH271473   2.884   6.565  12.423  0.2671  0.3333 -0.4050
16661TIP3    H171474   2.951   6.604  12.479 -3.0564  1.3346  3.3688
16661TIP3    H271475   2.863   6.482  12.465 -0.4360 -0.2351 -1.8294
16662TIP3   OH271476   0.593   6.264   3.194 -0.2415  0.4182  0.0714
16662TIP3    H171477   0.677   6.289   3.231 -0.2874 -0.6453  0.9487
16662TIP3    H271478   0.543   6.231   3.268 -0.5804 -1.1279 -0.8084
16663TIP3   OH271479   6.474   3.615  13.442 -0.2513  0.7478 -0.5036
16663TIP3    H171480   6.563   3.580  13.434 -0.9496 -0.7270 -2.6652
16663TIP3    H271481   6.451   3.603  13.534  1.5025  0.4687 -0.0692
16664TIP3   OH271482   5.277   5.525   4.393  0.4297 -0.1723  0.2899
16664TIP3    H171483   5.202   5.585   4.402  0.4830 -0.0351 -0.1837
16664TIP3    H271484   5.251   5.447   4.442 -0.4467 -0.5255 -0.7152
16665TIP3   OH271485   2.372   3.477  11.655  0.1367 -0.0466  0.4047
16665TIP3    H171486   2.345   3.500  11.744 -0.0222 -0.1625  0.3865
16665TIP3    H271487   2.311   3.409  11.627 -0.6561  0.9184 -0.2868
16666TIP3   OH271488   5.446   6.302  11.448 -0.0040  0.3218 -0.4996
16666TIP3    H171489   5.515   6.302  11.383 -0.0198 -3.7668 -0.7959
16666TIP3    H271490   5.491   6.313  11.532  1.0396 -1.8327 -0.7241
16667TIP3   OH271491   2.442   0.628   5.274 -0.2988 -0.2599 -0.0352
16667TIP3    H171492   2.466   0.682   5.199  0.8503 -0.9821 -0.2078
16667TIP3    H271493   2.349   0.647   5.288 -0.2513  0.7285 -0.9271
16668TIP3   OH271494   3.624   4.674   3.297 -0.0524  0.1183  0.6629
16668TIP3    H171495   3.555   4.629   3.248  0.7659  2.1009 -2.5956
16668TIP3    H271496   3.703   4.624   3.279  0.0154 -0.0381  1.3461
16669TIP3   OH271497   1.428   1.251  15.423 -0.0745 -0.0121  0.2154
16669TIP3    H171498   1.442   1.199  15.502  1.0872  1.6604  1.1742
16669TIP3    H271499   1.445   1.341  15.450 -1.0629  0.7855 -1.6118
16670TIP3   OH271500   4.864   0.262   3.088 -0.3977  0.8676  0.0274
16670TIP3    H171501   4.908   0.268   3.173 -0.4618  2.9114 -0.0248
16670TIP3    H271502   4.799   0.333   3.091 -1.4683 -0.0247 -1.1470
16671TIP3   OH271503   6.526   0.698  11.574  0.1509  0.5745 -0.1432
16671TIP3    H171504   6.433   0.702  11.595  0.2160  0.2153  0.2302
16671TIP3    H271505   6.531   0.634  11.502  0.2561 -0.4493  0.7559
16672TIP3   OH271506   4.889   1.831  15.187  0.2328  0.0116  0.5402
16672TIP3    H171507   4.835   1.866  15.259  0.9058 -0.7964  1.4625
16672TIP3    H271508   4.928   1.909  15.148  0.3288  0.4387  1.4442
16673TIP3   OH271509   4.677   2.522   5.390 -0.3757 -0.0117 -0.0377
16673TIP3    H171510   4.737   2.562   5.327 -0.5938  0.9330  0.3346
16673TIP3    H271511   4.612   2.590   5.407 -0.1558 -0.1482  1.4209
16674TIP3   OH271512   3.346   4.092   2.972 -0.1200  0.1670 -0.0255
16674TIP3    H171513   3.280   4.144   2.928  1.6153  2.5438 -0.0267
16674TIP3    H271514   3.320   4.001   2.957 -2.8151  0.9900 -0.7789
16675TIP3   OH271515   3.417   4.677  15.470  0.6806 -0.4100  0.2306
16675TIP3    H171516   3.448   4.762  15.442 -0.4819 -0.1493 -0.3578
16675TIP3    H271517   3.453   4.665  15.558  1.3565  0.4086  0.0712
16676TIP3   OH271518   2.361   5.034   6.725  0.0476  0.4740 -0.1944
16676TIP3    H171519   2.435   5.056   6.781  0.4247  1.4945 -1.0673
16676TIP3    H271520   2.400   5.012   6.640 -0.6388  1.1329 -0.7020
16677TIP3   OH271521   1.416   3.866  15.596 -0.0455 -0.2706  0.0006
16677TIP3    H171522   1.397   3.801  15.664 -1.3861 -1.9160 -1.8478
16677TIP3    H271523   1.375   3.946  15.628 -3.9359 -1.8561 -0.3232
16678TIP3   OH271524   6.621   3.245   1.104  0.2921  0.1371  0.1559
16678TIP3    H171525   6.623   3.152   1.127  0.0195  0.1970  0.4200
16678TIP3    H271526   6.532   3.273   1.123  0.5356  0.5957  0.6429
16679TIP3   OH271527   3.869   0.541   2.368 -0.1304  0.0263  0.5826
16679TIP3    H171528   3.833   0.466   2.321 -0.0514  0.3498 -0.0200
16679TIP3    H271529   3.947   0.508   2.411  1.2225  0.2245 -1.5389
16680TIP3   OH271530   6.469   1.190  17.024  0.3324  0.1654  0.1251
16680TIP3    H171531   6.514   1.275  17.017 -0.8366  0.7875 -0.1435
16680TIP3    H271532   6.456   1.178  17.118  1.3838 -0.2057  0.2325
16681TIP3   OH271533   1.768   1.976  15.656  0.4453  0.4971  0.4411
16681TIP3    H171534   1.820   1.950  15.733 -1.0225 -2.1937  0.6488
16681TIP3    H271535   1.833   1.989  15.587  1.5869 -0.2403  1.3375
16682TIP3   OH271536   0.281   1.661  13.558 -0.3001 -0.2326  0.2590
16682TIP3    H171537   0.279   1.755  13.574 -2.5943 -0.3685  1.2635
16682TIP3    H271538   0.343   1.626  13.621  0.2302  0.5449  0.1793
16683TIP3   OH271539   0.012   3.504   4.724 -0.3148  0.4448  0.1059
16683TIP3    H171540   0.026   3.410   4.736  0.5229  0.8811  3.5586
16683TIP3    H271541  -0.078   3.520   4.752 -0.4076  0.7153 -0.3267
16684TIP3   OH271542   6.429   6.348   5.900 -0.5657  0.4924  0.2826
16684TIP3    H171543   6.473   6.431   5.878 -0.2630  0.2127 -0.1958
16684TIP3    H271544   6.497   6.282   5.890 -1.0737  0.0562 -0.4072
16685TIP3   OH271545   4.225   0.445   1.935 -0.0329 -0.2363  0.0529
16685TIP3    H171546   4.248   0.533   1.907 -0.1819 -0.1393  0.2332
16685TIP3    H271547   4.130   0.448   1.948 -0.0493 -0.4443 -0.0175
16686TIP3   OH271548   0.752   3.154  16.332  0.2994  0.3641 -0.0347
16686TIP3    H171549   0.683   3.151  16.398  0.2579 -1.7779 -0.1058
16686TIP3    H271550   0.825   3.107  16.371  0.5070 -0.3600 -1.2424
16687TIP3   OH271551   2.492   5.073   4.551 -0.3369 -0.3570 -0.0051
16687TIP3    H171552   2.400   5.057   4.530  0.1468  0.6859 -3.7008
16687TIP3    H271553   2.540   5.003   4.505  0.8083  1.0889 -1.1319
16688TIP3   OH271554   5.868   3.291  16.251 -0.4345 -0.2440 -0.2780
16688TIP3    H171555   5.793   3.234  16.269 -0.4622  0.5982  2.6764
16688TIP3    H271556   5.910   3.303  16.335  1.2302  1.8497 -1.3129
16689TIP3   OH271557   5.244   3.629   3.777 -0.6332  0.3855  0.3966
16689TIP3    H171558   5.188   3.567   3.823 -0.4671  0.6648  0.9830
16689TIP3    H271559   5.245   3.707   3.832 -0.5029  0.7599 -0.1250
16690TIP3   OH271560   0.128   1.573   0.016  0.3898 -0.2653  0.2265
16690TIP3    H171561   0.101   1.523   0.093  0.0421 -1.2302 -0.4934
16690TIP3    H271562   0.054   1.567  -0.044  0.9862 -0.2818 -0.5258
16691TIP3   OH271563   6.018   2.683  11.184 -0.2765  0.3506 -0.1283
16691TIP3    H171564   6.097   2.658  11.137 -0.5831 -1.2855  0.1427
16691TIP3    H271565   6.042   2.761  11.233  1.2878 -0.3284  0.2319
16692TIP3   OH271566   2.650   1.172   3.127 -0.1698 -0.2867  0.4013
16692TIP3    H171567   2.616   1.158   3.215 -0.4231  1.1451  0.5600
16692TIP3    H271568   2.728   1.226   3.140  1.8954 -2.9938 -0.0045
16693TIP3   OH271569   0.165   4.497  16.335 -0.2983 -0.9496  0.4548
16693TIP3    H171570   0.148   4.404  16.317 -0.8528 -0.5660 -1.2227
16693TIP3    H271571   0.256   4.510  16.309 -0.8547 -0.5838 -1.4974
16694TIP3   OH271572   0.529   4.380   1.800 -0.0066 -0.1163  0.0108
16694TIP3    H171573   0.469   4.438   1.753 -1.7603 -1.6640  0.1993
16694TIP3    H271574   0.593   4.354   1.734 -0.1465  0.7761 -0.4914
16695TIP3   OH271575   4.747   0.689   0.533  0.1012 -0.2186 -0.0198
16695TIP3    H171576   4.708   0.766   0.493  1.6777 -0.0588 -1.3389
16695TIP3    H271577   4.833   0.719   0.565 -0.3250 -0.8177  1.7806
16696TIP3   OH271578   5.939   6.470   0.618  0.0656 -0.0432 -0.1443
16696TIP3    H171579   5.861   6.457   0.564 -0.3476 -1.7047  0.7883
16696TIP3    H271580   5.920   6.549   0.669  0.4843  1.5880 -2.3756
16697TIP3   OH271581   5.668   6.339   5.951  0.9524  0.1478  0.1484
16697TIP3    H171582   5.615   6.260   5.963 -0.8054  1.6995  4.0666
16697TIP3    H271583   5.608   6.403   5.913  1.8278  0.2438 -1.1607
16698TIP3   OH271584   1.976   1.880  13.716  0.0400 -0.2654 -0.3177
16698TIP3    H171585   2.067   1.850  13.721  0.6610  1.7252  1.1154
16698TIP3    H271586   1.979   1.971  13.743 -2.6627 -0.6643  1.6544
16699TIP3   OH271587   3.058   0.246  11.861 -0.0027  0.2378 -0.4278
16699TIP3    H171588   3.057   0.200  11.777  1.9296  1.2933 -1.0801
16699TIP3    H271589   3.014   0.186  11.921  0.0335 -1.2707 -1.8361
16700TIP3   OH271590   1.214   3.598   5.356  0.5569 -0.3314  0.1994
16700TIP3    H171591   1.255   3.678   5.389  0.0191  0.0836 -0.1305
16700TIP3    H271592   1.256   3.528   5.406  0.4220  0.2161  1.1136
16701TIP3   OH271593   3.382   3.225   5.088 -0.4202 -0.2631  0.2658
16701TIP3    H171594   3.469   3.254   5.060  0.1815 -0.2503  2.0193
16701TIP3    H271595   3.335   3.209   5.006  0.9279  0.6003 -0.7323
16702TIP3   OH271596   2.434   4.829  13.897  0.1849 -0.4353  0.4038
16702TIP3    H171597   2.491   4.761  13.934 -0.7499 -0.2752  2.2792
16702TIP3    H271598   2.413   4.797  13.809  0.9637 -1.8422  0.6942
16703TIP3   OH271599   1.192   5.682   4.279  0.1093 -0.4585 -0.8763
16703TIP3    H171600   1.123   5.690   4.344 -2.6028 -2.3211 -3.2712
16703TIP3    H271601   1.175   5.753   4.217  0.0353 -1.2010 -1.7187
16704TIP3   OH271602   1.137   6.646   2.472  0.0009 -0.3155  0.1511
16704TIP3    H171603   1.089   6.697   2.537 -0.0246 -1.4913  1.0933
16704TIP3    H271604   1.070   6.589   2.433  0.0113  0.3899 -0.9522
16705TIP3   OH271605   2.326   1.354   6.172  0.3155 -0.2969 -0.0898
16705TIP3    H171606   2.309   1.446   6.189 -0.1769 -0.3459 -0.3009
16705TIP3    H271607   2.377   1.324   6.247  0.3846  0.1204  0.0280
16706TIP3   OH271608   2.814   3.428  11.612  0.0435  0.0611 -0.4397
16706TIP3    H171609   2.878   3.358  11.599  0.5073  0.7698 -2.0872
16706TIP3    H271610   2.744   3.407  11.550  0.2543  1.1290 -1.0488
16707TIP3   OH271611   6.182   6.160   5.656 -0.0395  0.1075 -0.3190
16707TIP3    H171612   6.179   6.204   5.740 -0.6339  0.9488 -0.7651
16707TIP3    H271613   6.138   6.076   5.671 -0.4981  0.4207  0.1118
16708TIP3   OH271614   4.512   5.175  13.501  0.4729  0.1636 -0.7002
16708TIP3    H171615   4.549   5.089  13.480 -0.2573 -0.9660  2.1403
16708TIP3    H271616   4.521   5.182  13.596 -4.5565  0.6457  0.0101
16709TIP3   OH271617   6.330   5.077   1.269  0.3067  0.0754 -0.5426
16709TIP3    H171618   6.308   5.083   1.362 -0.5965 -1.2006 -0.6558
16709TIP3    H271619   6.292   4.994   1.241 -2.1117  1.7989 -2.7725
16710TIP3   OH271620   0.257   2.577   5.089  0.3836  0.1556 -0.6899
16710TIP3    H171621   0.215   2.644   5.035 -0.7880 -0.8452 -1.0700
16710TIP3    H271622   0.199   2.501   5.082  1.6615 -0.8929 -0.2536
16711TIP3   OH271623   4.970   5.406   0.739  0.1348  0.4556  0.4291
16711TIP3    H171624   4.993   5.314   0.733 -0.2886  0.4036 -0.6409
16711TIP3    H271625   5.027   5.441   0.807  0.4148 -0.5541  0.7282
16712TIP3   OH271626   1.642   1.056   4.381 -0.1451  0.6202 -0.0221
16712TIP3    H171627   1.703   1.038   4.310  1.4516  0.8978  1.2108
16712TIP3    H271628   1.582   0.981   4.381  0.8041 -0.1636 -0.6631
16713TIP3   OH271629   6.133   0.810  15.630  0.7415  0.0014  0.0789
16713TIP3    H171630   6.094   0.877  15.686 -0.4250  0.4731 -1.2089
16713TIP3    H271631   6.069   0.739  15.630 -0.5005  0.9887 -2.4627
16714TIP3   OH271632   1.809   6.782   4.669 -0.0366  0.1638  0.2021
16714TIP3    H171633   1.797   6.687   4.662 -0.6810  0.2109  0.6151
16714TIP3    H271634   1.897   6.797   4.635  1.0707 -0.8697  2.4323
16715TIP3   OH271635   2.851   5.245   4.508 -0.4015  0.3865 -0.3307
16715TIP3    H171636   2.865   5.152   4.525 -0.4330  0.1249 -1.6244
16715TIP3    H271637   2.939   5.282   4.502 -0.1691 -0.3429 -3.6485
16716TIP3   OH271638   5.581   6.319  13.082  0.2892 -0.1037  0.1522
16716TIP3    H171639   5.551   6.323  13.173 -0.5093  1.2023 -0.1472
16716TIP3    H271640   5.535   6.391  13.038  2.3937  0.7757 -0.7614
16717TIP3   OH271641   6.298   2.108   4.880  0.5998 -0.0943 -0.1088
16717TIP3    H171642   6.216   2.144   4.914 -0.0560 -0.0754 -1.6438
16717TIP3    H271643   6.319   2.036   4.941 -0.2818  0.2127  0.5786
16718TIP3   OH271644   6.390   0.402  13.765  0.3277  0.1778 -0.1135
16718TIP3    H171645   6.367   0.491  13.741  0.1631  0.4266  0.8994
16718TIP3    H271646   6.458   0.411  13.832 -0.4210 -0.4119  0.7582
16719TIP3   OH271647   4.626   0.068   0.865  0.0720  0.1497 -0.1107
16719TIP3    H171648   4.721   0.067   0.879  0.0859  1.0395 -0.0452
16719TIP3    H271649   4.600  -0.024   0.867  0.8400 -0.0679  0.5354
16720TIP3   OH271650   4.665   2.085   1.394 -0.6552 -0.2221 -0.1582
16720TIP3    H171651   4.740   2.045   1.349  0.7361  3.0265 -1.0087
16720TIP3    H271652   4.611   2.120   1.323 -3.0836 -2.4296  0.4496
16721TIP3   OH271653   2.856   4.866   2.605  0.2552 -0.1310  0.0959
16721TIP3    H171654   2.811   4.901   2.528 -1.0905 -1.5395  0.1879
16721TIP3    H271655   2.876   4.776   2.581  3.1024  0.4055  0.0806
16722TIP3   OH271656   5.821   3.979  12.004  0.0065  0.2204 -0.1408
16722TIP3    H171657   5.799   4.038  12.076 -1.2119  0.3324 -0.5803
16722TIP3    H271658   5.915   3.992  11.990 -0.0895  1.4852  0.2784
16723TIP3   OH271659   2.047   6.417  15.466  0.2571 -0.7732  0.5842
16723TIP3    H171660   2.076   6.329  15.490 -0.8346 -1.4936 -0.6386
16723TIP3    H271661   1.952   6.413  15.472  0.1302 -0.0493 -0.6706
16724TIP3   OH271662   0.453   3.901  11.809 -0.2539 -0.2310  0.4663
16724TIP3    H171663   0.544   3.871  11.802 -0.6493 -1.4271  0.1821
16724TIP3    H271664   0.431   3.889  11.902 -0.7231 -1.8272  0.1693
16725TIP3   OH271665   2.182   3.285  13.494  0.5405  0.3158  0.5592
16725TIP3    H171666   2.154   3.307  13.405  0.9603  0.2252  0.4030
16725TIP3    H271667   2.248   3.216  13.482 -0.5645 -0.8601  1.0175
16726TIP3   OH271668   3.378   5.756  15.315 -0.5101 -0.0211  0.2087
16726TIP3    H171669   3.396   5.846  15.288  0.6448  0.2910  1.8755
16726TIP3    H271670   3.448   5.736  15.378  1.0054 -3.0888 -2.1981
16727TIP3   OH271671   3.963   3.238   3.127  0.6465 -0.1375  0.1870
16727TIP3    H171672   4.034   3.269   3.072  0.1185  0.4165 -0.1835
16727TIP3    H271673   3.944   3.150   3.094 -0.2448  0.5055 -1.1090
16728TIP3   OH271674   2.044   4.657   3.915 -0.2369  0.0244  0.1566
16728TIP3    H171675   1.998   4.575   3.898 -1.3058  0.5256  0.5164
16728TIP3    H271676   1.977   4.724   3.903  1.0642  1.0463 -2.1787
16729TIP3   OH271677   1.726   0.030   0.277  0.7830  0.0980  0.5151
16729TIP3    H171678   1.770  -0.054   0.263  0.4082 -0.4310  2.2851
16729TIP3    H271679   1.788   0.095   0.244  0.7569 -0.8807 -1.5928
16730TIP3   OH271680   2.534   2.335   2.157  0.3302  0.7312  0.8620
16730TIP3    H171681   2.624   2.365   2.146 -0.1677  2.2123  0.5840
16730TIP3    H271682   2.482   2.415   2.160 -1.4560 -0.0518 -2.9598
16731TIP3   OH271683   4.889   1.145  15.732 -0.0295  0.2908  0.0107
16731TIP3    H171684   4.846   1.074  15.779  1.1592 -1.4957 -1.4637
16731TIP3    H271685   4.885   1.219  15.792  1.3046 -1.7922  2.9185
16732TIP3   OH271686   4.658   2.474   0.452 -0.0123  0.7123  0.4541
16732TIP3    H171687   4.635   2.385   0.428 -0.0832  0.5903  0.9741
16732TIP3    H271688   4.591   2.500   0.515 -0.3095  1.3240 -0.1002
16733TIP3   OH271689   4.304   6.039  15.727 -0.0601 -0.0708  0.0395
16733TIP3    H171690   4.237   6.044  15.796 -1.7993  0.7943 -1.6346
16733TIP3    H271691   4.306   6.127  15.689  1.4520 -0.3209 -0.5152
16734TIP3   OH271692   5.797   1.289  14.655 -0.3403 -0.1376 -0.2970
16734TIP3    H171693   5.833   1.324  14.574 -0.6358 -1.1818 -0.8938
16734TIP3    H271694   5.813   1.195  14.651 -3.3738 -0.7503 -0.7754
16735TIP3   OH271695   1.258   1.864   5.032 -0.0690 -0.6265  0.0324
16735TIP3    H171696   1.270   1.808   4.954  0.2089 -1.3756  0.5964
16735TIP3    H271697   1.222   1.805   5.098 -1.8605  0.3809  0.0040
16736TIP3   OH271698   0.741   2.508  16.967 -0.2451  0.1286 -0.2840
16736TIP3    H171699   0.714   2.540  16.881  0.4693 -0.2760 -0.6657
16736TIP3    H271700   0.833   2.531  16.974 -0.5862  1.2569  0.8952
16737TIP3   OH271701   1.580   5.322   4.576  0.3660  0.3023 -0.4738
16737TIP3    H171702   1.589   5.414   4.551  2.0513 -0.5177 -3.5018
16737TIP3    H271703   1.519   5.286   4.511  1.2279 -1.0482 -0.5811
16738TIP3   OH271704   0.866   2.263   5.322  0.1160  0.0963  0.3424
16738TIP3    H171705   0.928   2.262   5.394 -1.8988 -1.0696  2.2039
16738TIP3    H271706   0.822   2.349   5.329  0.1483  0.1159  0.3042
16739TIP3   OH271707   0.693   5.513   0.680 -0.0058  0.0110 -0.4216
16739TIP3    H171708   0.653   5.439   0.634 -1.5745  1.4016 -1.4406
16739TIP3    H271709   0.619   5.557   0.722  0.5417  2.0844 -1.4757
16740TIP3   OH271710   5.082   3.880   1.138 -0.1265 -0.1576 -0.4575
16740TIP3    H171711   5.121   3.815   1.196  0.9925 -0.1626 -1.1721
16740TIP3    H271712   5.143   3.954   1.140 -1.6005  1.0953  0.6872
16741TIP3   OH271713   5.813   6.769   4.775 -0.2039  0.0787 -0.0850
16741TIP3    H171714   5.889   6.824   4.795 -0.5845  1.5393 -2.2638
16741TIP3    H271715   5.830   6.735   4.688 -1.0427 -1.4578  0.3152
16742TIP3   OH271716   6.741   0.291   4.448 -0.1204 -0.3836  0.4424
16742TIP3    H171717   6.759   0.306   4.541  1.1511  2.9565 -0.1965
16742TIP3    H271718   6.814   0.333   4.403 -0.2037 -2.7347 -2.1365
16743TIP3   OH271719   2.830   6.627   5.357 -0.3975  0.3200  0.4406
16743TIP3    H171720   2.799   6.582   5.278  0.1852 -0.7877  0.8211
16743TIP3    H271721   2.756   6.622   5.418 -0.9603  1.4459 -0.1111
16744TIP3   OH271722   6.709   0.765   4.712  0.1958  0.2807 -0.2342
16744TIP3    H171723   6.750   0.688   4.752  0.1485  0.0467 -0.6255
16744TIP3    H271724   6.669   0.731   4.631 -0.1733  0.6386 -0.2055
16745TIP3   OH271725   2.463   6.375  16.879  0.1492  0.2177  0.0183
16745TIP3    H171726   2.370   6.394  16.888  0.1393 -0.3171  1.2914
16745TIP3    H271727   2.507   6.450  16.920  0.3329  0.9419 -1.4385
16746TIP3   OH271728   5.023   6.151  12.357  0.3562  0.8684 -0.0167
16746TIP3    H171729   4.928   6.157  12.360  0.3545  0.7239  0.3455
16746TIP3    H271730   5.042   6.085  12.290  0.1956  0.7486  0.0561
16747TIP3   OH271731   3.965   0.490  16.689 -0.0944  0.0201 -0.0530
16747TIP3    H171732   3.918   0.501  16.771  1.5946 -0.3782  1.0084
16747TIP3    H271733   3.974   0.395  16.679 -0.0026  0.0762 -0.5374
16748TIP3   OH271734   0.254   0.938  10.780  0.3686  0.4532 -0.3038
16748TIP3    H171735   0.252   0.980  10.694 -0.6082  0.0528 -0.4829
16748TIP3    H271736   0.164   0.914  10.797  0.8625 -1.3706 -0.0882
16749TIP3   OH271737   1.061   6.280  14.545  0.2986 -0.2576 -0.0454
16749TIP3    H171738   1.038   6.239  14.462  0.9207  1.8399 -1.3380
16749TIP3    H271739   1.148   6.245  14.565 -0.1471 -1.3089  0.1206
16750TIP3   OH271740   1.265   2.739   0.326 -0.5235  0.5061 -0.3351
16750TIP3    H171741   1.295   2.650   0.310 -0.8055  0.3176  0.1527
16750TIP3    H271742   1.283   2.754   0.419 -0.1767  1.0785 -0.4871
16751TIP3   OH271743   6.348   5.819   2.899 -0.3832 -0.1695  0.6570
16751TIP3    H171744   6.254   5.816   2.918 -0.4985  1.9465  0.6619
16751TIP3    H271745   6.353   5.849   2.808  0.2561  0.8176  0.9881
16752TIP3   OH271746   4.495   5.993  10.709 -0.3620 -0.7732  0.1330
16752TIP3    H171747   4.488   6.030  10.621 -0.6927  0.6664  0.7370
16752TIP3    H271748   4.590   5.983  10.722 -0.2914 -0.6267 -0.2404
16753TIP3   OH271749   6.716   0.159   5.060 -0.1439 -0.8698 -0.6984
16753TIP3    H171750   6.770   0.084   5.037  0.0541 -0.7598 -0.5933
16753TIP3    H271751   6.770   0.235   5.038  0.5546 -0.7487  1.2885
16754TIP3   OH271752   6.531   3.500  14.151  0.5575  0.4238 -0.0709
16754TIP3    H171753   6.504   3.436  14.217 -0.8673 -1.1841 -2.1205
16754TIP3    H271754   6.560   3.575  14.203  1.7113 -1.5818  2.4328
16755TIP3   OH271755   5.183   4.178  13.162 -0.9866 -0.7643  0.5387
16755TIP3    H171756   5.130   4.100  13.152  0.2935 -1.4337 -1.4610
16755TIP3    H271757   5.195   4.187  13.257 -1.5300 -2.7295  0.8305
16756TIP3   OH271758   6.579   3.613   3.157 -0.3472 -0.4901  0.4657
16756TIP3    H171759   6.602   3.570   3.239 -0.2916  0.3047  0.8707
16756TIP3    H271760   6.489   3.587   3.140 -0.8714  0.5346  1.5609
16757TIP3   OH271761   4.494   4.497   1.456  0.1697 -0.2330 -0.2969
16757TIP3    H171762   4.495   4.592   1.465  0.2723 -0.1185 -1.4076
16757TIP3    H271763   4.522   4.464   1.541 -2.4241  0.6676  1.0154
16758TIP3   OH271764   4.876   4.028  15.949  0.3778 -0.0310 -0.3049
16758TIP3    H171765   4.919   4.090  15.891  1.0645 -0.4366 -0.2397
16758TIP3    H271766   4.917   3.944  15.929  0.5969 -0.1804  0.7428
16759TIP3   OH271767   6.424   5.393  16.329 -0.3677 -0.1092 -0.1639
16759TIP3    H171768   6.500   5.336  16.335 -0.4138 -0.3255 -1.4130
16759TIP3    H271769   6.351   5.339  16.358 -0.2375 -0.3117 -0.2125
16760TIP3   OH271770   5.456   0.335  15.289  0.1468 -0.5226 -0.3813
16760TIP3    H171771   5.477   0.403  15.353  0.8100 -0.5594 -0.5492
16760TIP3    H271772   5.541   0.299  15.264 -0.2294 -1.9183  0.2482
16761TIP3   OH271773   3.665   5.989  11.612  0.5249  0.1045 -0.1939
16761TIP3    H171774   3.690   6.079  11.593 -1.7089  1.1826  1.4943
16761TIP3    H271775   3.574   5.982  11.584  0.6302 -1.6543 -0.2575
16762TIP3   OH271776   6.439   3.816  16.638 -0.1735 -0.0502 -0.2076
16762TIP3    H171777   6.532   3.809  16.617 -0.6873 -1.8720 -2.1759
16762TIP3    H271778   6.408   3.892  16.589  0.3743  1.0418  1.0661
16763TIP3   OH271779   4.928   3.842  16.997  0.1216  0.0760 -0.4841
16763TIP3    H171780   4.846   3.830  16.950  1.3984 -2.7310 -2.2280
16763TIP3    H271781   4.981   3.899  16.941 -0.0648  0.6619 -0.0768
16764TIP3   OH271782   1.486   5.279  11.380  0.0934 -0.3070  0.0807
16764TIP3    H171783   1.513   5.192  11.353  0.6381  0.0075 -0.4162
16764TIP3    H271784   1.529   5.293  11.464  1.1189 -0.0047 -0.4718
16765TIP3   OH271785   0.030   3.204   2.879  0.0615  0.1136 -1.0098
16765TIP3    H171786   0.004   3.268   2.944 -1.0161  0.0269 -1.3370
16765TIP3    H271787   0.119   3.178   2.905 -1.0001 -1.3247  1.5550
16766TIP3   OH271788   4.914   4.477   5.562  0.0815 -0.2901 -0.0140
16766TIP3    H171789   4.911   4.567   5.595 -0.8382 -0.7813  1.3400
16766TIP3    H271790   4.936   4.486   5.470 -0.6647  1.3728 -0.0695
16767TIP3   OH271791   1.301   5.574  12.608  0.2413 -0.6856  0.0020
16767TIP3    H171792   1.356   5.497  12.619  0.6215 -0.2288  1.4451
16767TIP3    H271793   1.234   5.566  12.676 -0.4315 -0.3243 -0.5914
16768TIP3   OH271794   1.379   2.974   2.121  0.0246 -0.2379  1.0863
16768TIP3    H171795   1.375   2.879   2.114 -2.5349 -0.1673  0.7233
16768TIP3    H271796   1.368   2.993   2.214  0.0217 -0.2758  1.0935
16769TIP3   OH271797   2.103   2.848   5.000 -0.2097 -0.3981  0.4684
16769TIP3    H171798   2.117   2.929   4.952  0.0678 -1.0390 -0.5583
16769TIP3    H271799   2.186   2.800   4.993 -0.6974 -1.2271  0.1569
16770TIP3   OH271800   1.684   4.337   2.118  0.3608  0.4955  0.4303
16770TIP3    H171801   1.761   4.291   2.150 -0.2630  0.5688  2.1468
16770TIP3    H271802   1.648   4.280   2.051  1.1963 -0.1394  0.5061
16771TIP3   OH271803   3.140   1.115  12.908  0.3276 -0.4555  0.1001
16771TIP3    H171804   3.157   1.208  12.891  3.1451 -0.8906 -0.0751
16771TIP3    H271805   3.119   1.111  13.001  1.0663  0.2903  0.3114
16772TIP3   OH271806   0.673   1.404  15.834 -0.1111  0.1515  0.0118
16772TIP3    H171807   0.639   1.343  15.899  2.0169  0.8654  1.9464
16772TIP3    H271808   0.680   1.487  15.881  1.9066  0.6004 -0.9492
16773TIP3   OH271809   0.391   2.238  16.336  0.1631  0.2333 -0.2272
16773TIP3    H171810   0.460   2.181  16.304 -1.1327 -0.1584 -2.5577
16773TIP3    H271811   0.314   2.181  16.344  0.0685  0.6042  2.5267
16774TIP3   OH271812   1.763   4.144   6.969  0.5928  0.3740  0.2373
16774TIP3    H171813   1.739   4.165   6.878 -0.0572  1.9976  0.7503
16774TIP3    H271814   1.688   4.097   7.003  0.3084  0.8720  0.3025
16775TIP3   OH271815   1.413   3.066   3.267  0.3915  0.1268  0.0877
16775TIP3    H171816   1.488   3.023   3.307 -0.9733 -1.3958  1.1183
16775TIP3    H271817   1.349   2.996   3.252 -0.0327  0.9917 -2.8082
16776TIP3   OH271818   5.786   1.991   1.460  0.5387  0.4562  0.4985
16776TIP3    H171819   5.709   1.960   1.508 -0.2175  1.5324  0.0419
16776TIP3    H271820   5.859   1.978   1.520  0.5353 -3.2013 -0.0359
16777TIP3   OH271821   1.707   4.229   3.774  0.2702  0.2449  0.2120
16777TIP3    H171822   1.733   4.165   3.707  0.8949 -0.4414  1.0981
16777TIP3    H271823   1.663   4.177   3.841  1.5147  0.6133  1.3406
16778TIP3   OH271824   0.451   1.555   5.374 -0.4631  0.1897 -0.2573
16778TIP3    H171825   0.498   1.496   5.316 -0.8840 -0.6814  0.2731
16778TIP3    H271826   0.489   1.539   5.461 -2.7682 -1.7318  0.4977
16779TIP3   OH271827   0.930   0.810  11.572 -0.3839  0.3219 -0.6137
16779TIP3    H171828   1.018   0.777  11.551 -0.2923  0.4938 -0.5017
16779TIP3    H271829   0.927   0.897  11.532 -0.2490  0.6041 -0.0163
16780TIP3   OH271830   0.448   2.259  11.263  0.5590 -0.3058  0.6713
16780TIP3    H171831   0.373   2.302  11.304  1.7726  2.7163 -0.0684
16780TIP3    H271832   0.414   2.225  11.180  0.0477  1.2992  0.1960
16781TIP3   OH271833   5.263   3.700  17.011  0.4141 -0.1358  0.4443
16781TIP3    H171834   5.250   3.737  16.923  0.7956  0.6920  0.7249
16781TIP3    H271835   5.210   3.756  17.068  0.2591 -0.6013  0.7618
16782TIP3   OH271836   5.631   3.265  15.923  0.2873 -0.1350 -0.5392
16782TIP3    H171837   5.722   3.249  15.897 -0.2506 -1.1492 -1.9457
16782TIP3    H271838   5.626   3.360  15.935  0.9801  0.2729 -2.8296
16783TIP3   OH271839   6.289   6.789  12.163  0.1299 -0.3482 -0.0363
16783TIP3    H171840   6.353   6.719  12.149  0.3044  0.4195 -4.0110
16783TIP3    H271841   6.209   6.743  12.189  1.3160 -1.5856  1.6506
16784TIP3   OH271842   2.089   0.843   4.456  0.2288 -0.7777 -0.0214
16784TIP3    H171843   2.083   0.775   4.389  1.3573 -1.8515  0.9166
16784TIP3    H271844   2.149   0.806   4.522 -1.6867 -0.2552  2.1407
16785TIP3   OH271845   2.469   1.834  13.974  0.0718  0.2479  0.0579
16785TIP3    H171846   2.474   1.843  13.879 -0.0598  0.3689  0.0610
16785TIP3    H271847   2.542   1.886  14.007  1.2775 -1.3298 -0.0442
16786TIP3   OH271848   6.751   1.231  17.120 -0.0270  0.1939  0.7185
16786TIP3    H171849   6.838   1.207  17.153 -0.1250  0.9641  1.6011
16786TIP3    H271850   6.769   1.282  17.041  0.4261  1.5957  1.6777
16787TIP3   OH271851   4.930   5.311  13.921 -0.2635  0.1816  0.1005
16787TIP3    H171852   4.947   5.381  13.857 -1.4726 -0.3416 -0.8190
16787TIP3    H271853   4.964   5.346  14.004  0.2443  1.3605 -0.5790
16788TIP3   OH271854   4.800   2.225  11.615  0.0931  0.9935  0.0366
16788TIP3    H171855   4.728   2.220  11.677  0.4484 -1.4938  0.3565
16788TIP3    H271856   4.876   2.251  11.667  0.2777 -0.5579  0.5855
16789TIP3   OH271857   4.214   3.617  14.700  0.1254  0.9450 -0.1652
16789TIP3    H171858   4.154   3.640  14.770 -1.3856  1.6864 -1.6550
16789TIP3    H271859   4.213   3.521  14.698 -0.5735  0.9448  0.1874
16790TIP3   OH271860   1.046   3.384  16.540  0.2327 -0.3557 -0.5912
16790TIP3    H171861   1.136   3.367  16.511  0.4581  1.8022 -1.3986
16790TIP3    H271862   1.054   3.459  16.599 -0.8626 -1.3074  0.8276
16791TIP3   OH271863   1.705   0.409   2.103  0.6676 -0.4216 -0.0705
16791TIP3    H171864   1.648   0.337   2.128  0.9010  0.4583  3.5138
16791TIP3    H271865   1.675   0.434   2.015 -2.0701 -2.2406  0.2244
16792TIP3   OH271866   2.267   2.797  12.652  0.2033 -0.0199  0.1295
16792TIP3    H171867   2.206   2.806  12.579 -0.7313 -0.1725  0.8820
16792TIP3    H271868   2.284   2.703  12.658 -0.0610 -0.0509  0.3863
16793TIP3   OH271869   6.501   2.227  14.270 -0.6592  0.0679  0.1809
16793TIP3    H171870   6.464   2.140  14.284  2.1645 -1.0194  1.7962
16793TIP3    H271871   6.487   2.272  14.353  1.6006 -0.4392  0.9005
16794TIP3   OH271872   2.939   2.968   6.728  0.3021 -0.1416 -0.0795
16794TIP3    H171873   2.944   2.884   6.774  0.1223 -0.3843 -0.4973
16794TIP3    H271874   3.030   2.989   6.706  0.2821 -0.5972 -0.6285
16795TIP3   OH271875   0.548   6.800  15.723  0.6026 -0.0788  0.0351
16795TIP3    H171876   0.640   6.810  15.746  0.4929 -0.3401  0.6187
16795TIP3    H271877   0.523   6.715  15.759  0.4943 -0.6654 -1.3398
16796TIP3   OH271878   3.537   5.995   0.563 -0.5564 -0.0733  0.4559
16796TIP3    H171879   3.503   6.022   0.477  0.4766 -1.3549 -0.3881
16796TIP3    H271880   3.630   5.980   0.548 -0.4854 -0.9576  1.6670
16797TIP3   OH271881   5.074   2.000   0.436 -0.0792 -0.0328  0.0733
16797TIP3    H171882   5.046   2.081   0.394  2.6486  0.6309 -0.6761
16797TIP3    H271883   5.168   2.010   0.448  0.5031 -3.3067 -0.5842
16798TIP3   OH271884   2.404   4.961   4.837 -0.0094 -0.0628  0.4319
16798TIP3    H171885   2.388   4.964   4.743  1.4185  1.5969  0.1932
16798TIP3    H271886   2.329   4.914   4.873  0.0155 -1.8173 -1.6405
16799TIP3   OH271887   4.358   3.708   2.103 -0.2282 -0.6649 -0.2962
16799TIP3    H171888   4.424   3.657   2.150  1.0786  0.2660 -1.0762
16799TIP3    H271889   4.403   3.787   2.074 -1.7484  0.1287 -0.6482
16800TIP3   OH271890   5.166   2.982   0.529 -0.4546 -0.5217  0.0708
16800TIP3    H171891   5.246   3.034   0.526 -0.6964 -0.1078  0.5777
16800TIP3    H271892   5.127   3.003   0.614 -2.4727  1.3681 -1.2281
16801TIP3   OH271893   1.666   5.778   5.451  0.6327 -0.6621 -0.0962
16801TIP3    H171894   1.640   5.839   5.382 -1.4551 -1.9736 -0.5603
16801TIP3    H271895   1.672   5.694   5.407 -0.0005 -1.3955  1.1746
16802TIP3   OH271896   5.745   0.586   5.868  0.0205 -0.1232  0.3082
16802TIP3    H171897   5.748   0.502   5.913 -0.7046 -0.5294 -0.3710
16802TIP3    H271898   5.837   0.605   5.848  0.2532 -0.4138  1.0608
16803TIP3   OH271899   3.820   4.718  12.952 -0.3885  0.2618 -0.2374
16803TIP3    H171900   3.741   4.768  12.929  0.4622  1.9063  0.2019
16803TIP3    H271901   3.889   4.784  12.957  0.2830 -0.5105  3.0181
16804TIP3   OH271902   1.425   4.503  17.158 -1.4329 -0.0186 -0.0552
16804TIP3    H171903   1.409   4.535  17.247 -0.8450 -2.5109  1.0325
16804TIP3    H271904   1.500   4.444  17.166 -0.9518  0.1970 -2.3408
16805TIP3   OH271905   4.035   3.747   1.100  0.5242  0.2403  0.0197
16805TIP3    H171906   4.093   3.817   1.130  1.1543 -0.2295 -0.0942
16805TIP3    H271907   4.093   3.683   1.059 -0.0424 -0.3700  0.1548
16806TIP3   OH271908   3.962   2.172   1.688 -0.4059 -0.4664 -0.1438
16806TIP3    H171909   3.981   2.249   1.635 -0.3265 -0.8749 -0.7199
16806TIP3    H271910   3.989   2.196   1.777  1.7827 -0.6196 -0.7130
16807TIP3   OH271911   1.006   4.106   0.204  0.6306  0.3653  0.2153
16807TIP3    H171912   1.080   4.046   0.198 -0.0958 -0.7060  1.3403
16807TIP3    H271913   1.022   4.156   0.284  0.5973  0.7786 -0.0350
16808TIP3   OH271914   3.492   5.176   0.527  0.8470  1.0089 -0.1264
16808TIP3    H171915   3.542   5.200   0.450 -1.5218  1.0329 -1.7716
16808TIP3    H271916   3.511   5.083   0.541  0.5172  0.7365 -1.4030
16809TIP3   OH271917   6.313   6.082  11.086 -0.7882 -0.1569  0.0277
16809TIP3    H171918   6.320   6.102  11.180  0.5976 -0.7839  0.0985
16809TIP3    H271919   6.333   5.988  11.081 -0.0630  0.0319 -0.9567
16810TIP3   OH271920   6.369   4.527   4.647 -0.2285 -0.0927  0.2811
16810TIP3    H171921   6.450   4.475   4.651  1.0764  1.7011 -1.1640
16810TIP3    H271922   6.385   4.600   4.707 -0.8923  0.1560  0.1582
16811TIP3   OH271923   0.475   4.297  15.211  0.4416  0.4462 -0.4374
16811TIP3    H171924   0.551   4.353  15.194  0.9664  0.2469  1.0438
16811TIP3    H271925   0.492   4.217  15.163  0.2571  1.1019 -1.6196
16812TIP3   OH271926   0.775   5.049  13.813  0.0460 -0.2094  0.0433
16812TIP3    H171927   0.812   5.087  13.733  0.8756  1.4474  1.1575
16812TIP3    H271928   0.834   5.078  13.883  0.0053 -2.6100  1.1458
16813TIP3   OH271929   5.476   3.029  14.706 -0.2603 -0.3364  0.3988
16813TIP3    H171930   5.387   3.016  14.673 -0.5245  1.1611  0.4241
16813TIP3    H271931   5.485   2.965  14.776 -1.7022  0.1310  1.0705
16814TIP3   OH271932   2.726   0.158   4.045 -0.0618 -0.7766  0.8068
16814TIP3    H171933   2.722   0.184   3.953 -1.1429 -2.9389  0.1609
16814TIP3    H271934   2.790   0.086   4.047 -0.9516 -1.5730  1.5004
16815TIP3   OH271935   3.144   1.074   5.411 -0.1750 -0.1176  0.1885
16815TIP3    H171936   3.054   1.079   5.379 -0.4999  0.8033  1.1825
16815TIP3    H271937   3.193   1.135   5.355 -0.6717  1.2301  1.1566
16816TIP3   OH271938   5.350   5.363  14.912  0.0481  0.1879 -0.8337
16816TIP3    H171939   5.391   5.369  14.825 -1.0081  1.6823 -1.2782
16816TIP3    H271940   5.373   5.276  14.944  0.3078 -0.4707 -2.6975
16817TIP3   OH271941   4.995   0.513   0.317  0.3198 -0.5636 -0.2418
16817TIP3    H171942   5.028   0.423   0.323  0.9382 -0.5068 -2.0656
16817TIP3    H271943   5.070   0.567   0.343 -0.3268 -0.5567  1.7457
16818TIP3   OH271944   5.789   1.653  11.502 -0.1935 -0.0606  0.4898
16818TIP3    H171945   5.770   1.741  11.533 -0.1735 -0.4964  1.8464
16818TIP3    H271946   5.755   1.595  11.571  1.5560 -1.0266  0.6306
16819TIP3   OH271947   5.864   6.703  15.747 -0.5245  0.0669 -0.3885
16819TIP3    H171948   5.923   6.641  15.790 -0.6129  0.9410  1.0916
16819TIP3    H271949   5.921   6.758  15.694 -0.1312  0.2506  0.2175
16820TIP3   OH271950   1.555   2.867   4.886 -0.0421  0.0932 -0.5008
16820TIP3    H171951   1.470   2.833   4.860 -0.0513 -1.0107  0.8088
16820TIP3    H271952   1.547   2.962   4.881 -1.8611  0.0763  0.9876
16821TIP3   OH271953   5.509   3.612   1.344 -0.0647  0.4113  0.3607
16821TIP3    H171954   5.513   3.657   1.428  0.7571  0.7704  0.1432
16821TIP3    H271955   5.584   3.552   1.345 -0.4053 -0.0251  0.1292
16822TIP3   OH271956   2.930   2.830   2.213 -0.3853 -0.4173 -0.3539
16822TIP3    H171957   2.946   2.824   2.307  2.6346  1.8709 -0.5895
16822TIP3    H271958   2.836   2.850   2.206 -0.9156 -1.6268  2.0377
16823TIP3   OH271959   2.969   6.248  12.030  0.0297  0.3771  0.3451
16823TIP3    H171960   2.970   6.157  12.060 -2.5267 -0.1754 -0.9320
16823TIP3    H271961   3.015   6.245  11.946 -3.4200 -0.7467 -1.7426
16824TIP3   OH271962   6.559   4.198  13.743 -0.1905 -0.0774  0.2983
16824TIP3    H171963   6.572   4.172  13.652 -0.4664  2.2363 -0.4597
16824TIP3    H271964   6.603   4.130  13.794  1.0264 -0.7782 -1.5971
16825TIP3   OH271965   4.315   6.733  14.161  0.4742 -0.1495  0.4218
16825TIP3    H171966   4.294   6.663  14.099 -0.8786  0.5719  0.0215
16825TIP3    H271967   4.318   6.813  14.108  1.1556  0.2252  1.0031
16826TIP3   OH271968   1.786   1.460  16.392  0.1054  0.4917 -0.2726
16826TIP3    H171969   1.814   1.406  16.319  1.3862  1.8768 -0.8726
16826TIP3    H271970   1.727   1.405  16.443  0.9608 -1.2653 -1.1176
16827TIP3   OH271971   0.986   4.559   0.349 -0.1141 -0.1031 -0.4954
16827TIP3    H171972   0.925   4.553   0.422 -0.2494 -0.7454 -0.6593
16827TIP3    H271973   1.030   4.643   0.362 -1.2957  0.5520 -0.5929
16828TIP3   OH271974   5.293   3.653  12.051 -0.4706 -0.0637  0.1570
16828TIP3    H171975   5.302   3.646  11.956 -0.5440  1.6329 -0.0079
16828TIP3    H271976   5.383   3.644  12.084 -0.3289  0.2145 -0.1485
16829TIP3   OH271977   1.873   2.906  14.529 -0.1774 -0.2016 -1.0025
16829TIP3    H171978   1.869   2.870  14.441 -3.1094  0.1017 -1.0945
16829TIP3    H271979   1.788   2.883  14.568  0.6742  0.4651  1.4168
16830TIP3   OH271980   1.469   1.454  15.589 -0.1333  0.2918 -0.0079
16830TIP3    H171981   1.485   1.548  15.580 -1.8110  0.5997 -0.2574
16830TIP3    H271982   1.538   1.422  15.647  1.7604  1.2453 -1.6432
16831TIP3   OH271983   5.764   1.404   0.503  0.2383  0.2619  0.1510
16831TIP3    H171984   5.812   1.379   0.424 -0.2596 -2.5646  0.6353
16831TIP3    H271985   5.752   1.322   0.551 -1.6163  1.4969  1.9872
16832TIP3   OH271986   0.381   3.422  16.000 -0.2962  0.1158 -0.4523
16832TIP3    H171987   0.372   3.406  16.094  0.3575 -1.4506 -0.6323
16832TIP3    H271988   0.440   3.498  15.994 -0.5999  0.4253  0.3993
16833TIP3   OH271989   1.319   0.610  12.470  0.2398  0.4923 -0.2897
16833TIP3    H171990   1.340   0.614  12.376  1.6732 -1.8266 -0.1532
16833TIP3    H271991   1.400   0.639  12.514  1.7286 -3.7312  0.1879
16834TIP3   OH271992   3.159   4.169  13.662 -0.1796 -0.2935 -0.3928
16834TIP3    H171993   3.157   4.253  13.615  0.6310  0.9159  1.5876
16834TIP3    H271994   3.084   4.174  13.722  0.8361 -0.1887  0.9246
16835TIP3   OH271995   1.629   5.481   6.472  0.2513  0.3421  0.0903
16835TIP3    H171996   1.714   5.459   6.434 -1.1440 -1.3304 -2.3242
16835TIP3    H271997   1.607   5.406   6.527 -1.2913 -1.1434 -2.3876
16836TIP3   OH271998   2.472   3.280   1.811  0.2532  0.1563  0.2896
16836TIP3    H171999   2.467   3.340   1.885 -0.5105  0.6375 -0.1336
16836TIP3    H272000   2.559   3.294   1.774  1.1332 -1.0178  1.8486
16837TIP3   OH272001   2.985   6.566  16.925 -0.0080  0.5715 -0.1875
16837TIP3    H172002   2.937   6.617  16.860 -1.0577  0.4562  0.4761
16837TIP3    H272003   2.924   6.497  16.951  0.3782  0.6383  0.9469
16838TIP3   OH272004   2.829   3.261   3.168 -0.2219  0.1007  0.1062
16838TIP3    H172005   2.736   3.268   3.189 -0.0340  0.2013  0.9236
16838TIP3    H272006   2.845   3.332   3.105 -0.5793  0.4300  0.3834
16839TIP3   OH272007   5.859   4.050   0.497 -0.0343  0.0273 -0.0510
16839TIP3    H172008   5.858   4.103   0.417  0.2355 -0.6376 -0.4993
16839TIP3    H272009   5.934   3.993   0.488  0.9312  0.9926  1.3903
16840TIP3   OH272010   0.801   4.076  12.939  0.2200 -0.5368  0.0213
16840TIP3    H172011   0.893   4.103  12.933 -0.6447  2.4288 -2.8750
16840TIP3    H272012   0.755   4.157  12.962 -1.7322 -2.0611  1.9236
16841TIP3   OH272013   6.569   6.170  15.730 -0.5480  0.2706  0.3659
16841TIP3    H172014   6.492   6.114  15.736 -1.7922  1.3245 -3.0747
16841TIP3    H272015   6.558   6.235  15.799 -1.5337 -0.9472  1.3846
16842TIP3   OH272016   2.118   0.347  15.141  0.0021  0.0372  0.8702
16842TIP3    H172017   2.148   0.324  15.229  0.8065  0.4325  0.7109
16842TIP3    H272018   2.198   0.347  15.088 -0.7211 -2.5725 -0.4200
16843TIP3   OH272019   4.609   4.639  14.119 -0.7072 -0.1550 -0.7009
16843TIP3    H172020   4.560   4.572  14.167 -1.9560  1.2968  0.1558
16843TIP3    H272021   4.565   4.646  14.035 -0.3644 -0.6251 -0.9245
16844TIP3   OH272022   0.311   1.824  16.035 -0.6637  0.3552 -0.1870
16844TIP3    H172023   0.318   1.838  16.130 -0.7402 -0.0917 -0.1121
16844TIP3    H272024   0.342   1.734  16.022  1.2726  1.0605 -0.8422
16845TIP3   OH272025   2.760   1.153  13.938  0.2060 -0.2451  0.0835
16845TIP3    H172026   2.706   1.118  13.868  1.3501 -0.8283 -0.5332
16845TIP3    H272027   2.707   1.143  14.017 -1.1473  0.5262 -0.6953
16846TIP3   OH272028   1.483   1.673  14.644 -0.0882  0.5065 -0.0151
16846TIP3    H172029   1.460   1.713  14.729  2.7493  0.2418  0.9798
16846TIP3    H272030   1.440   1.587  14.646  0.7132  0.1031  1.6269
16847TIP3   OH272031   2.634   4.641  13.904  0.0317  0.2117 -0.7949
16847TIP3    H172032   2.695   4.569  13.888 -0.5878 -0.3295 -0.7381
16847TIP3    H272033   2.661   4.677  13.989  0.4255  0.1384 -0.8866
16848TIP3   OH272034   3.021   4.461  11.146  0.0843  0.1748 -0.7173
16848TIP3    H172035   2.986   4.544  11.179  0.2761  0.2860 -0.7888
16848TIP3    H272036   2.946   4.415  11.110 -0.1672 -0.0289  0.0403
16849TIP3   OH272037   4.172   0.669   5.904  0.1231  0.1441  0.1231
16849TIP3    H172038   4.175   0.685   5.998  1.0227 -1.3652  0.3703
16849TIP3    H272039   4.172   0.574   5.895  3.0946  0.1740 -1.4447
16850TIP3   OH272040   2.338   1.452   3.165 -0.6332  0.1432 -0.0683
16850TIP3    H172041   2.316   1.359   3.177 -2.4723  0.6693  1.2202
16850TIP3    H272042   2.351   1.485   3.254 -2.0135  1.5298 -0.3352
16851TIP3   OH272043   6.115   5.212  16.115 -0.0370  0.3487 -0.0170
16851TIP3    H172044   6.191   5.266  16.094  0.8838 -1.1338 -0.6172
16851TIP3    H272045   6.143   5.158  16.189 -0.1523 -0.8816 -0.8437
16852TIP3   OH272046   6.741   1.178  14.347 -0.0078 -0.8686 -1.1177
16852TIP3    H172047   6.804   1.243  14.379 -1.0175 -0.5206  0.2297
16852TIP3    H272048   6.789   1.096  14.345  0.4897 -0.6100 -0.0821
16853TIP3   OH272049   5.517   0.344   3.941  0.0278 -0.8343 -0.2186
16853TIP3    H172050   5.469   0.314   3.864 -0.1880 -1.9969  0.3516
16853TIP3    H272051   5.609   0.342   3.915 -0.0976 -0.4327 -0.7007
16854TIP3   OH272052   3.943   6.255  15.814  0.2075 -0.3447  0.0334
16854TIP3    H172053   3.934   6.268  15.719  0.3299 -2.8577 -0.3715
16854TIP3    H272054   3.984   6.336  15.845 -0.3309  0.7571 -1.9478
16855TIP3   OH272055   3.388   0.923  13.982 -0.1182 -0.0905  0.4848
16855TIP3    H172056   3.444   0.991  14.021  0.2160 -0.2034  0.2153
16855TIP3    H272057   3.436   0.897  13.903 -0.1118 -0.8283  0.7314
16856TIP3   OH272058   0.954   1.713   4.682  0.2999  0.9071 -0.0512
16856TIP3    H172059   1.024   1.731   4.619  1.9774  0.4102  1.5868
16856TIP3    H272060   0.886   1.778   4.663  2.5409  3.5037  0.2926
16857TIP3   OH272061   0.161   0.675  12.439 -0.0193  0.8560  0.3132
16857TIP3    H172062   0.076   0.633  12.424  1.3087 -1.2205 -2.4720
16857TIP3    H272063   0.200   0.680  12.351  3.3612  0.2411  1.6344
16858TIP3   OH272064   5.211   0.570  11.357  0.5743  0.4277 -0.5166
16858TIP3    H172065   5.260   0.511  11.415  0.9394  2.0177  0.8598
16858TIP3    H272066   5.130   0.523  11.338  0.4553 -0.1622  1.2793
16859TIP3   OH272067   4.987   5.748  14.606 -0.5164  0.2299 -0.2626
16859TIP3    H172068   5.054   5.816  14.597  0.8022 -0.8634  0.8756
16859TIP3    H272069   4.958   5.755  14.697 -1.2559  0.0570 -0.4800
16860TIP3   OH272070   3.019   4.478   4.537  0.0710 -0.0383  0.5905
16860TIP3    H172071   3.109   4.495   4.508 -0.3341 -0.7313 -1.2066
16860TIP3    H272072   3.011   4.383   4.536 -0.6727  0.0194  0.7821
16861TIP3   OH272073   5.006   4.115  15.597  0.4807  0.0025 -0.2969
16861TIP3    H172074   5.091   4.076  15.615  0.7126  0.6094 -0.0393
16861TIP3    H272075   4.989   4.171  15.673 -0.5745 -0.8101  0.0967
16862TIP3   OH272076   6.405   4.217  14.953  0.1047 -0.0003 -0.2656
16862TIP3    H172077   6.333   4.250  14.900 -0.9401 -0.2562  0.9575
16862TIP3    H272078   6.384   4.125  14.968  0.5714 -0.0296  0.2564
16863TIP3   OH272079   1.324   4.527  12.796  0.1221 -0.8164 -0.0751
16863TIP3    H172080   1.255   4.591  12.816  0.7257 -0.1511 -0.1183
16863TIP3    H272081   1.370   4.515  12.879 -0.2753 -1.5617  0.0544
16864TIP3   OH272082   1.116   3.345   0.228 -0.2847 -0.0520  0.3705
16864TIP3    H172083   1.207   3.317   0.234 -0.5958 -1.2373 -0.2167
16864TIP3    H272084   1.077   3.320   0.311 -0.0184  0.7441  0.7501
16865TIP3   OH272085   3.748   2.602   5.769  0.5930 -0.1854 -0.0566
16865TIP3    H172086   3.752   2.553   5.851 -0.9376  1.0721  0.8173
16865TIP3    H272087   3.663   2.646   5.771 -0.1339 -1.1961 -2.9510
16866TIP3   OH272088   3.814   5.294   0.602 -0.0491  0.3227 -0.0157
16866TIP3    H172089   3.764   5.266   0.526 -0.2003  0.8268 -0.1054
16866TIP3    H272090   3.803   5.224   0.666 -0.9168  0.4615 -0.0100
16867TIP3   OH272091   4.547   5.083  15.375  0.5374 -0.7142  0.5639
16867TIP3    H172092   4.593   5.116  15.451  1.5075 -1.1861  0.1958
16867TIP3    H272093   4.517   4.996  15.401  0.6263 -0.7639  0.5003
16868TIP3   OH272094   0.664   6.048  10.932 -0.3707  0.6823 -0.3841
16868TIP3    H172095   0.572   6.031  10.954 -0.4351  1.7425  0.2251
16868TIP3    H272096   0.664   6.136  10.895  0.4695  0.8991  0.1084
16869TIP3   OH272097   1.572   3.930   1.844 -0.2741  0.1607  0.6877
16869TIP3    H172098   1.633   3.971   1.784  0.8330 -0.8163  1.1001
16869TIP3    H272099   1.565   3.839   1.814 -2.3746  0.4846  0.0164
16870TIP3   OH272100   0.913   2.839  11.894 -0.0621 -0.3219  0.2063
16870TIP3    H172101   0.858   2.811  11.967  0.1821  2.9780  1.8193
16870TIP3    H272102   0.855   2.837  11.818 -0.3774 -3.6086  0.3665
16871TIP3   OH272103   3.473   4.267   4.443 -0.0058  0.0307 -0.2405
16871TIP3    H172104   3.556   4.249   4.487 -0.5312 -1.9179  0.0372
16871TIP3    H272105   3.410   4.209   4.486 -0.8789 -0.7544 -2.4517
16872TIP3   OH272106   2.880   6.559   3.470 -0.4107  0.6858 -0.1130
16872TIP3    H172107   2.865   6.493   3.538 -1.3197  1.4301  0.4385
16872TIP3    H272108   2.834   6.526   3.393  0.5593 -0.1258 -0.3676
16873TIP3   OH272109   5.511   3.960   5.416 -0.2770 -0.0817  0.5636
16873TIP3    H172110   5.548   3.925   5.335 -4.3363  0.2233 -1.6630
16873TIP3    H272111   5.523   3.890   5.480  1.0911 -1.2441 -0.8928
16874TIP3   OH272112   3.139   3.975   2.819  0.2654  0.3446 -0.3275
16874TIP3    H172113   3.126   3.918   2.894  0.7345 -0.0982 -0.5805
16874TIP3    H272114   3.051   3.988   2.783 -0.0198  0.9329  0.5604
16875TIP3   OH272115   3.018   5.213  16.403  0.5145  0.1107  0.0041
16875TIP3    H172116   2.933   5.258  16.402  0.7673  0.6054  0.5749
16875TIP3    H272117   3.004   5.135  16.349  0.0302  0.7912 -0.8683
16876TIP3   OH272118   2.762   5.464  14.161 -0.0268  0.0727  0.3880
16876TIP3    H172119   2.746   5.542  14.106  0.4862 -1.0968 -1.5209
16876TIP3    H272120   2.857   5.456  14.164 -0.0652 -1.5291 -1.0810
16877TIP3   OH272121   3.975   0.339  10.729 -0.1772  0.4129 -0.7378
16877TIP3    H172122   3.994   0.363  10.638  0.3727  0.7865 -0.5312
16877TIP3    H272123   3.891   0.381  10.747  1.0685  2.8487 -0.1748
16878TIP3   OH272124   5.782   0.401  14.621 -0.1610  0.3628 -0.1184
16878TIP3    H172125   5.791   0.488  14.660  0.7121  2.0281 -3.6523
16878TIP3    H272126   5.736   0.415  14.539  0.4162 -2.4423 -1.0636
16879TIP3   OH272127   6.297   1.075  16.467  1.0395  0.1032 -0.1222
16879TIP3    H172128   6.381   1.029  16.472  0.8991 -0.0683  0.8007
16879TIP3    H272129   6.232   1.005  16.464  0.8292  0.2180  1.1975
16880TIP3   OH272130   2.852   6.059   4.675  0.4626  0.1799  0.4495
16880TIP3    H172131   2.888   5.982   4.719 -0.7306 -1.0021 -0.5488
16880TIP3    H272132   2.818   6.114   4.745  1.0896 -0.3191  1.1575
16881TIP3   OH272133   6.511   4.437   0.660 -0.5810 -0.2841 -0.2170
16881TIP3    H172134   6.531   4.520   0.704  0.0838 -0.2915 -0.4929
16881TIP3    H272135   6.437   4.402   0.708 -0.4461  0.1540  0.3237
16882TIP3   OH272136   5.575   6.019   5.721  0.5683 -0.5997  0.2857
16882TIP3    H172137   5.537   5.974   5.646 -2.6610 -0.1289  1.4461
16882TIP3    H272138   5.567   5.957   5.794 -1.3704  0.7035  1.2942
16883TIP3   OH272139   1.702   1.772  11.972 -0.5807  0.3563 -0.6278
16883TIP3    H172140   1.606   1.766  11.971 -0.6196  0.7679  0.3346
16883TIP3    H272141   1.726   1.776  11.879 -1.3141 -2.4333 -1.0342
16884TIP3   OH272142   4.222   5.776   0.095 -0.3075 -0.2186 -0.1451
16884TIP3    H172143   4.224   5.721   0.173 -1.0508  0.1684  0.1526
16884TIP3    H272144   4.284   5.846   0.112 -0.4695 -0.1348  0.1039
16885TIP3   OH272145   5.006   5.299   5.226  0.1709 -0.0320  0.4058
16885TIP3    H172146   5.000   5.393   5.213  1.9157  0.1286  0.5077
16885TIP3    H272147   4.994   5.287   5.321 -0.3956  0.0542  0.3442
16886TIP3   OH272148   3.317   5.545   1.019 -0.8709 -0.2078 -0.0876
16886TIP3    H172149   3.264   5.467   1.002 -0.2841 -0.6098 -0.1451
16886TIP3    H272150   3.265   5.618   0.987 -1.5693 -0.5450  0.2610
16887TIP3   OH272151   5.951   3.921   2.145 -0.0823  0.3583  0.5778
16887TIP3    H172152   5.914   4.007   2.125 -0.1114  0.1134 -0.5029
16887TIP3    H272153   6.042   3.926   2.117 -0.4004 -0.3310 -0.6723
16888TIP3   OH272154   4.571   3.579  11.423 -1.0109 -0.0052  0.0825
16888TIP3    H172155   4.489   3.536  11.450 -0.7810 -0.3773  0.1889
16888TIP3    H272156   4.597   3.533  11.343  0.1421 -1.2285  1.1220
16889TIP3   OH272157   5.649   3.800  11.632  0.0882  0.3451 -0.5147
16889TIP3    H172158   5.586   3.791  11.561  1.4522  1.7882 -1.9910
16889TIP3    H272159   5.685   3.712  11.643 -0.6263 -0.0389 -1.1444
16890TIP3   OH272160   2.749   5.455   2.481  0.3636 -0.2462  0.5754
16890TIP3    H172161   2.774   5.539   2.519 -0.6038  0.0918  0.5040
16890TIP3    H272162   2.706   5.478   2.398 -0.8565 -0.7131  1.0473
16891TIP3   OH272163   2.718   0.766  11.018 -0.0842  0.1818 -0.6489
16891TIP3    H172164   2.658   0.735  11.087 -0.4252  0.0565 -0.9994
16891TIP3    H272165   2.804   0.764  11.059  0.1982 -2.8782 -1.1517
16892TIP3   OH272166   1.013   0.698   6.773 -0.3987 -0.2288  0.1493
16892TIP3    H172167   1.027   0.687   6.679  1.1232  0.6645  0.2306
16892TIP3    H272168   0.954   0.773   6.780 -1.9004 -1.3525 -0.1127
16893TIP3   OH272169   3.599   6.249   4.812  0.1191  0.4427  0.1697
16893TIP3    H172170   3.534   6.307   4.772  1.4756  1.0333 -1.2640
16893TIP3    H272171   3.622   6.187   4.743  0.7634 -0.0528  0.8090
16894TIP3   OH272172   6.585   5.186  11.326 -0.2224  0.8336  0.0329
16894TIP3    H172173   6.656   5.249  11.335  0.1643  0.3858  0.1473
16894TIP3    H272174   6.562   5.189  11.233 -0.1735  1.1115  0.0311
16895TIP3   OH272175   5.014   5.097   3.777 -0.3782 -0.0928 -0.4534
16895TIP3    H172176   5.035   5.123   3.687 -0.5859 -0.4875 -0.6191
16895TIP3    H272177   5.088   5.128   3.829 -0.6087  0.8080 -0.6460
16896TIP3   OH272178   3.919   6.701   3.580 -0.1703 -0.3877 -0.5202
16896TIP3    H172179   3.952   6.752   3.506  1.0088  0.4777  0.5699
16896TIP3    H272180   3.932   6.757   3.656 -4.3164  0.0994  0.0569
16897TIP3   OH272181   3.511   3.198   1.581 -0.3043  0.0966 -0.4018
16897TIP3    H172182   3.532   3.291   1.574  1.3300 -0.0945  1.0740
16897TIP3    H272183   3.492   3.171   1.492  1.2213  1.4319 -1.1944
16898TIP3   OH272184   1.212   2.522  11.216 -0.3665  0.0405 -0.1177
16898TIP3    H172185   1.125   2.548  11.247  0.3447 -0.4666  2.5795
16898TIP3    H272186   1.262   2.603  11.216 -0.0575 -0.1185  1.3637
16899TIP3   OH272187   6.304   1.851  11.910 -0.7255 -0.3656 -0.3109
16899TIP3    H172188   6.245   1.779  11.890 -1.2664  0.3372 -1.3294
16899TIP3    H272189   6.390   1.809  11.922 -1.4634 -1.4354  1.5923
16900TIP3   OH272190   3.784   4.283  15.851  0.6527 -0.2142 -0.2249
16900TIP3    H172191   3.833   4.286  15.933  2.0183 -0.6603 -0.9827
16900TIP3    H272192   3.713   4.345  15.863  0.8084 -0.2819  1.2991
16901TIP3   OH272193   0.881   2.773  16.049  0.3100  0.0799  0.4029
16901TIP3    H172194   0.815   2.836  16.021 -0.1914 -1.3138 -1.9450
16901TIP3    H272195   0.831   2.702  16.089  0.5009 -0.3418 -0.0890
16902TIP3   OH272196   0.070   5.805  13.787  0.2671  0.0245 -0.0946
16902TIP3    H172197   0.129   5.878  13.767  0.6942 -0.5090 -0.8035
16902TIP3    H272198   0.125   5.727  13.781 -0.6804 -0.5663 -1.6672
16903TIP3   OH272199   1.396   5.383  16.515  0.3865  0.2956  0.2335
16903TIP3    H172200   1.308   5.363  16.545  0.2446 -2.3591 -1.6129
16903TIP3    H272201   1.397   5.357  16.423  1.9301  4.3021 -1.1143
16904TIP3   OH272202   6.727   1.060   2.656 -0.0244  0.2345 -0.1309
16904TIP3    H172203   6.698   1.122   2.589  0.6913  0.7004 -0.0105
16904TIP3    H272204   6.792   1.005   2.612 -0.3726 -0.1902 -0.1276
16905TIP3   OH272205   3.416   2.757  17.096  0.1281  0.4077  0.2110
16905TIP3    H172206   3.408   2.662  17.089  1.1961  0.2648  0.7299
16905TIP3    H272207   3.430   2.774  17.189  0.8359  0.9845  0.0154
16906TIP3   OH272208   2.478   3.325  10.860 -0.6185  0.2917  0.2026
16906TIP3    H172209   2.535   3.254  10.831  0.1806  1.3344 -0.9117
16906TIP3    H272210   2.403   3.281  10.900  0.0865 -1.1502  0.0163
16907TIP3   OH272211   4.454   0.893  11.120  0.0272 -0.3696  0.7367
16907TIP3    H172212   4.420   0.946  11.192 -0.7770 -1.8887  1.5181
16907TIP3    H272213   4.547   0.883  11.139 -0.2438 -1.0406  1.7602
16908TIP3   OH272214   6.034   0.411   0.889 -0.5765 -0.4058 -0.0775
16908TIP3    H172215   5.976   0.452   0.954 -0.0188  0.5948 -0.2056
16908TIP3    H272216   6.063   0.330   0.931  0.6661  0.7535  1.4259
16909TIP3   OH272217   0.406   3.518  10.476 -0.4631  0.2577 -0.7002
16909TIP3    H172218   0.492   3.529  10.516 -0.5994 -1.3922  0.1242
16909TIP3    H272219   0.380   3.606  10.450  1.9855  0.6669 -2.0768
16910TIP3   OH272220   2.274   3.077   3.390  0.6097  0.1639 -0.2464
16910TIP3    H172221   2.224   3.129   3.327  0.5036 -1.6708 -1.7810
16910TIP3    H272222   2.208   3.029   3.439  0.7281 -1.9142 -1.9636
16911TIP3   OH272223   3.613   2.885  10.786 -0.0078 -0.4533  0.3709
16911TIP3    H172224   3.653   2.829  10.852  0.9197  1.0997  1.1923
16911TIP3    H272225   3.687   2.932  10.747 -0.9062  2.2757  1.7071
16912TIP3   OH272226   3.207   6.082  14.429  0.5149  0.1152  0.4945
16912TIP3    H172227   3.169   6.169  14.444  0.6731  0.5534 -1.3541
16912TIP3    H272228   3.151   6.023  14.479 -1.1514  1.0317 -0.1904
16913TIP3   OH272229   6.406   6.805   6.482 -0.2330 -0.2279 -0.5999
16913TIP3    H172230   6.325   6.760   6.458  0.5218 -1.0084 -1.7683
16913TIP3    H272231   6.406   6.885   6.430 -0.6816  0.2427  0.1000
16914TIP3   OH272232   3.795   3.843   2.352  0.1991 -0.2692  0.1575
16914TIP3    H172233   3.885   3.824   2.325  0.4275 -0.8406  1.2501
16914TIP3    H272234   3.791   3.813   2.443 -1.0982 -0.2508  0.1210
16915TIP3   OH272235   4.834   3.241  13.564  0.8449 -0.4982 -0.3003
16915TIP3    H172236   4.766   3.200  13.510  1.0498  0.2243 -1.1400
16915TIP3    H272237   4.916   3.216  13.522  1.0293 -0.2521 -0.0899
16916TIP3   OH272238   3.828   1.847  12.284  0.3836  0.4290  0.0390
16916TIP3    H172239   3.818   1.907  12.211 -0.1774  1.5563  1.0094
16916TIP3    H272240   3.752   1.864  12.340  1.2842  0.3068  1.3561
16917TIP3   OH272241   4.036   3.525   1.474  0.3314  0.2551 -0.4034
16917TIP3    H172242   3.970   3.469   1.432 -0.5509 -0.0402  1.2824
16917TIP3    H272243   4.001   3.541   1.561  1.2720  2.2568 -0.3447
16918TIP3   OH272244   1.612   2.240  11.865  0.0860 -0.4671 -0.2438
16918TIP3    H172245   1.563   2.207  11.940 -0.2710  0.1448 -0.1966
16918TIP3    H272246   1.561   2.315  11.834 -1.2071 -2.2616 -2.7624
16919TIP3   OH272247   1.705   6.440  12.043 -0.3261 -0.0866  0.3551
16919TIP3    H172248   1.721   6.384  11.967 -0.5828  0.9732 -0.4841
16919TIP3    H272249   1.688   6.527  12.007  3.2518  1.3514  1.7060
16920TIP3   OH272250   0.052   6.028   0.596 -0.4199  1.1300 -0.5628
16920TIP3    H172251   0.046   6.119   0.625  0.9530  1.1318 -0.2286
16920TIP3    H272252   0.143   6.004   0.612 -0.3462  0.2166 -2.2074
16921TIP3   OH272253   2.677   5.704   5.243 -0.0473  0.0988 -0.1315
16921TIP3    H172254   2.705   5.629   5.191 -2.2894  0.4041 -1.9403
16921TIP3    H272255   2.746   5.715   5.309  0.5585 -3.2591 -0.0377
16922TIP3   OH272256   6.465   3.011   0.183  0.0907 -0.2339 -0.2184
16922TIP3    H172257   6.445   2.942   0.120  0.8550 -0.3774 -0.3176
16922TIP3    H272258   6.480   3.089   0.129 -0.1766 -0.1273 -0.1442
16923TIP3   OH272259   3.334   5.690   6.452  0.8506 -0.4208 -0.4506
16923TIP3    H172260   3.254   5.727   6.490  3.0105  2.7942  1.4263
16923TIP3    H272261   3.318   5.689   6.358 -0.7867  1.8366 -0.2737
16924TIP3   OH272262   3.631   2.985  14.456 -0.3340 -0.0941 -0.2426
16924TIP3    H172263   3.613   3.043  14.382 -0.8868 -1.9043 -1.5970
16924TIP3    H272264   3.553   2.991  14.511 -0.0150  1.0868  0.1068
16925TIP3   OH272265   0.143   0.369   0.741 -0.3999 -0.2324 -0.0907
16925TIP3    H172266   0.149   0.463   0.761 -0.6162 -0.5546  1.6548
16925TIP3    H272267   0.050   0.348   0.752 -0.1530 -0.9016  0.8143
16926TIP3   OH272268   5.906   1.784   1.227 -0.8998  0.0687  0.0653
16926TIP3    H172269   5.869   1.739   1.303 -1.3165  0.3343  0.0246
16926TIP3    H272270   5.932   1.714   1.168  1.0118 -0.2084  1.1606
16927TIP3   OH272271   1.299   1.251   2.129  0.0349 -0.4815  0.4280
16927TIP3    H172272   1.260   1.243   2.042 -0.2619  1.2423  0.3523
16927TIP3    H272273   1.380   1.300   2.113  1.1732 -2.1639  0.8579
16928TIP3   OH272274   2.868   6.504  10.956  0.3736  0.4427 -0.8184
16928TIP3    H172275   2.924   6.550  11.019 -0.1540 -1.7938  1.4511
16928TIP3    H272276   2.928   6.444  10.911  0.3086  0.0439 -0.3879
16929TIP3   OH272277   6.013   5.319  15.225 -0.0840 -0.6914  0.2303
16929TIP3    H172278   6.000   5.298  15.133 -0.3747 -1.1354  0.3712
16929TIP3    H272279   5.925   5.330  15.261  0.0462  0.2510  0.2853
16930TIP3   OH272280   4.716   1.218  16.911 -0.5220  0.2808  0.5220
16930TIP3    H172281   4.775   1.233  16.837 -1.5115  2.2519  0.0794
16930TIP3    H272282   4.774   1.186  16.980  0.7494  0.3104 -0.4826
16931TIP3   OH272283   1.404   6.491  14.107  0.4051 -0.6610  0.0368
16931TIP3    H172284   1.357   6.552  14.049 -0.7042 -1.0463  0.5047
16931TIP3    H272285   1.469   6.449  14.050  1.6773  1.4045 -0.1599
16932TIP3   OH272286   2.872   0.789   4.167  0.6029  0.1859 -0.7884
16932TIP3    H172287   2.790   0.741   4.164  0.7604 -0.2942  1.2307
16932TIP3    H272288   2.919   0.762   4.089 -0.4889 -0.7696 -1.1349
16933TIP3   OH272289   5.646   6.746  16.675  0.0159 -0.8932 -0.0479
16933TIP3    H172290   5.649   6.825  16.621 -4.1608 -0.1288  0.5418
16933TIP3    H272291   5.666   6.777  16.763  2.2550 -1.3210 -0.3416
16934TIP3   OH272292   3.164   2.341  12.261  0.2090 -0.4554  0.4307
16934TIP3    H172293   3.192   2.398  12.189  0.4688 -0.9507  0.1298
16934TIP3    H272294   3.130   2.263  12.217  0.9415 -1.0243  0.8565
16935TIP3   OH272295   1.170   5.474   0.750 -0.1276  0.6782  0.2455
16935TIP3    H172296   1.108   5.446   0.683  0.0469  0.8346  0.0152
16935TIP3    H272297   1.245   5.414   0.739  0.5003  1.6031 -0.6457
16936TIP3   OH272298   5.563   0.264  12.010 -0.1284 -0.1551 -0.2028
16936TIP3    H172299   5.630   0.206  11.973 -0.0429 -0.4321  0.3714
16936TIP3    H272300   5.529   0.216  12.086 -1.2492 -0.1787 -0.6995
16937TIP3   OH272301   2.305   3.516   1.755  0.0259  0.5348  0.0741
16937TIP3    H172302   2.385   3.564   1.779  0.2562  0.4850 -0.5849
16937TIP3    H272303   2.337   3.440   1.707 -0.5123  1.9850 -2.7972
16938TIP3   OH272304   3.899   4.625  15.729  0.5648  0.4220 -0.4981
16938TIP3    H172305   3.882   4.715  15.699 -1.6552 -0.2825 -1.5811
16938TIP3    H272306   3.911   4.575  15.649  0.2033 -0.5369  0.0353
16939TIP3   OH272307   2.565   3.067  15.105 -0.1477 -0.0479  0.0150
16939TIP3    H172308   2.653   3.104  15.098  0.3794 -1.3405 -0.3664
16939TIP3    H272309   2.549   3.026  15.020 -1.1308  0.1650  0.0776
16940TIP3   OH272310   1.777   2.051   1.024 -0.2694  0.0197 -0.2174
16940TIP3    H172311   1.847   1.993   1.052  0.8639  2.1749  1.7936
16940TIP3    H272312   1.696   2.002   1.041  0.6387 -2.4555 -2.4493
16941TIP3   OH272313   6.160   2.457  13.205  0.3948  0.1264 -0.3329
16941TIP3    H172314   6.107   2.492  13.276  0.7902  1.0196 -0.4614
16941TIP3    H272315   6.173   2.365  13.227  1.0845  0.5529  1.1168
16942TIP3   OH272316   6.319   4.615   3.948  0.0006 -0.1150  0.1378
16942TIP3    H172317   6.412   4.616   3.925 -0.0123 -2.0151 -0.1999
16942TIP3    H272318   6.309   4.537   4.003 -1.3656  0.1914  0.3694
16943TIP3   OH272319   0.801   1.086   2.955 -0.1802  0.2357 -0.4604
16943TIP3    H172320   0.753   1.137   2.890  1.0003  2.4043  0.3057
16943TIP3    H272321   0.732   1.041   3.004 -1.3150  1.5210 -0.7989
16944TIP3   OH272322   2.923   1.442   0.031 -0.3126 -0.5296 -0.2337
16944TIP3    H172323   2.893   1.533   0.038  0.2828 -0.2589 -1.0837
16944TIP3    H272324   2.937   1.415   0.121  1.0827  0.7593 -0.0259
16945TIP3   OH272325   4.650   5.826   1.788 -0.6863  0.7184 -1.1641
16945TIP3    H172326   4.589   5.873   1.731 -0.5224  0.3022 -1.6865
16945TIP3    H272327   4.734   5.828   1.742 -0.2952  1.2829 -0.4539
16946TIP3   OH272328   4.444   6.558  13.631  0.0056 -0.1889 -0.1972
16946TIP3    H172329   4.361   6.606  13.625  0.9048  1.3211 -1.2753
16946TIP3    H272330   4.502   6.617  13.679  0.5814 -1.0470  0.1714
16947TIP3   OH272331   2.985   5.738   2.824 -0.4012 -0.3385  0.4835
16947TIP3    H172332   3.057   5.751   2.886 -0.5750 -0.0212  0.6191
16947TIP3    H272333   3.002   5.652   2.786  0.2590 -0.1113  0.2401
16948TIP3   OH272334   4.426   5.658   0.283  0.2963  0.9117 -0.2015
16948TIP3    H172335   4.427   5.659   0.187  1.6452  0.1855 -0.2156
16948TIP3    H272336   4.513   5.690   0.308  0.6825 -0.7454  0.7206
16949TIP3   OH272337   3.096   4.421  13.555  0.1278 -0.1921  0.1801
16949TIP3    H172338   3.093   4.473  13.475  0.3586  0.0026  0.2980
16949TIP3    H272339   3.188   4.420  13.581  0.1200 -0.6190  0.2063
16950TIP3   OH272340   2.063   3.357   0.195 -0.4760  0.3739 -0.4318
16950TIP3    H172341   2.155   3.331   0.195 -0.3173  0.8914 -1.4349
16950TIP3    H272342   2.015   3.280   0.165 -0.3227  0.2582 -0.3755
16951TIP3   OH272343   4.744   0.330   1.999  0.5124  0.2527 -0.1802
16951TIP3    H172344   4.655   0.298   2.008  1.2262 -1.8386  0.1343
16951TIP3    H272345   4.745   0.414   2.045 -0.9803 -0.2924  0.9280
16952TIP3   OH272346   3.763   6.119  11.923 -0.2864 -0.5350  0.0672
16952TIP3    H172347   3.856   6.131  11.940  0.2195 -1.6555 -1.6474
16952TIP3    H272348   3.731   6.206  11.903  0.1558  0.0096  1.5490
16953TIP3   OH272349   4.685   5.411   1.449  0.3891 -0.2682 -0.0809
16953TIP3    H172350   4.594   5.399   1.476  0.4185  0.0225  0.1614
16953TIP3    H272351   4.730   5.332   1.478  0.6952  0.5977  1.9950
16954TIP3   OH272352   3.035   5.908   1.669  0.2961 -0.4892  0.3640
16954TIP3    H172353   2.984   5.931   1.591 -0.2591 -0.7378  0.6458
16954TIP3    H272354   3.026   5.813   1.675  1.8653 -0.7058 -0.3079
16955TIP3   OH272355   1.125   2.264  14.121 -0.3090  0.6917  0.1895
16955TIP3    H172356   1.198   2.208  14.095 -1.1124 -0.7437  0.8775
16955TIP3    H272357   1.144   2.287  14.212 -1.3741 -0.8831  0.8505
16956TIP3   OH272358   1.635   0.539  15.996 -0.1838  0.2475 -0.2761
16956TIP3    H172359   1.663   0.483  15.924  0.7447  1.5394 -0.9665
16956TIP3    H272360   1.708   0.600  16.008 -1.3285  1.5757  0.1493
16957TIP3   OH272361   0.911   2.970  14.649 -0.1507  0.1784  0.2844
16957TIP3    H172362   0.918   3.056  14.691 -2.0016 -0.0609  1.1590
16957TIP3    H272363   0.956   2.910  14.709  1.4195  0.5251 -0.4764
16958TIP3   OH272364   4.173   0.480  11.201 -0.1723  0.4346 -0.3454
16958TIP3    H172365   4.130   0.539  11.263 -1.9174 -0.3740 -0.7335
16958TIP3    H272366   4.249   0.529  11.171 -1.7283  2.6495 -0.9115
16959TIP3   OH272367   5.730   3.619   5.906  0.1027 -0.6586 -0.3201
16959TIP3    H172368   5.715   3.527   5.885  0.1606 -1.0184  1.0843
16959TIP3    H272369   5.731   3.622   6.002 -0.3914  0.8915 -0.3312
16960TIP3   OH272370   1.933   2.581   5.596 -0.3189 -0.5097 -0.1013
16960TIP3    H172371   1.882   2.532   5.660 -1.0789 -0.0346 -0.3309
16960TIP3    H272372   1.923   2.533   5.514  1.9564 -2.0323  0.4047
16961TIP3   OH272373   3.921   0.566   0.147 -0.1978 -0.5762  0.4036
16961TIP3    H172374   3.967   0.559   0.231  0.6271 -0.4159 -0.0335
16961TIP3    H272375   3.844   0.620   0.167  0.5432  0.3439  0.8314
16962TIP3   OH272376   6.405   3.074   0.913 -0.5601  0.8079  0.1073
16962TIP3    H172377   6.448   3.107   0.834  0.2662 -0.7149 -0.1302
16962TIP3    H272378   6.459   3.104   0.985  0.2250 -0.0355 -0.1089
16963TIP3   OH272379   3.168   3.404   5.480  0.2170  0.4622 -0.2530
16963TIP3    H172380   3.247   3.352   5.463 -1.9903 -3.3447  0.0562
16963TIP3    H272381   3.165   3.412   5.575  0.3437  0.8748 -0.2802
16964TIP3   OH272382   0.308   3.026   2.565 -0.2868 -0.1279  0.4739
16964TIP3    H172383   0.362   3.094   2.604 -0.4450  0.2852 -0.0189
16964TIP3    H272384   0.343   3.015   2.477 -0.0965 -0.8738  0.6371
16965TIP3   OH272385   1.243   0.250   6.122 -0.0668 -0.3503  0.4604
16965TIP3    H172386   1.175   0.206   6.172 -1.0940 -0.8162 -1.2678
16965TIP3    H272387   1.298   0.291   6.188 -0.2092 -2.5414  2.0749
16966TIP3   OH272388   5.466   5.341  15.349  0.0688  0.3229  0.7516
16966TIP3    H172389   5.523   5.388  15.288  0.7409 -0.7195  0.5493
16966TIP3    H272390   5.378   5.351  15.313 -0.0765  2.7558  1.5650
16967TIP3   OH272391   0.918   2.480  14.075  0.8122  0.4073  0.6881
16967TIP3    H172392   0.881   2.422  14.141 -0.9554  0.6877  0.0030
16967TIP3    H272393   0.925   2.426  13.996 -0.1716  0.9185  0.2400
16968TIP3   OH272394   2.159   4.953  17.186  0.2904 -0.4047 -0.8206
16968TIP3    H172395   2.177   5.046  17.174 -0.9318 -0.2020 -1.2607
16968TIP3    H272396   2.100   4.950  17.262  0.6858 -0.8657 -0.5262
16969TIP3   OH272397   0.669   5.153  16.667  0.0260 -0.2466 -0.1737
16969TIP3    H172398   0.583   5.185  16.693  0.6522  1.1393  0.3164
16969TIP3    H272399   0.681   5.187  16.578 -0.3965 -1.4137 -0.6842
16970TIP3   OH272400   4.123   3.376  15.225 -0.0467  0.1253  0.3563
16970TIP3    H172401   4.177   3.339  15.294  0.0305 -0.9400 -0.2505
16970TIP3    H272402   4.047   3.318  15.220 -0.2351  0.4125 -0.1892
16971TIP3   OH272403   3.669   4.250   3.210 -0.2106  0.4901 -0.4528
16971TIP3    H172404   3.599   4.239   3.146  0.6257 -2.1797 -0.9987
16971TIP3    H272405   3.719   4.325   3.177 -1.1626  0.6659 -1.5837
16972TIP3   OH272406   4.008   2.577  11.369  0.7354 -0.3082 -0.7900
16972TIP3    H172407   3.923   2.598  11.409  1.1642  0.6163 -0.3258
16972TIP3    H272408   4.072   2.621  11.425  1.5109 -0.8686 -1.2262
16973TIP3   OH272409   5.024   4.260   0.850 -0.1107  0.1324  0.5954
16973TIP3    H172410   5.045   4.291   0.938 -0.6393  1.2624  0.3346
16973TIP3    H272411   4.954   4.196   0.863 -0.9359  1.0818  0.9175
16974TIP3   OH272412   2.112   2.890  12.938 -0.1105  0.0642 -0.0539
16974TIP3    H172413   2.061   2.858  12.864 -1.1934 -0.5291  0.9129
16974TIP3    H272414   2.059   2.868  13.015  1.1908  0.2391  0.9308
16975TIP3   OH272415   3.081   2.340  15.455  0.2924 -0.0930  0.8031
16975TIP3    H172416   3.110   2.411  15.397 -0.1653  0.2213  0.9469
16975TIP3    H272417   2.987   2.356  15.465  0.0020 -1.2658  0.0834
16976TIP3   OH272418   0.703   0.620   3.620 -0.4479 -0.0369  0.5905
16976TIP3    H172419   0.757   0.668   3.682 -0.0637 -1.5268  1.4692
16976TIP3    H272420   0.765   0.574   3.564 -0.7823 -0.8194  0.8436
16977TIP3   OH272421   1.045   4.714  15.182 -0.0588 -0.1391  0.1176
16977TIP3    H172422   0.972   4.721  15.121 -0.1451 -0.6250  0.1583
16977TIP3    H272423   1.033   4.787  15.243  0.4292  0.7815 -0.8557
16978TIP3   OH272424   2.445   2.622   2.452 -0.3928 -0.1808 -0.7987
16978TIP3    H172425   2.393   2.596   2.528  0.9919 -1.1899 -0.1447
16978TIP3    H272426   2.452   2.717   2.459  1.8762 -0.4162  1.9018
16979TIP3   OH272427   0.529   5.700  12.509 -0.2286  0.2293 -0.5104
16979TIP3    H172428   0.441   5.739  12.512 -0.9233 -1.2543 -0.1073
16979TIP3    H272429   0.534   5.647  12.589  0.8564 -0.0772 -0.7630
16980TIP3   OH272430   5.885   0.923  14.105 -0.2229 -0.0632 -0.0852
16980TIP3    H172431   5.826   0.942  14.178 -1.0989  0.4499 -0.9080
16980TIP3    H272432   5.970   0.956  14.133 -0.4028 -0.4267  0.9420
16981TIP3   OH272433   3.616   1.640   2.413 -0.3671 -0.2633 -0.0525
16981TIP3    H172434   3.681   1.577   2.445 -1.6656 -0.9455  1.3582
16981TIP3    H272435   3.535   1.617   2.458 -1.1036  1.9056 -0.1155
16982TIP3   OH272436   0.349   4.816   3.976  0.0016  0.2156  0.4364
16982TIP3    H172437   0.431   4.860   3.954 -0.6031  0.8387 -0.6465
16982TIP3    H272438   0.340   4.830   4.070  1.0996  0.1842  0.5645
16983TIP3   OH272439   4.045   4.157  11.575 -0.0449 -0.3752  0.2921
16983TIP3    H172440   4.037   4.215  11.650  1.9584 -0.9254  0.9885
16983TIP3    H272441   3.967   4.100  11.580 -1.6755  1.7027 -0.0129
16984TIP3   OH272442   1.657   3.387  12.848  0.4557 -0.0412  0.3199
16984TIP3    H172443   1.596   3.452  12.882  0.6301 -0.6881  1.9368
16984TIP3    H272444   1.717   3.438  12.792 -1.0998  0.7036 -0.7645
16985TIP3   OH272445   2.156   1.243   1.392  0.0045  0.1364  0.1067
16985TIP3    H172446   2.220   1.246   1.321  0.3633 -1.0085  0.3711
16985TIP3    H272447   2.170   1.325   1.440  0.4152  0.4679 -0.5638
16986TIP3   OH272448   4.788   6.225   1.582 -0.0463  0.2629 -0.5169
16986TIP3    H172449   4.753   6.150   1.533  1.0199  0.6817 -2.0129
16986TIP3    H272450   4.710   6.269   1.617 -0.7376 -1.0519 -0.3325
16987TIP3   OH272451   1.498   3.721   2.097  0.0851 -0.4785 -0.0977
16987TIP3    H172452   1.572   3.702   2.039  1.3424  3.5111 -0.0705
16987TIP3    H272453   1.427   3.743   2.037  0.5426  0.8530 -0.1788
16988TIP3   OH272454   3.279   0.931   0.856 -0.1214  0.4929  0.0544
16988TIP3    H172455   3.259   0.887   0.939  0.2201  1.0768  0.4547
16988TIP3    H272456   3.292   0.860   0.794 -0.1908  0.0434  0.5446
16989TIP3   OH272457   3.384   6.294   2.851  0.3232  0.1922 -0.0535
16989TIP3    H172458   3.360   6.208   2.887 -1.0951  1.2099  1.6116
16989TIP3    H272459   3.456   6.324   2.907  0.4121  0.3430 -0.2496
16990TIP3   OH272460   4.285   6.152   5.870  0.1958  0.1309  0.3740
16990TIP3    H172461   4.221   6.210   5.829  0.6063  0.2807 -0.0674
16990TIP3    H272462   4.342   6.124   5.798  2.0915  1.8840  1.0901
16991TIP3   OH272463   4.928   1.134  14.795  0.1500  0.2642  0.2396
16991TIP3    H172464   4.841   1.097  14.799 -0.0057  0.5256 -0.4599
16991TIP3    H272465   4.962   1.127  14.884  0.0328 -1.2933  0.1748
16992TIP3   OH272466   0.888   0.210  11.764 -0.1881  0.0670  0.4269
16992TIP3    H172467   0.885   0.294  11.810  1.8004  0.1952  0.3799
16992TIP3    H272468   0.878   0.144  11.833 -0.9242  0.3078  0.5588
16993TIP3   OH272469   5.086   4.398  10.815  0.4446 -0.6492 -0.5574
16993TIP3    H172470   5.082   4.424  10.723 -1.9533  0.5013 -0.2188
16993TIP3    H272471   5.115   4.477  10.860  0.8654 -0.9789 -0.2533
16994TIP3   OH272472   0.723   1.622   0.249  0.1002  0.5779 -0.0405
16994TIP3    H172473   0.755   1.532   0.245  1.6762  1.0697  0.7133
16994TIP3    H272474   0.675   1.634   0.167 -1.9435 -1.5660  0.7418
16995TIP3   OH272475   1.103   1.291   4.641 -0.2216 -0.0909 -0.1576
16995TIP3    H172476   1.083   1.353   4.711 -2.0620 -1.6275  0.7730
16995TIP3    H272477   1.181   1.245   4.672  0.1812  0.6058 -0.0989
16996TIP3   OH272478   2.779   3.181   2.846  0.4104 -0.4915  0.0488
16996TIP3    H172479   2.795   3.105   2.902  0.0931 -1.0418 -0.6007
16996TIP3    H272480   2.864   3.224   2.839  0.4984 -0.5249  0.7793
16997TIP3   OH272481   3.246   1.993  12.698 -0.4655  0.5426 -0.4527
16997TIP3    H172482   3.200   2.035  12.624 -2.2903  0.2125  0.4375
16997TIP3    H272483   3.332   2.035  12.699 -1.7502  3.3927 -0.3924
16998TIP3   OH272484   4.629   3.669   1.283  0.2717 -0.7926  0.4120
16998TIP3    H172485   4.588   3.596   1.329 -1.2330 -1.4437 -1.8345
16998TIP3    H272486   4.715   3.635   1.256 -0.0219 -1.3968  0.2335
16999TIP3   OH272487   0.721   2.287  11.240 -0.2821  0.0502  0.0966
16999TIP3    H172488   0.741   2.202  11.199 -0.3651  0.4827 -0.8520
16999TIP3    H272489   0.629   2.281  11.265 -0.2325 -0.2103  0.2227
17000TIP3   OH272490   2.893   6.023  13.653 -0.5258  0.0487  0.0219
17000TIP3    H172491   2.832   6.043  13.724 -0.8211  1.2351 -0.5490
17000TIP3    H272492   2.915   5.930  13.666 -0.5954  0.2351  1.6217
17001TIP3   OH272493   0.752   5.087  15.555  0.1972 -0.0080  0.1247
17001TIP3    H172494   0.790   5.107  15.469  1.1213  2.6178  1.0711
17001TIP3    H272495   0.827   5.060  15.608 -0.0282  0.5105  0.7036
17002TIP3   OH272496   5.304   6.193  16.335 -0.3659 -0.2407  0.1258
17002TIP3    H172497   5.283   6.192  16.429  1.2328  0.3454  0.5270
17002TIP3    H272498   5.226   6.228  16.293 -0.4600  1.2169  1.4422
17003TIP3   OH272499   5.661   5.578  14.875 -0.1521 -0.0811 -0.3283
17003TIP3    H172500   5.666   5.501  14.819 -2.0464  0.7450 -1.8015
17003TIP3    H272501   5.680   5.651  14.816  0.8427  0.6397  0.8493
17004TIP3   OH272502   3.422   1.571  15.552  0.2669  0.2503  0.2342
17004TIP3    H172503   3.404   1.491  15.503  0.9045  0.1953  0.0693
17004TIP3    H272504   3.342   1.622  15.546  0.5920  0.6326 -1.6490
17005TIP3   OH272505   5.243   1.909  16.947 -0.2213  0.1071  0.0161
17005TIP3    H172506   5.333   1.880  16.960 -1.0206 -1.2766  3.5559
17005TIP3    H272507   5.204   1.840  16.893  0.9838  1.3514 -2.6808
17006TIP3   OH272508   6.755   5.371   1.207 -0.4822  0.0380  0.0052
17006TIP3    H172509   6.812   5.356   1.131  1.1199  1.1922  0.8915
17006TIP3    H272510   6.672   5.330   1.185  0.4029 -0.8793 -1.7730
17007TIP3   OH272511   0.087   5.093  11.298 -0.1871 -0.1930 -0.3677
17007TIP3    H172512   0.075   5.182  11.265 -0.2104  0.2854  0.8769
17007TIP3    H272513   0.157   5.056  11.245 -1.1730  0.0477 -1.8769
17008TIP3   OH272514   6.812   1.564  11.115  0.1429 -0.2929 -0.2012
17008TIP3    H172515   6.814   1.485  11.061 -0.8254  0.8556 -2.0060
17008TIP3    H272516   6.720   1.593  11.113  0.7521  1.7421 -0.9112
17009TIP3   OH272517   2.246   1.549   5.392  0.0874  0.6036 -0.2390
17009TIP3    H172518   2.160   1.509   5.408  0.0916  0.4915 -0.4996
17009TIP3    H272519   2.258   1.544   5.298  1.0039 -0.7042 -0.0792
17010TIP3   OH272520   1.390   5.021   2.045  0.1483  0.3753  0.3450
17010TIP3    H172521   1.414   5.101   2.091  0.5740  0.4465  0.0048
17010TIP3    H272522   1.324   4.980   2.101 -0.7880  1.4390  0.0366
17011TIP3   OH272523   0.469   4.965  17.184  0.4461 -0.0963 -0.8149
17011TIP3    H172524   0.502   4.876  17.177  4.2764  1.1902 -1.7279
17011TIP3    H272525   0.499   4.995  17.270  2.0438  1.1940 -1.7522
17012TIP3   OH272526   2.716   2.249   6.713  0.1776 -0.5098 -0.2434
17012TIP3    H172527   2.652   2.297   6.659  1.1105  1.0012 -0.0828
17012TIP3    H272528   2.739   2.172   6.660  0.1007  0.2518 -1.4391
17013TIP3   OH272529   4.834   1.304  14.391  0.1793 -0.4066 -0.5593
17013TIP3    H172530   4.801   1.218  14.421 -0.2378  0.2269  0.9080
17013TIP3    H272531   4.929   1.294  14.389  0.0864 -1.2973 -1.7363
17014TIP3   OH272532   6.034   3.985   5.291 -0.0410  0.0447 -0.1068
17014TIP3    H172533   5.989   3.919   5.344 -0.1898 -0.2136 -0.5568
17014TIP3    H272534   6.109   3.939   5.253  0.0854  0.2413 -0.1013
17015TIP3   OH272535   0.763   1.940   0.220 -0.0303  0.6351 -0.2089
17015TIP3    H172536   0.808   2.016   0.256  0.1510  1.9383 -2.9153
17015TIP3    H272537   0.833   1.879   0.197  0.3175  1.7867 -2.4993
17016TIP3   OH272538   2.270   3.389  11.309 -0.6014  0.0943 -0.0633
17016TIP3    H172539   2.248   3.363  11.220  1.5670 -0.9314 -0.3780
17016TIP3    H272540   2.221   3.470  11.324 -2.9887 -1.0565 -1.2230
17017TIP3   OH272541   3.464   2.805   2.800 -0.0149 -0.1075  0.1883
17017TIP3    H172542   3.424   2.857   2.730  1.2293  0.9555  0.2331
17017TIP3    H272543   3.471   2.717   2.763 -1.5535 -0.1371 -0.1309
17018TIP3   OH272544   2.806   3.225  14.045  0.2201  0.2061 -0.1476
17018TIP3    H172545   2.737   3.159  14.035 -1.4947  1.7893  0.7001
17018TIP3    H272546   2.881   3.176  14.080 -0.9558 -1.2966  0.3812
17019TIP3   OH272547   4.362   0.165   0.851  0.5259  1.3029 -0.5679
17019TIP3    H172548   4.445   0.126   0.824 -0.0605  0.8461 -1.8212
17019TIP3    H272549   4.383   0.258   0.863  1.0461  1.3848 -1.8361
17020TIP3   OH272550   3.209   2.099   5.940 -0.2148 -0.3421 -0.4289
17020TIP3    H172551   3.208   2.195   5.939 -0.9358 -0.3177  0.9137
17020TIP3    H272552   3.302   2.076   5.937 -0.0616  0.3410 -2.4057
17021TIP3   OH272553   6.032   1.320   6.229 -0.0498 -0.1042  0.8050
17021TIP3    H172554   6.065   1.372   6.302 -0.5131 -0.4696  1.2791
17021TIP3    H272555   6.101   1.257   6.211 -0.2936 -0.5760  1.4989
17022TIP3   OH272556   4.731   4.365   0.910  0.2241 -0.3895 -0.1078
17022TIP3    H172557   4.638   4.390   0.909  0.4316  0.4685 -1.5296
17022TIP3    H272558   4.730   4.270   0.905 -0.5974 -0.3602 -0.7611
17023TIP3   OH272559   1.761   4.605  12.372 -0.3053  0.5657  0.1708
17023TIP3    H172560   1.679   4.627  12.328 -0.3140 -0.3837 -0.3100
17023TIP3    H272561   1.828   4.609  12.303 -0.5519 -2.5065 -0.4054
17024TIP3   OH272562   0.854   2.066  12.665  0.2589  0.1800 -1.1175
17024TIP3    H172563   0.847   2.072  12.761 -0.7956 -1.1193 -1.0919
17024TIP3    H272564   0.847   2.157  12.635  0.4805  0.5930  0.0214
17025TIP3   OH272565   0.747   3.683  13.821  0.1751 -0.4587  0.0112
17025TIP3    H172566   0.783   3.650  13.738  0.3337  2.1667 -1.0685
17025TIP3    H272567   0.671   3.627  13.837  0.3147 -1.2445 -1.7528
17026TIP3   OH272568   2.465   4.488   3.160 -0.4222 -0.1680 -0.1926
17026TIP3    H172569   2.536   4.503   3.222 -0.4822  0.7858 -0.3421
17026TIP3    H272570   2.496   4.527   3.078 -0.6847 -0.6894 -0.5465
17027TIP3   OH272571   4.244   1.796   0.602 -0.5444 -0.1410  0.2674
17027TIP3    H172572   4.309   1.808   0.533 -0.2884  0.9498  0.6717
17027TIP3    H272573   4.192   1.877   0.600 -2.6417 -1.4356 -0.7979
17028TIP3   OH272574   4.621   5.673  10.177 -0.1807 -0.0388 -0.2258
17028TIP3    H172575   4.624   5.703  10.267  0.0048 -0.1807 -0.1827
17028TIP3    H272576   4.556   5.602  10.177  2.5922 -2.8391  0.6808
17029TIP3   OH272577   3.875   2.708  13.958 -0.3134  0.2140 -0.2838
17029TIP3    H172578   3.893   2.797  13.925 -2.9079 -0.3140 -3.5869
17029TIP3    H272579   3.854   2.721  14.050 -2.1937  3.3397 -1.0085
17030TIP3   OH272580   0.429   2.654  11.294 -0.1219  0.3465  0.3435
17030TIP3    H172581   0.497   2.686  11.235  0.3211 -1.2128 -0.0411
17030TIP3    H272582   0.477   2.621  11.370 -0.3631 -1.1713 -0.1202
17031TIP3   OH272583   0.408   6.407   1.746 -0.0382 -0.0154  0.1877
17031TIP3    H172584   0.364   6.323   1.759  0.8881 -0.7067 -0.9672
17031TIP3    H272585   0.452   6.424   1.830  0.4721 -1.1311  0.1664
17032TIP3   OH272586   4.186   1.417  17.086  0.1389  0.1859  0.1899
17032TIP3    H172587   4.100   1.458  17.078 -1.5454 -2.6580  2.0987
17032TIP3    H272588   4.176   1.331  17.047  1.5789 -0.8504  1.9701
17033TIP3   OH272589   1.120   3.237  15.809  0.0667 -0.2785 -0.1079
17033TIP3    H172590   1.191   3.219  15.748  0.7115  0.8464  0.2780
17033TIP3    H272591   1.156   3.218  15.895 -0.7150 -1.4879 -0.0225
17034TIP3   OH272592   6.203   2.529   1.631 -0.3977  0.2413 -0.0707
17034TIP3    H172593   6.210   2.516   1.536 -0.3943  1.7249 -0.2991
17034TIP3    H272594   6.246   2.452   1.669 -0.5615 -0.4635 -1.2631
17035TIP3   OH272595   1.388   5.225  15.075  0.0779  0.2605 -0.1076
17035TIP3    H172596   1.337   5.169  15.134  1.6324  1.2790  2.3615
17035TIP3    H272597   1.472   5.179  15.066  0.0692  0.4154 -1.0852
17036TIP3   OH272598   5.562   3.879  11.918  0.0134  0.1550  0.2778
17036TIP3    H172599   5.649   3.915  11.937 -0.2593  0.5077  0.8971
17036TIP3    H272600   5.505   3.918  11.984 -0.3759 -1.0893  0.7148
17037TIP3   OH272601   0.875   6.569  12.002 -0.6319  0.3621  0.5071
17037TIP3    H172602   0.926   6.488  12.003  1.2515  1.4667 -1.1158
17037TIP3    H272603   0.893   6.610  12.086  0.1209  0.1100  0.4734
17038TIP3   OH272604   6.130   5.701  16.600 -0.1336 -0.6568 -0.3371
17038TIP3    H172605   6.137   5.793  16.624 -1.1532 -0.9979  1.4837
17038TIP3    H272606   6.218   5.677  16.571  0.2130  0.8083 -0.5858
17039TIP3   OH272607   4.158   2.207  10.713  0.1896 -0.4397  0.2272
17039TIP3    H172608   4.132   2.133  10.658 -1.2741 -2.4317  3.2961
17039TIP3    H272609   4.215   2.168  10.780  2.4543  1.9760 -0.1138
17040TIP3   OH272610   4.025   3.898  13.785 -0.0411 -0.7528  0.5882
17040TIP3    H172611   4.107   3.908  13.736 -0.3228 -0.9598  0.0670
17040TIP3    H272612   4.009   3.804  13.787  0.2643 -0.7881  1.5830
17041TIP3   OH272613   0.461   5.921  16.393  0.3008  0.2550  0.0822
17041TIP3    H172614   0.376   5.965  16.385  0.2941  0.3043  0.4084
17041TIP3    H272615   0.492   5.944  16.480  1.2177  1.2417 -0.4864
17042TIP3   OH272616   1.632   1.715   0.260  0.0924 -1.2324  0.0529
17042TIP3    H172617   1.629   1.684   0.350  0.9428 -1.2137  0.0919
17042TIP3    H272618   1.692   1.790   0.262 -2.6940  1.2166  0.1826
17043TIP3   OH272619   1.572   2.965  13.891  0.3857 -0.1034 -0.2731
17043TIP3    H172620   1.478   2.947  13.896 -0.1364  1.7467 -1.9723
17043TIP3    H272621   1.577   3.052  13.853  2.8235 -0.2976 -0.5272
17044TIP3   OH272622   0.684   1.291  17.201 -0.2125 -0.2133  0.1538
17044TIP3    H172623   0.723   1.312  17.286 -0.4047 -1.2019  0.5051
17044TIP3    H272624   0.594   1.324  17.208  0.3156  1.4573 -0.4086
17045TIP3   OH272625   0.377   2.101   4.518  0.1990  0.3478 -0.2792
17045TIP3    H172626   0.430   2.166   4.564 -0.1667  1.1157 -0.9179
17045TIP3    H272627   0.366   2.030   4.581  0.8321  0.7858  0.3394
17046TIP3   OH272628   0.115   1.168   1.450 -0.1102  0.1669  0.4625
17046TIP3    H172629   0.088   1.080   1.423  1.2241 -0.2130  0.2464
17046TIP3    H272630   0.039   1.205   1.493 -1.1118 -0.6246 -0.5667
17047TIP3   OH272631   0.387   6.271  17.207 -0.1455  0.2158  0.2688
17047TIP3    H172632   0.295   6.282  17.181 -0.5036  0.3766  1.5306
17047TIP3    H272633   0.390   6.304  17.297  1.1845  0.3249  0.1950
17048TIP3   OH272634   1.120   4.738  13.618  0.8564  0.0361 -0.2602
17048TIP3    H172635   1.203   4.696  13.640  0.5704 -0.5948 -0.3725
17048TIP3    H272636   1.142   4.797  13.545  1.1296 -0.4156 -0.5517
17049TIP3   OH272637   0.178   3.362  15.014 -0.2924  0.1470 -0.4243
17049TIP3    H172638   0.087   3.339  15.035 -0.1340  0.3297  0.4656
17049TIP3    H272639   0.171   3.438  14.956 -0.6661  1.4869  1.3186
17050TIP3   OH272640   6.220   6.805   5.855  0.3482 -0.2711  0.9503
17050TIP3    H172641   6.241   6.734   5.794  1.8682  0.2478  0.8140
17050TIP3    H272642   6.287   6.798   5.924 -0.1569  0.3465  1.5168
17051TIP3   OH272643   6.187   1.293   0.334 -0.6124  0.5628 -0.2687
17051TIP3    H172644   6.244   1.366   0.357 -0.2990  0.3401 -0.3348
17051TIP3    H272645   6.245   1.228   0.293 -0.4706 -0.6261  1.6696
17052TIP3   OH272646   2.154   5.283   3.861  0.4196 -0.1410 -0.0070
17052TIP3    H172647   2.102   5.295   3.782 -2.5024  0.5344  1.8677
17052TIP3    H272648   2.186   5.371   3.882 -0.0437 -0.0445  0.3179
17053TIP3   OH272649   0.052   4.181  14.995 -0.1227 -0.2708 -0.2042
17053TIP3    H172650  -0.026   4.237  15.004 -0.1533 -0.2665 -0.5020
17053TIP3    H272651   0.125   4.237  15.021  0.0693  0.4903 -2.2267
17054TIP3   OH272652   1.889   0.897  13.325 -0.5507 -0.0025 -0.5647
17054TIP3    H172653   1.884   0.950  13.405  1.7882 -1.1344  0.4020
17054TIP3    H272654   1.957   0.832  13.343 -1.2313 -1.4373 -2.8333
17055TIP3   OH272655   2.115   4.270   0.923 -0.1295  0.1210 -0.4134
17055TIP3    H172656   2.132   4.250   1.015 -2.2718 -1.0624 -0.1946
17055TIP3    H272657   2.144   4.193   0.875  2.7333  1.4653 -1.0328
17056TIP3   OH272658   2.367   0.312  11.417 -0.2317  0.1772 -0.0115
17056TIP3    H172659   2.278   0.278  11.418 -0.6711  1.0451 -2.6224
17056TIP3    H272660   2.421   0.237  11.443 -1.6414 -0.4776  1.1766
17057TIP3   OH272661   6.379   1.512   2.299  0.3054 -0.1701 -0.5267
17057TIP3    H172662   6.443   1.565   2.347  0.1897 -0.2374 -0.2970
17057TIP3    H272663   6.297   1.562   2.306  0.3741  0.0117 -0.9836
17058TIP3   OH272664   5.771   1.720   5.260  0.2983 -0.2292 -0.0794
17058TIP3    H172665   5.793   1.628   5.275 -1.4179 -0.4124  1.7719
17058TIP3    H272666   5.795   1.764   5.342 -0.3934  0.6663 -0.3477
17059TIP3   OH272667   1.130   1.095  15.777  0.0032  1.0503  0.6121
17059TIP3    H172668   1.162   1.138  15.698  0.0422 -1.3198 -0.7635
17059TIP3    H272669   1.194   1.116  15.844  1.7956  0.4741 -0.8358
17060TIP3   OH272670   5.836   1.237  14.936  0.0173 -0.1392  0.1654
17060TIP3    H172671   5.838   1.147  14.969  0.8692  0.3469  1.5516
17060TIP3    H272672   5.890   1.236  14.858  4.3171  0.0558  2.8305
17061TIP3   OH272673   1.571   6.781  13.294 -0.2949 -0.1157 -0.2970
17061TIP3    H172674   1.635   6.730  13.343  2.5319  0.9380 -2.5306
17061TIP3    H272675   1.514   6.819  13.360  2.7601  0.6023  2.1720
17062TIP3   OH272676   2.469   3.164   4.531  0.0985 -0.1638 -0.1920
17062TIP3    H172677   2.408   3.172   4.458  1.2108 -0.6710 -1.2151
17062TIP3    H272678   2.435   3.093   4.584 -0.9083  0.4316 -0.0201
17063TIP3   OH272679   2.601   0.694   1.779  0.4222  0.2037  0.0495
17063TIP3    H172680   2.696   0.682   1.780  0.4237  0.2588  0.6571
17063TIP3    H272681   2.587   0.777   1.825  0.0514 -0.0091  0.3244
17064TIP3   OH272682   4.767   6.389  15.464 -0.1275 -0.1634  0.0829
17064TIP3    H172683   4.773   6.453  15.394 -2.1824  0.5585  0.4850
17064TIP3    H272684   4.827   6.422  15.532 -0.7844  1.1130  0.0850
17065TIP3   OH272685   0.468   5.049  13.352  1.2463  0.6262  0.2912
17065TIP3    H172686   0.384   5.014  13.321 -0.5261  4.9448 -0.4690
17065TIP3    H272687   0.532   5.017  13.288 -0.4081 -0.0542 -1.1061
17066TIP3   OH272688   4.796   4.972  15.555  0.2233  1.1035 -0.1848
17066TIP3    H172689   4.864   4.973  15.488  0.0427 -0.0613 -0.3973
17066TIP3    H272690   4.758   5.060  15.551  0.6624  1.2629 -1.1425
17067TIP3   OH272691   5.263   0.700  14.666 -0.0296 -0.7645 -0.5060
17067TIP3    H172692   5.190   0.710  14.727  0.8158 -0.6565  0.5090
17067TIP3    H272693   5.269   0.785  14.623  0.1647 -0.4241  0.1758
17068TIP3   OH272694   6.547   0.275  16.725  0.0346  0.9121 -0.1063
17068TIP3    H172695   6.516   0.318  16.645 -2.3644 -1.2540 -0.4478
17068TIP3    H272696   6.469   0.268  16.780  0.9229 -0.6429  1.0103
17069TIP3   OH272697   3.933   2.795  11.799  0.4040  0.6985  0.7494
17069TIP3    H172698   4.025   2.782  11.820  1.1466  2.6378 -0.9764
17069TIP3    H272699   3.930   2.877  11.749 -2.2319  0.6090  0.5817
17070TIP3   OH272700   2.613   6.452  13.553 -0.2759  0.0259  0.2853
17070TIP3    H172701   2.660   6.454  13.470 -1.2647 -1.3161 -0.3336
17070TIP3    H272702   2.621   6.542  13.587 -2.6145  1.5736 -2.8109
17071TIP3   OH272703   4.465   3.612   0.681  0.3355  0.0266  0.7110
17071TIP3    H172704   4.489   3.604   0.589  1.8891  1.0426  0.9946
17071TIP3    H272705   4.419   3.530   0.701  0.2502 -0.3434 -0.8684
17072TIP3   OH272706   5.208   3.610   2.212  0.2325  0.2529 -0.6552
17072TIP3    H172707   5.272   3.605   2.284  1.8378 -1.3422 -2.0946
17072TIP3    H272708   5.136   3.553   2.240 -0.2320  1.3814  0.5983
17073TIP3   OH272709   1.367   3.272   4.607 -0.5730 -0.3633  0.2393
17073TIP3    H172710   1.404   3.211   4.671  3.1746 -2.6117 -3.5196
17073TIP3    H272711   1.413   3.354   4.624 -0.9599 -0.3787  1.4613
17074TIP3   OH272712   6.701   6.457  14.291  0.0800 -0.1758  0.1673
17074TIP3    H172713   6.691   6.499  14.205 -2.0110  0.0191  0.4534
17074TIP3    H272714   6.796   6.442  14.299  0.6773  2.4198 -0.9224
17075TIP3   OH272715   2.142   1.979   2.051  0.0062 -0.2066  0.0504
17075TIP3    H172716   2.170   2.062   2.090 -2.5196  0.3330  0.8752
17075TIP3    H272717   2.071   2.003   1.991  1.6750 -1.4029 -2.6046
17076TIP3   OH272718   1.586   1.060  11.021  0.1569 -0.3966 -0.3351
17076TIP3    H172719   1.660   1.035  10.966 -0.9618 -1.0566 -1.5714
17076TIP3    H272720   1.547   1.135  10.976  0.5233  0.4710  0.7385
17077TIP3   OH272721   0.572   0.674  14.837  0.0832  0.0307  0.6200
17077TIP3    H172722   0.504   0.608  14.821 -0.9213  1.4955 -1.6646
17077TIP3    H272723   0.654   0.628  14.823 -0.5542 -1.0495  0.3215
17078TIP3   OH272724   6.240   6.221   4.205 -0.6451 -0.1091  0.1312
17078TIP3    H172725   6.202   6.252   4.123  1.5493 -0.2201 -1.0122
17078TIP3    H272726   6.193   6.269   4.273 -0.5037  2.3191 -1.3546
17079TIP3   OH272727   1.091   5.200   3.478 -0.3815 -0.0555 -0.0884
17079TIP3    H172728   1.172   5.189   3.428 -1.2264 -0.3374 -1.4482
17079TIP3    H272729   1.119   5.206   3.569  1.2979  1.4563 -0.6498
17080TIP3   OH272730   1.332   4.267   5.056  0.2933 -0.5436 -0.0915
17080TIP3    H172731   1.324   4.356   5.021  0.4731 -0.7630 -0.6894
17080TIP3    H272732   1.374   4.217   4.986  1.2631 -0.8292  0.6704
17081TIP3   OH272733   4.775   5.935   6.721 -0.6321 -0.3341 -0.3344
17081TIP3    H172734   4.718   5.967   6.791 -0.7288 -0.0635 -0.5378
17081TIP3    H272735   4.797   6.013   6.670  0.3159 -0.3486  0.0287
17082TIP3   OH272736   4.663   2.918   3.804 -0.2423  1.1488  0.1197
17082TIP3    H172737   4.742   2.886   3.762  0.7703  1.9760  1.3118
17082TIP3    H272738   4.663   3.012   3.787 -0.8677  1.1795  0.2756
17083TIP3   OH272739   6.345   2.979  11.669 -0.9831  0.4374 -0.4868
17083TIP3    H172740   6.428   2.964  11.625  0.2070 -1.2240  2.0860
17083TIP3    H272741   6.288   2.909  11.637 -0.4561 -0.1427 -0.1837
17084TIP3   OH272742   4.081   4.800   2.532  0.4279  0.5941  0.0425
17084TIP3    H172743   4.030   4.771   2.607  0.0967 -0.1132 -0.4498
17084TIP3    H272744   4.033   4.769   2.456  2.1215 -1.0458 -0.4335
17085TIP3   OH272745   5.980   2.651  10.767  0.3568  0.5697 -0.8426
17085TIP3    H172746   5.987   2.747  10.765 -0.7365  0.6960  0.1840
17085TIP3    H272747   6.024   2.625  10.848 -0.5927  0.3424 -0.3904
17086TIP3   OH272748   0.237   1.718   3.194  0.3688 -0.7341  0.4969
17086TIP3    H172749   0.216   1.625   3.190 -0.3556 -0.7047  2.3660
17086TIP3    H272750   0.327   1.724   3.163 -0.4093 -1.6711 -2.1813
17087TIP3   OH272751   1.144   5.075  13.120 -0.7665  0.2064  0.1059
17087TIP3    H172752   1.159   5.083  13.214 -3.4053  0.9827  0.5572
17087TIP3    H272753   1.052   5.101  13.108 -0.6029 -0.1470 -2.6542
17088TIP3   OH272754   1.550   4.379  12.230 -0.3457  0.5581 -0.5406
17088TIP3    H172755   1.587   4.465  12.250 -1.3941  0.5005  2.1192
17088TIP3    H272756   1.587   4.321  12.297 -2.2512 -0.2926 -0.1463
17089TIP3   OH272757   1.636   6.344   2.853 -0.1694 -0.1495 -0.5261
17089TIP3    H172758   1.575   6.273   2.872  1.2576 -1.4419 -0.5278
17089TIP3    H272759   1.717   6.318   2.898  0.0243  2.1501  0.5982
17090TIP3   OH272760   1.685   5.158  13.692 -0.2137  0.1266 -0.1426
17090TIP3    H172761   1.618   5.148  13.625 -2.4631  1.0158  1.8161
17090TIP3    H272762   1.700   5.252  13.698  1.3627 -0.0597 -0.6232
17091TIP3   OH272763   5.541   0.915   2.111 -0.3211  0.2466 -0.0072
17091TIP3    H172764   5.542   0.858   2.034  2.1336  2.1543 -1.5595
17091TIP3    H272765   5.586   0.865   2.179  0.7316 -0.1409 -0.9645
17092TIP3   OH272766   2.371   6.147   6.073 -0.2600 -0.2609  0.4489
17092TIP3    H172767   2.418   6.220   6.032  0.6394 -1.6956 -1.1778
17092TIP3    H272768   2.402   6.146   6.163  1.9834 -0.4550 -0.2870
17093TIP3   OH272769   6.633   3.698   3.862 -0.0449  0.4436 -0.5238
17093TIP3    H172770   6.607   3.644   3.937 -0.3030  0.0227 -0.9098
17093TIP3    H272771   6.658   3.635   3.795  2.2549  0.8046 -0.1125
17094TIP3   OH272772   2.830   1.089   4.225 -0.3522 -0.3116  0.4716
17094TIP3    H172773   2.834   1.069   4.132  0.1597  1.2181  0.1253
17094TIP3    H272774   2.877   1.017   4.268  0.7209 -0.2766 -0.5913
17095TIP3   OH272775   2.352   4.180   4.372 -0.1375 -0.7309  0.0916
17095TIP3    H172776   2.392   4.265   4.388 -2.1192  0.1724  0.6148
17095TIP3    H272777   2.339   4.176   4.278 -2.4477  0.8052  0.2582
17096TIP3   OH272778   1.921   1.821   2.905 -0.1646  0.0736 -0.2821
17096TIP3    H172779   1.945   1.746   2.850  2.1867  1.0202 -0.6578
17096TIP3    H272780   1.841   1.793   2.950  0.1315 -2.2959 -1.1024
17097TIP3   OH272781   4.788   3.948   1.307 -0.1321 -0.2825 -0.1019
17097TIP3    H172782   4.763   4.039   1.294  2.7001  0.6374  0.4365
17097TIP3    H272783   4.735   3.919   1.382  1.9401  2.3310  2.5998
17098TIP3   OH272784   3.686   3.003  11.930  0.1342  0.3834  0.3823
17098TIP3    H172785   3.741   2.942  11.881  0.1770  0.1545  0.7092
17098TIP3    H272786   3.731   3.014  12.014  0.4045  1.2795  0.1329
17099TIP3   OH272787   0.966   5.338   5.768  0.2584 -0.0010  0.4140
17099TIP3    H172788   0.902   5.408   5.752 -0.2320  0.4179  3.4623
17099TIP3    H272789   0.914   5.259   5.780  0.8345 -1.1370 -3.3840
17100TIP3   OH272790   6.386   1.244  15.166  0.3361 -0.0682  0.0702
17100TIP3    H172791   6.381   1.158  15.125  1.0151  0.3740 -0.9789
17100TIP3    H272792   6.296   1.275  15.168  0.3779  0.2846 -1.9698
17101TIP3   OH272793   6.143   0.637  12.054 -0.2451  0.0138  0.5310
17101TIP3    H172794   6.110   0.557  12.097  0.6715 -0.6749 -0.0208
17101TIP3    H272795   6.175   0.691  12.126 -1.3501  0.1365  0.9627
17102TIP3   OH272796   2.472   0.455  11.663  0.7598 -0.4198 -0.1289
17102TIP3    H172797   2.443   0.398  11.592 -0.8342 -0.6687  0.6822
17102TIP3    H272798   2.560   0.484  11.637  0.3271 -0.7381 -2.0446
17103TIP3   OH272799   6.033   2.899   5.638 -0.3711  0.2445  0.1518
17103TIP3    H172800   6.077   2.972   5.681  0.1033  1.1803 -1.8260
17103TIP3    H272801   6.017   2.836   5.709 -0.3040  1.9949  1.8029
17104TIP3   OH272802   4.310   4.102  13.426 -0.0821  0.6306  0.2909
17104TIP3    H172803   4.263   4.165  13.481  0.0796 -0.2853  1.5028
17104TIP3    H272804   4.317   4.146  13.341  0.3669  2.4156  1.1986
17105TIP3   OH272805   5.571   2.270   2.449  0.0625 -0.2582  0.1185
17105TIP3    H172806   5.655   2.259   2.405 -0.5992 -0.1915 -1.2499
17105TIP3    H272807   5.574   2.359   2.485  0.2334  0.0920 -0.7348
17106TIP3   OH272808   5.350   2.582  15.374 -0.3418 -0.2896  0.4270
17106TIP3    H172809   5.412   2.527  15.325 -1.1961 -1.1384  0.2766
17106TIP3    H272810   5.330   2.531  15.452 -2.3146 -0.9216 -0.4403
17107TIP3   OH272811   3.045   4.208  17.047 -0.2840  0.0326 -0.2478
17107TIP3    H172812   3.083   4.216  16.960 -1.5285 -0.2135 -0.8412
17107TIP3    H272813   2.980   4.279  17.052 -0.3423 -0.0546  0.4107
17108TIP3   OH272814   0.812   5.049  13.352  0.3997  0.3194 -0.1109
17108TIP3    H172815   0.815   5.044  13.447 -0.0041 -0.0312 -0.1097
17108TIP3    H272816   0.865   5.126  13.329 -0.8538  1.4007  0.4977
17109TIP3   OH272817   6.638   0.587  16.784 -0.4453  0.2393  0.0531
17109TIP3    H172818   6.658   0.615  16.873 -0.4541  0.8669 -0.1334
17109TIP3    H272819   6.677   0.500  16.776  0.6250  0.6770  0.2829
17110TIP3   OH272820   1.096   6.598   3.273 -0.3301  0.2278  0.0957
17110TIP3    H172821   1.029   6.544   3.231 -0.1423 -0.0527  0.1536
17110TIP3    H272822   1.144   6.538   3.330  0.4216  0.2737 -0.4741
17111TIP3   OH272823   3.043   4.369  12.402 -0.4559  0.4954 -0.2065
17111TIP3    H172824   3.079   4.435  12.460 -0.2765  0.7010 -0.5486
17111TIP3    H272825   3.073   4.286  12.439  1.3251  0.7030 -1.0979
17112TIP3   OH272826   5.973   1.402  16.664 -0.1275  0.7249  0.0534
17112TIP3    H172827   5.948   1.469  16.727 -0.5074  0.8805 -0.2581
17112TIP3    H272828   5.890   1.375  16.624 -0.0873 -0.5763  0.8099
17113TIP3   OH272829   1.835   0.828   1.801 -0.2725  0.4039 -0.7795
17113TIP3    H172830   1.852   0.750   1.852 -0.7877  0.4425 -0.5371
17113TIP3    H272831   1.907   0.887   1.821  0.0284  0.0569 -0.8374
17114TIP3   OH272832   5.179   2.333   5.553 -0.0465  0.1206 -0.2922
17114TIP3    H172833   5.256   2.320   5.498  0.1994  0.7520 -0.1074
17114TIP3    H272834   5.104   2.315   5.496  0.2439 -1.2884 -0.2625
17115TIP3   OH272835   1.993   0.607  15.099  0.1420 -0.2768  0.3610
17115TIP3    H172836   2.086   0.623  15.116  0.0632 -1.9971  2.8953
17115TIP3    H272837   1.984   0.512  15.105 -1.7246 -0.1798 -0.3282
17116TIP3   OH272838   4.529   2.416  11.402  0.3984 -0.1421  0.0225
17116TIP3    H172839   4.532   2.343  11.464 -1.3418  0.8124  1.3180
17116TIP3    H272840   4.490   2.379  11.323  0.0603 -0.7583  0.4702
17117TIP3   OH272841   6.124   4.434   2.775 -0.0114  0.0712 -0.3743
17117TIP3    H172842   6.150   4.415   2.685  2.6225 -2.4564  0.7652
17117TIP3    H272843   6.039   4.392   2.785 -0.2622  0.2555 -1.6307
17118TIP3   OH272844   6.788   2.469  14.871 -0.0372 -0.3981 -0.3594
17118TIP3    H172845   6.800   2.561  14.847 -2.1222 -0.1628 -0.6656
17118TIP3    H272846   6.865   2.448  14.924 -0.3049  2.0497  1.1889
17119TIP3   OH272847   3.834   0.209  15.025  0.4057  0.2029 -0.0010
17119TIP3    H172848   3.879   0.126  15.042  3.1030  1.6470  0.4688
17119TIP3    H272849   3.775   0.190  14.953 -0.1513 -2.4595  1.0525
17120TIP3   OH272850   0.035   0.818  12.713 -1.3732 -0.0783  0.0324
17120TIP3    H172851   0.069   0.836  12.800 -1.6222 -1.0610  0.3523
17120TIP3    H272852   0.029   0.722  12.709  1.5559 -0.3403 -2.1655
17121TIP3   OH272853   5.014   5.855  17.009 -0.3078  0.6638 -0.3927
17121TIP3    H172854   5.013   5.780  16.949  1.0913  1.4309 -1.4210
17121TIP3    H272855   4.929   5.851  17.053 -1.5085  0.2408 -2.6298
17122TIP3   OH272856   0.328   2.986  15.583  0.8196 -0.4297 -0.3577
17122TIP3    H172857   0.351   2.956  15.671  1.2221  2.0922  0.5035
17122TIP3    H272858   0.361   3.076  15.580  0.6580 -0.3861 -3.0600
17123TIP3   OH272859   1.212   6.323   3.008  0.1588  0.1054 -0.5557
17123TIP3    H172860   1.156   6.397   2.983  0.6378  0.1923 -1.4241
17123TIP3    H272861   1.296   6.362   3.031  0.2651 -0.1246 -0.5449
17124TIP3   OH272862   1.789   2.892  15.848  0.3647  0.5841  0.0205
17124TIP3    H172863   1.784   2.892  15.943  1.1462  0.6025  0.0680
17124TIP3    H272864   1.854   2.826  15.827 -1.4947 -1.1510 -0.6322
17125TIP3   OH272865   6.148   3.247   4.865  0.0897  0.1519 -0.3280
17125TIP3    H172866   6.081   3.180   4.870 -0.8670  1.0507 -0.7475
17125TIP3    H272867   6.122   3.302   4.791  0.8367  0.9894  0.0048
17126TIP3   OH272868   3.166   4.354   3.949 -0.0971 -0.2442  0.0326
17126TIP3    H172869   3.183   4.302   4.027  0.6492 -0.0406  0.0220
17126TIP3    H272870   3.101   4.418   3.976  0.6651  0.2731  0.7020
17127TIP3   OH272871   6.094   1.969   1.268  0.2210 -0.1769  0.3238
17127TIP3    H172872   6.014   1.918   1.259 -0.3394  0.7241  0.1021
17127TIP3    H272873   6.105   1.980   1.363  0.4607 -0.8635  0.3850
17128TIP3   OH272874   0.412   1.254  15.629 -0.2986 -0.0812 -0.0051
17128TIP3    H172875   0.470   1.178  15.634 -0.9144 -0.6827 -1.4230
17128TIP3    H272876   0.381   1.267  15.718 -1.8640 -2.8385 -0.0327
17129TIP3   OH272877   6.345   2.950   1.353  0.5758 -0.2211 -0.1066
17129TIP3    H172878   6.307   3.036   1.331  1.2085  0.0965  0.0280
17129TIP3    H272879   6.292   2.920   1.426  0.8060  0.3920  0.3236
17130TIP3   OH272880   1.781   1.622  12.879  0.4733 -0.2651  0.3948
17130TIP3    H172881   1.742   1.542  12.842  0.4434 -0.8637  1.6799
17130TIP3    H272882   1.751   1.624  12.969  0.8019  1.0035  0.4909
17131TIP3   OH272883   4.210   4.618  14.872 -0.1744  0.0770  0.0350
17131TIP3    H172884   4.120   4.634  14.901 -0.3544  0.0980 -0.5197
17131TIP3    H272885   4.237   4.700  14.831 -0.0768 -0.0853 -0.2297
17132TIP3   OH272886   3.199   3.231  13.015 -0.0643  0.3113 -0.2729
17132TIP3    H172887   3.227   3.315  13.051 -0.5145  0.5454 -0.4647
17132TIP3    H272888   3.167   3.182  13.090 -0.2430  0.4901 -0.2311
17133TIP3   OH272889   5.630   3.622  10.311 -0.1583 -0.6234  0.1969
17133TIP3    H172890   5.638   3.578  10.396  0.1489  1.5967  1.3921
17133TIP3    H272891   5.593   3.555  10.253  0.5937 -2.5254  1.7909
17134TIP3   OH272892   5.451   2.185   4.843  0.1748 -0.3556 -0.4650
17134TIP3    H172893   5.441   2.225   4.756 -0.8268  0.1105 -0.1528
17134TIP3    H272894   5.474   2.094   4.824  0.3574 -0.1666 -1.2120
17135TIP3   OH272895   6.030   6.302   3.737 -0.3365 -0.3659 -0.4426
17135TIP3    H172896   6.053   6.326   3.647 -1.9497 -0.4098 -0.8841
17135TIP3    H272897   6.023   6.207   3.735  2.0377 -0.6309  0.3542
17136TIP3   OH272898   5.437   6.445   0.355  0.6131 -0.0587  0.0392
17136TIP3    H172899   5.363   6.463   0.413  1.1991 -0.9850  1.1131
17136TIP3    H272900   5.422   6.356   0.324  0.6350  0.2037 -0.7390
17137TIP3   OH272901   5.578   3.793  15.722  0.2644 -0.6463 -0.4881
17137TIP3    H172902   5.592   3.885  15.740  0.1747 -0.8722  0.7671
17137TIP3    H272903   5.628   3.777  15.641 -0.6888  0.7476 -1.3938
17138TIP3   OH272904   4.668   6.431  13.894  0.3106 -0.0088 -0.2659
17138TIP3    H172905   4.740   6.392  13.943  0.8490  1.6034  0.3028
17138TIP3    H272906   4.707   6.508  13.851 -0.9587  0.6368 -0.3103
17139TIP3   OH272907   6.636   2.389   0.488  0.2126 -0.2417  0.3866
17139TIP3    H172908   6.544   2.362   0.493 -0.1413  0.6952 -0.6910
17139TIP3    H272909   6.662   2.401   0.579 -0.7723 -0.4036  0.7058
17140TIP3   OH272910   3.975   5.159  16.131  0.3530 -0.5370 -0.0506
17140TIP3    H172911   3.945   5.241  16.170  0.2711  0.0067 -1.2144
17140TIP3    H272912   3.956   5.093  16.197  0.4780  0.3824  0.9341
17141TIP3   OH272913   3.844   3.313   1.486 -0.2099  0.1589 -0.4450
17141TIP3    H172914   3.826   3.345   1.397  0.3797 -1.6588 -1.2658
17141TIP3    H272915   3.818   3.221   1.484 -0.0564  0.0607  1.2397
17142TIP3   OH272916   5.317   6.339  16.771 -0.3240  0.2341 -0.3145
17142TIP3    H172917   5.268   6.418  16.749 -0.6937 -0.0185 -0.3904
17142TIP3    H272918   5.396   6.372  16.815 -1.3270  0.5838  1.3300
17143TIP3   OH272919   3.779   5.544  15.386 -1.0408  0.1185 -0.3020
17143TIP3    H172920   3.738   5.494  15.456 -0.9058  0.9188  0.3733
17143TIP3    H272921   3.748   5.634  15.400  2.7534  1.3343  1.8028
17144TIP3   OH272922   6.749   0.498   6.044  0.1876  0.0262 -0.2017
17144TIP3    H172923   6.736   0.455   6.128 -1.4116  2.2559  0.7892
17144TIP3    H272924   6.675   0.468   5.990  1.4956 -1.8135 -1.0802
17145TIP3   OH272925   3.189   2.613   1.531  0.5933 -0.1630  0.5551
17145TIP3    H172926   3.268   2.583   1.577 -0.3702 -1.9388  1.1645
17145TIP3    H272927   3.156   2.686   1.583  1.1146 -0.2727  1.0434
17146TIP3   OH272928   3.338   1.265   5.275 -0.5487 -0.1856 -0.4836
17146TIP3    H172929   3.345   1.357   5.297  1.0407 -0.7661  1.8321
17146TIP3    H272930   3.429   1.235   5.268 -0.9930 -1.8225  0.0998
17147TIP3   OH272931   5.626   3.926   0.636  0.0534  0.3110 -0.3089
17147TIP3    H172932   5.547   3.960   0.595  0.7284  3.2302  0.5247
17147TIP3    H272933   5.697   3.954   0.579  0.6569 -0.0266  0.2601
17148TIP3   OH272934   6.469   3.749   0.712 -0.1675 -0.0429  0.7069
17148TIP3    H172935   6.514   3.664   0.712  0.1226  0.1076  1.0399
17148TIP3    H272936   6.521   3.803   0.652  0.4417  0.3080  1.5397
17149TIP3   OH272937   1.915   6.469   0.394 -0.1250 -0.7671  0.2534
17149TIP3    H172938   1.850   6.490   0.461  0.2515  0.6150  0.2162
17149TIP3    H272939   1.870   6.486   0.311  0.5557  1.2246  0.2375
17150TIP3   OH272940   2.286   0.739   2.757 -0.7120  0.0295 -0.3320
17150TIP3    H172941   2.296   0.703   2.845 -0.0372  0.7543 -0.0994
17150TIP3    H272942   2.280   0.663   2.700 -0.4823 -0.4453  0.2707
17151TIP3   OH272943   2.557   6.223   2.415  0.4633 -0.3026  0.0889
17151TIP3    H172944   2.650   6.247   2.421  0.1869  0.6500  0.6660
17151TIP3    H272945   2.558   6.128   2.406  1.4571 -0.4266  1.2335
17152TIP3   OH272946   6.586   4.737   1.394 -0.8491  0.2089 -0.7257
17152TIP3    H172947   6.506   4.692   1.423  0.0703 -0.9036  0.2174
17152TIP3    H272948   6.612   4.689   1.316 -1.3030  0.8149 -1.2521
17153TIP3   OH272949   6.285   3.130  16.794  0.3726  0.2662  0.0341
17153TIP3    H172950   6.349   3.199  16.781 -0.2445  1.0363  0.9692
17153TIP3    H272951   6.248   3.114  16.707 -0.1411  1.7873 -0.0548
17154TIP3   OH272952   3.861   3.934  11.492  0.0693  0.1794  0.4714
17154TIP3    H172953   3.790   3.995  11.469  1.1283  1.7390  1.1343
17154TIP3    H272954   3.860   3.869  11.421  0.0177  1.9818 -1.2895
17155TIP3   OH272955   4.695   6.264   3.111  0.3022 -0.0263 -0.1796
17155TIP3    H172956   4.779   6.246   3.069  0.0919 -0.2931 -0.4893
17155TIP3    H272957   4.675   6.183   3.159 -0.2614 -0.3367 -0.9235
17156TIP3   OH272958   2.620   4.994  14.775 -0.2285  0.3144 -0.4044
17156TIP3    H172959   2.708   4.998  14.738  0.3837 -0.0105  0.9625
17156TIP3    H272960   2.605   5.081  14.812 -0.0094  0.0261  0.3805
17157TIP3   OH272961   4.101   4.832  15.485  0.2220 -0.3388 -0.3773
17157TIP3    H172962   4.021   4.808  15.532 -0.4539 -0.3573 -1.5182
17157TIP3    H272963   4.166   4.845  15.554 -1.0616  0.8888  0.6535
17158TIP3   OH272964   6.783   5.918  10.548  1.1603  0.3279  1.0824
17158TIP3    H172965   6.746   5.847  10.600  0.9186 -1.6097 -1.5297
17158TIP3    H272966   6.711   5.979  10.536  0.4208 -0.6008  0.7135
17159TIP3   OH272967   0.110   4.935  14.099  0.1849  0.0408  0.5915
17159TIP3    H172968   0.025   4.892  14.093 -0.6762  1.6104  0.9055
17159TIP3    H272969   0.128   4.966  14.010  0.6778 -0.7094  0.4215
17160TIP3   OH272970   1.412   6.735  12.173  0.0712  0.3817  0.4651
17160TIP3    H172971   1.389   6.662  12.116  0.6993 -0.0031  0.6879
17160TIP3    H272972   1.330   6.757  12.218 -0.7543  1.5542 -1.5085
17161TIP3   OH272973   6.026   2.308  11.109  0.0409  0.0287  0.4053
17161TIP3    H172974   6.095   2.253  11.144 -0.3088  0.1992  1.3981
17161TIP3    H272975   6.072   2.378  11.062  0.6716  1.3824  2.8825
17162TIP3   OH272976   6.436   6.727  11.668 -0.7507  0.1019  0.3255
17162TIP3    H172977   6.492   6.795  11.705  1.5457 -1.2793 -0.4063
17162TIP3    H272978   6.410   6.674  11.743 -0.8294  0.5976  0.6489
17163TIP3   OH272979   5.176   0.112  13.642 -0.7435 -0.0211  0.1917
17163TIP3    H172980   5.168   0.146  13.731 -1.7283 -1.1890  0.5630
17163TIP3    H272981   5.268   0.084  13.636 -0.5800  0.3771  0.7134
17164TIP3   OH272982   6.527   1.842  12.782 -0.1829  0.2490  0.5294
17164TIP3    H172983   6.603   1.888  12.816  0.1463  0.2349 -0.1775
17164TIP3    H272984   6.550   1.819  12.692  0.4260 -2.9989  1.3922
17165TIP3   OH272985   6.410   0.715  10.648  0.2049  0.3370  0.4138
17165TIP3    H172986   6.391   0.807  10.667 -0.3740  1.0576 -2.8693
17165TIP3    H272987   6.503   0.714  10.626 -0.0364  0.4414 -0.6986
17166TIP3   OH272988   4.139   3.898  12.667 -0.1026 -0.5408 -0.2534
17166TIP3    H172989   4.084   3.944  12.604  0.3928  0.2766 -0.1090
17166TIP3    H272990   4.148   3.810  12.632  1.8684  0.4339 -2.5032
17167TIP3   OH272991   4.137   4.393   2.870 -0.1294 -0.5806 -0.3850
17167TIP3    H172992   4.117   4.447   2.947  0.7073 -0.2135 -0.4094
17167TIP3    H272993   4.204   4.332   2.901  0.1729 -0.4646 -0.8051
17168TIP3   OH272994   3.678   3.669   1.349 -0.8544 -0.1875 -0.1116
17168TIP3    H172995   3.723   3.719   1.282 -0.6540 -0.2307 -0.0084
17168TIP3    H272996   3.722   3.584   1.350 -1.7891 -0.7135 -0.9425
17169TIP3   OH272997   3.339   0.703   4.546  0.4492 -0.1811  0.0351
17169TIP3    H172998   3.353   0.750   4.464 -1.8407 -0.3573 -0.5122
17169TIP3    H272999   3.403   0.631   4.542  1.4026  0.6679 -0.8563
17170TIP3   OH273000   5.973   4.992   2.894 -0.0720 -0.3107  0.0224
17170TIP3    H173001   5.945   4.909   2.856  0.1213 -0.7143  0.7258
17170TIP3    H273002   6.037   5.027   2.832 -1.0163 -0.0991 -0.8609
17171TIP3   OH273003   2.201   3.420   6.030 -0.1329 -0.5465 -0.0131
17171TIP3    H173004   2.275   3.413   5.970  0.8863  1.3053  0.9537
17171TIP3    H273005   2.237   3.400   6.116 -1.1147 -1.0936  0.2984
17172TIP3   OH273006   3.944   0.923  13.989 -0.2801  0.5214 -0.8111
17172TIP3    H173007   3.945   0.860  13.917  1.0937  1.0720 -1.3269
17172TIP3    H273008   3.852   0.948  13.998 -0.6983 -0.7656 -1.2821
17173TIP3   OH273009   1.300   5.849  11.150 -0.3851 -0.4125 -0.1295
17173TIP3    H173010   1.243   5.920  11.179 -0.3484  0.1804 -1.4451
17173TIP3    H273011   1.241   5.775  11.135 -0.4612 -0.5873  0.9542
17174TIP3   OH273012   2.553   4.365   1.268 -0.3960  0.3617  0.2708
17174TIP3    H173013   2.494   4.381   1.195  2.5437  1.4963 -2.1083
17174TIP3    H273014   2.512   4.409   1.343 -3.0578  0.0169 -0.9048
17175TIP3   OH273015   1.905   2.104  12.284  0.1352  0.5018 -0.2282
17175TIP3    H173016   1.843   2.121  12.213  0.0209 -1.7084 -0.7295
17175TIP3    H273017   1.859   2.134  12.363 -1.3783 -0.5214 -0.6610
17176TIP3   OH273018   3.325   5.394   3.238 -0.0593  0.2411  1.0055
17176TIP3    H173019   3.241   5.391   3.193 -0.0759  1.2301  0.9407
17176TIP3    H273020   3.305   5.429   3.324  0.4267  1.6142  0.5879
17177TIP3   OH273021   6.586   2.480   5.067 -0.3977 -0.7052 -0.4035
17177TIP3    H173022   6.547   2.558   5.027 -0.2080 -0.9274 -1.0429
17177TIP3    H273023   6.632   2.438   4.994 -1.1979 -1.8681 -0.2529
17178TIP3   OH273024   3.188   6.570  14.021  0.2619 -0.0934  0.7191
17178TIP3    H173025   3.189   6.575  14.117 -0.8110 -0.1974  0.7471
17178TIP3    H273026   3.097   6.585  13.997  0.7631  1.5333 -0.3854
17179TIP3   OH273027   3.282   5.114  11.715  0.4537 -0.1028 -0.3526
17179TIP3    H173028   3.282   5.024  11.683  0.1269 -0.2264 -0.0096
17179TIP3    H273029   3.373   5.131  11.740  0.6676 -0.0738 -1.1481
17180TIP3   OH273030   1.760   2.819   5.542 -0.6033 -0.1029  0.7140
17180TIP3    H173031   1.833   2.758   5.533 -1.5293 -1.1860  0.1726
17180TIP3    H273032   1.786   2.879   5.612  0.7130 -0.5711  0.6454
17181TIP3   OH273033   0.177   0.576   2.489 -0.4437 -0.3951  0.0644
17181TIP3    H173034   0.232   0.653   2.503 -2.6802  1.0489  1.5536
17181TIP3    H273035   0.158   0.577   2.395  1.5608 -0.6302 -0.3807
17182TIP3   OH273036   0.201   1.638   1.875  0.1123 -0.8756  0.6049
17182TIP3    H173037   0.295   1.624   1.892  0.8601  0.4383 -1.9217
17182TIP3    H273038   0.168   1.553   1.850  0.5266 -1.4163  1.7887
17183TIP3   OH273039   2.834   3.912   3.644  0.5626  0.5591  0.1095
17183TIP3    H173040   2.783   3.902   3.724  1.0961  1.9544  0.6514
17183TIP3    H273041   2.923   3.888   3.668  0.1251 -2.7484 -1.0532
17184TIP3   OH273042   4.658   0.346  11.920  0.1931  0.4989 -0.4578
17184TIP3    H173043   4.621   0.412  11.979 -3.1405  0.7601 -2.5499
17184TIP3    H273044   4.618   0.264  11.950 -0.1469  0.3693 -1.2463
17185TIP3   OH273045   3.314   4.129   1.581 -0.3331 -0.5366  0.4596
17185TIP3    H173046   3.404   4.096   1.579 -0.0107 -0.0122  2.9827
17185TIP3    H273047   3.298   4.148   1.673 -1.5130  3.6085 -0.4092
17186TIP3   OH273048   3.003   6.357   4.597 -0.2168  0.0745  0.1076
17186TIP3    H173049   2.916   6.333   4.629  0.1325 -1.0785  0.2235
17186TIP3    H273050   3.058   6.358   4.675  0.2724 -1.0645 -0.2121
17187TIP3   OH273051   4.806   3.337  13.059 -0.4048 -0.1494  0.2370
17187TIP3    H173052   4.850   3.417  13.031 -0.1513 -0.2913  0.2308
17187TIP3    H273053   4.729   3.368  13.108 -2.1621  0.1433 -2.4937
17188TIP3   OH273054   4.424   0.211  11.739 -0.0036 -0.1961 -0.2086
17188TIP3    H173055   4.389   0.261  11.666 -1.4048 -0.9755 -0.1044
17188TIP3    H273056   4.386   0.252  11.817 -1.5338 -1.6174 -0.1424
17189TIP3   OH273057   1.138   5.202   4.670  0.4480  0.0759 -0.0053
17189TIP3    H173058   1.157   5.208   4.763 -1.3137 -0.1760  0.4183
17189TIP3    H273059   1.143   5.108   4.650  0.8607  0.1334 -0.1731
17190TIP3   OH273060   3.067   0.557  16.211 -0.3882  0.4869  0.3699
17190TIP3    H173061   3.070   0.540  16.305  0.2092 -1.7848  0.0054
17190TIP3    H273062   3.156   0.542  16.181 -1.1915 -2.2018 -1.0032
17191TIP3   OH273063   1.239   3.502   6.356  0.7346 -0.2110  0.4046
17191TIP3    H173064   1.334   3.495   6.362  0.7610  1.0733  2.5162
17191TIP3    H273065   1.224   3.565   6.286  1.5212  0.6396  0.9782
17192TIP3   OH273066   6.635   4.916  14.361  0.5531  1.2123  0.4405
17192TIP3    H173067   6.683   4.868  14.429  2.1630  1.9804 -0.1017
17192TIP3    H273068   6.581   4.978  14.409  0.3088  0.5259  1.0681
17193TIP3   OH273069   2.465   3.764   4.592  0.5697 -0.2197 -0.6242
17193TIP3    H173070   2.465   3.690   4.653  1.9350 -0.3920 -0.8110
17193TIP3    H273071   2.425   3.836   4.642 -1.3085 -1.2041 -0.6398
17194TIP3   OH273072   5.733   5.463   4.422 -0.0595 -1.1678  0.4725
17194TIP3    H173073   5.755   5.522   4.494 -0.4114 -0.8307  0.3077
17194TIP3    H273074   5.703   5.521   4.352 -0.5720 -1.5493  0.3662
17195TIP3   OH273075   6.554   4.778   0.390  0.6420 -0.0979  0.0751
17195TIP3    H173076   6.495   4.806   0.459 -0.6343  0.0887 -1.0621
17195TIP3    H273077   6.630   4.836   0.399  0.5292 -0.1143  1.3333
17196TIP3   OH273078   2.762   5.145  12.556  0.4417 -0.0219  0.2102
17196TIP3    H173079   2.720   5.228  12.535  1.5087  0.3888 -0.3660
17196TIP3    H273080   2.706   5.079  12.516 -0.5192  0.4009  0.8373
17197TIP3   OH273081   5.924   3.371   3.289  0.4484  0.1225  0.2941
17197TIP3    H173082   5.832   3.360   3.266  0.5570 -0.2537  0.0282
17197TIP3    H273083   5.956   3.282   3.305  0.8117  0.2298  0.1860
17198TIP3   OH273084   1.074   5.221   2.059  0.2171 -0.0221  0.2857
17198TIP3    H173085   1.134   5.177   1.998  0.1619 -0.1445  0.3196
17198TIP3    H273086   1.012   5.267   2.003 -2.6500 -3.6988  0.0491
17199TIP3   OH273087   4.919   5.414  11.465  0.2771  0.1898  0.5611
17199TIP3    H173088   4.946   5.493  11.419  0.4322 -0.6117 -0.7974
17199TIP3    H273089   4.839   5.440  11.512  0.1356  1.0675 -0.1273
17200TIP3   OH273090   5.220   3.455  14.203 -0.4661 -0.5845  0.3525
17200TIP3    H173091   5.261   3.369  14.205 -1.2094 -0.9454  0.4983
17200TIP3    H273092   5.158   3.453  14.276 -1.4457 -0.4193 -0.4515
17201TIP3   OH273093   2.975   3.666   2.662  0.0121 -0.1233  0.3660
17201TIP3    H173094   2.897   3.612   2.671  0.2856 -0.1908  2.9261
17201TIP3    H273095   2.941   3.754   2.645 -0.6333 -0.1535  1.4453
17202TIP3   OH273096   4.128   5.618   2.402  0.1011  0.5355  0.7896
17202TIP3    H173097   4.220   5.594   2.413  0.2155  0.2568 -0.5796
17202TIP3    H273098   4.130   5.707   2.367 -0.0766  0.0305 -0.5632
17203TIP3   OH273099   1.433   5.546  11.397 -0.1421  0.1354  0.2948
17203TIP3    H173100   1.526   5.553  11.420  0.3847 -0.3440 -1.5878
17203TIP3    H273101   1.419   5.453  11.382 -0.7464  0.2945 -0.1543
17204TIP3   OH273102   4.008   4.888  16.408 -0.2203 -0.5172  0.2819
17204TIP3    H173103   4.027   4.981  16.418  1.0049 -0.4251 -2.0874
17204TIP3    H273104   3.947   4.883  16.335 -1.4074 -1.5132  1.3045
17205TIP3   OH273105   2.763   5.299   1.813  0.3833 -0.6630  0.2202
17205TIP3    H173106   2.803   5.344   1.887 -0.2145  0.6227 -0.1979
17205TIP3    H273107   2.794   5.348   1.736  0.1568 -1.3241 -0.3035
17206TIP3   OH273108   1.470   6.366  16.047 -0.2977  0.6022 -0.1769
17206TIP3    H173109   1.518   6.332  15.972  0.6336 -2.4898  1.6156
17206TIP3    H273110   1.381   6.382  16.014  0.1030 -0.5669 -1.9729
17207TIP3   OH273111   6.299   2.084   0.332 -0.4379  0.0280  0.4216
17207TIP3    H173112   6.323   2.167   0.292 -1.0232 -1.4368 -3.4343
17207TIP3    H273113   6.205   2.092   0.349 -0.4022  0.3324  0.4710
17208TIP3   OH273114   1.182   0.310   5.648  0.2088  0.1429  0.1571
17208TIP3    H173115   1.225   0.395   5.637 -0.5507  0.5315  0.1728
17208TIP3    H273116   1.253   0.246   5.638  1.5457  0.8495  3.6167
17209TIP3   OH273117   4.277   1.482  15.905 -0.1326  0.5007 -0.1248
17209TIP3    H173118   4.310   1.393  15.893  0.7789  0.7984  0.0904
17209TIP3    H273119   4.341   1.524  15.963 -0.2830  1.4397 -0.6172
17210TIP3   OH273120   6.501   2.782  11.960  0.1606 -0.0494 -0.2845
17210TIP3    H173121   6.534   2.801  11.872 -0.0979 -0.5392 -0.4873
17210TIP3    H273122   6.443   2.707  11.948  0.7769 -0.6562  0.4345
17211TIP3   OH273123   4.525   3.752  15.807 -0.2115  0.6833 -0.2001
17211TIP3    H173124   4.591   3.753  15.876 -0.8705 -1.5494  0.5617
17211TIP3    H273125   4.478   3.834  15.817 -1.0034 -0.0154  2.8043
17212TIP3   OH273126   0.099   4.926   1.988  0.1858 -0.3437 -0.2764
17212TIP3    H173127   0.076   5.007   1.941  1.3454 -0.1353 -0.5237
17212TIP3    H273128   0.187   4.942   2.021  0.7452 -1.8026 -0.9953
17213TIP3   OH273129   4.637   2.385  14.634  0.2620 -0.1801 -0.1422
17213TIP3    H173130   4.720   2.341  14.653  1.3853  1.8509 -0.0084
17213TIP3    H273131   4.644   2.470  14.678 -2.0724 -0.0840  0.1824
17214TIP3   OH273132   1.502   1.422   2.071 -0.0786  0.1027 -0.0762
17214TIP3    H173133   1.478   1.436   1.979  2.0941 -0.0510 -0.7401
17214TIP3    H273134   1.513   1.510   2.107  1.5124  0.2064 -0.7252
17215TIP3   OH273135   6.153   4.061  16.007  0.4500 -0.4112 -0.4774
17215TIP3    H173136   6.087   4.112  16.054  1.3536  0.7976 -0.4852
17215TIP3    H273137   6.187   4.000  16.072 -0.2390 -0.6232 -0.3079
17216TIP3   OH273138   6.155   5.628  12.070  0.3880 -0.0597 -0.2557
17216TIP3    H173139   6.173   5.678  11.990  1.7919  1.0354  0.7043
17216TIP3    H273140   6.210   5.550  12.062 -0.5327 -0.6626 -0.9726
17217TIP3   OH273141   1.805   4.630   5.992 -0.1403 -0.4073  0.2597
17217TIP3    H173142   1.784   4.686   5.918 -0.2010 -1.3286 -0.4300
17217TIP3    H273143   1.900   4.623   5.990 -0.0775  0.1568  0.7257
17218TIP3   OH273144   2.311   0.417  14.948  0.4649 -0.1186  0.2174
17218TIP3    H173145   2.289   0.419  14.854  0.9086  3.3643  0.0493
17218TIP3    H273146   2.382   0.353  14.954 -0.2051 -1.1238 -1.6521
17219TIP3   OH273147   2.534   6.623   2.591 -0.3163 -1.2162  0.6264
17219TIP3    H173148   2.605   6.667   2.638  0.7138 -3.3088  1.1798
17219TIP3    H273149   2.474   6.594   2.659 -2.3339  1.3731  0.1024
17220TIP3   OH273150   0.697   3.584   6.102 -0.2695  0.0056  0.8457
17220TIP3    H173151   0.616   3.633   6.119 -1.1328 -0.8845 -0.5553
17220TIP3    H273152   0.720   3.546   6.186 -1.8605 -0.5253  1.0732
17221TIP3   OH273153   3.614   3.092  17.121 -0.0232  0.2394 -0.1493
17221TIP3    H173154   3.609   3.029  17.050  1.7278  0.2094 -0.2768
17221TIP3    H273155   3.672   3.161  17.089  2.2060 -0.5764  1.7828
17222TIP3   OH273156   0.827   6.000  12.660  0.3903  0.1769  0.7539
17222TIP3    H173157   0.894   6.061  12.630 -0.0498  0.1544 -0.3232
17222TIP3    H273158   0.836   5.924  12.603  0.0431 -0.2052  1.1945
17223TIP3   OH273159   3.804   5.320   5.662  0.1061  0.3089  0.7206
17223TIP3    H173160   3.878   5.365   5.704  1.4951  0.6745 -1.9398
17223TIP3    H273161   3.770   5.382   5.598 -0.5562 -0.9592 -0.2158
17224TIP3   OH273162   1.734   6.126   3.786 -0.2664 -0.3927  0.4603
17224TIP3    H173163   1.722   6.116   3.691 -2.0953 -1.3896  0.7470
17224TIP3    H273164   1.708   6.041   3.822 -2.3169  0.8481  2.0540
17225TIP3   OH273165   4.599   4.978  14.510  0.0720 -0.4694  0.1982
17225TIP3    H173166   4.615   4.897  14.461  0.5676  1.4119 -3.0602
17225TIP3    H273167   4.684   5.021  14.515 -0.4156  0.4775  0.6808
17226TIP3   OH273168   4.717   3.857  13.461 -0.5886  0.0784  0.1235
17226TIP3    H173169   4.725   3.815  13.547  0.2093  0.4300  0.2226
17226TIP3    H273170   4.771   3.935  13.467 -1.3771  0.6760 -0.3569
17227TIP3   OH273171   6.753   2.343  11.421  0.1954 -0.1110  0.9481
17227TIP3    H173172   6.718   2.335  11.509  1.5907 -2.1476  1.3753
17227TIP3    H273173   6.739   2.257  11.381  1.3592  0.1622 -0.1285
17228TIP3   OH273174   5.148   0.746   1.946 -0.2909 -0.3387 -0.2063
17228TIP3    H173175   5.180   0.789   2.025  1.4456 -1.5418 -0.1894
17228TIP3    H273176   5.054   0.765   1.945 -0.1605  0.6564  1.5217
17229TIP3   OH273177   4.345   4.302  13.969  0.3449  0.2270 -0.7780
17229TIP3    H173178   4.256   4.317  14.002  0.5341 -1.4576  0.6645
17229TIP3    H273179   4.340   4.215  13.928  1.8467 -1.0149  1.5173
17230TIP3   OH273180   2.842   3.565   5.520 -0.1073 -0.1372  0.4627
17230TIP3    H173181   2.841   3.659   5.498 -0.6524 -0.1257  0.5171
17230TIP3    H273182   2.856   3.563   5.614  1.4449 -0.1637  0.2529
17231TIP3   OH273183   2.357   6.632   3.188  0.2336 -0.7894 -0.7116
17231TIP3    H173184   2.292   6.562   3.194  0.9488 -1.3535  1.2887
17231TIP3    H273185   2.428   6.604   3.246  1.5605  0.5414 -1.6317
17232TIP3   OH273186   2.923   0.920  11.243  0.0329  0.5584  0.8127
17232TIP3    H173187   2.938   0.983  11.173 -2.0322 -0.0425 -0.2551
17232TIP3    H273188   2.988   0.851  11.228 -0.8106  0.1008 -0.9714
17233TIP3   OH273189   6.165   2.129  13.585 -0.0814 -0.3269  0.6277
17233TIP3    H173190   6.247   2.174  13.608 -0.0376  0.0286 -0.1949
17233TIP3    H273191   6.194   2.048  13.543 -0.1201  0.3491 -0.7560
17234TIP3   OH273192   1.188   3.479  13.173  0.3174 -0.0714  0.0578
17234TIP3    H173193   1.209   3.567  13.141 -0.2770 -0.9974 -3.2494
17234TIP3    H273194   1.241   3.421  13.118 -0.8059 -1.8485  0.7896
17235TIP3   OH273195   5.658   5.433  15.919  0.3352  0.4814 -0.9076
17235TIP3    H173196   5.618   5.519  15.931  0.4166  0.3079  1.0725
17235TIP3    H273197   5.752   5.448  15.933  0.1140 -0.2406  2.0146
17236TIP3   OH273198   0.837   5.808   2.800 -0.4152 -0.2897 -0.4248
17236TIP3    H173199   0.775   5.736   2.815  0.0371 -0.7382 -0.6849
17236TIP3    H273200   0.782   5.887   2.799 -0.7438 -0.4450  1.3622
17237TIP3   OH273201   6.763   2.597  16.533  0.3003  0.2743 -0.6269
17237TIP3    H173202   6.736   2.556  16.616  1.3407 -1.3312 -1.0459
17237TIP3    H273203   6.758   2.527  16.469 -1.1473  1.6665 -2.1107
17238TIP3   OH273204   3.601   1.342  12.349 -0.1593 -0.0297 -0.2717
17238TIP3    H173205   3.611   1.426  12.305 -0.4658  0.3491  0.3668
17238TIP3    H273206   3.649   1.352  12.431  0.4937 -0.7622 -0.5435
17239TIP3   OH273207   4.422   2.767   5.150 -0.0340  0.0510  0.0971
17239TIP3    H173208   4.444   2.731   5.235  0.2563 -1.1655 -0.4684
17239TIP3    H273209   4.482   2.723   5.089 -1.7517 -0.8453 -1.0316
17240TIP3   OH273210   3.258   4.247  13.946 -0.1865  0.3749  0.1528
17240TIP3    H173211   3.211   4.174  13.906 -0.1562  1.2235 -1.4937
17240TIP3    H273212   3.208   4.268  14.025 -0.8850 -0.6253 -0.0147
17241TIP3   OH273213   5.277   1.806  11.438 -0.1337  0.1916  0.3148
17241TIP3    H173214   5.310   1.816  11.348 -1.0536  1.1465  0.0654
17241TIP3    H273215   5.255   1.713  11.444 -1.9746  0.4583 -1.1739
17242TIP3   OH273216   5.226   0.886  13.137 -0.1841  0.1676 -0.5403
17242TIP3    H173217   5.143   0.918  13.172 -0.3211 -1.5653  0.9034
17242TIP3    H273218   5.203   0.804  13.093  0.9462 -1.4331  1.6432
17243TIP3   OH273219   0.026   6.350  16.552 -0.3114 -0.6424  0.1498
17243TIP3    H173220   0.075   6.431  16.534 -0.9779 -0.5288 -1.3144
17243TIP3    H273221   0.093   6.287  16.578  0.5990 -0.3781 -1.4248
17244TIP3   OH273222   4.477   5.547  13.482 -0.1231  0.0979  0.2952
17244TIP3    H173223   4.428   5.592  13.552  2.0261  2.0575  0.6409
17244TIP3    H273224   4.536   5.488  13.529  0.9247  1.0051  0.1588
17245TIP3   OH273225   5.435   0.012   1.840  0.0638 -0.3049  0.0212
17245TIP3    H173226   5.405   0.100   1.816  1.5187  0.0038 -0.7609
17245TIP3    H273227   5.523   0.025   1.874 -0.0764 -1.3698  0.8526
17246TIP3   OH273228   2.297   6.544  15.992  0.2546 -0.9043 -0.6514
17246TIP3    H173229   2.279   6.521  15.901 -0.1661 -0.4576 -0.6801
17246TIP3    H273230   2.387   6.513  16.007  0.2721 -1.1120 -1.1698
17247TIP3   OH273231   4.409   0.294   2.049 -0.1646  0.5513 -0.2339
17247TIP3    H173232   4.333   0.236   2.060 -0.6350  0.7355 -2.2551
17247TIP3    H273233   4.386   0.351   1.976  1.8270  0.7817 -0.7329
17248TIP3   OH273234   3.572   1.871  12.345  0.0083  0.1974 -0.3472
17248TIP3    H173235   3.489   1.918  12.335  0.2183  0.6268 -0.1040
17248TIP3    H273236   3.560   1.818  12.424 -0.6908 -1.1556 -1.3241
17249TIP3   OH273237   6.303   6.620  10.651 -0.3673  0.4073 -0.7269
17249TIP3    H173238   6.264   6.704  10.628  1.8022  1.2673 -1.5542
17249TIP3    H273239   6.299   6.616  10.746 -1.8001  0.7442 -0.7507
17250TIP3   OH273240   4.519   4.763  10.355  0.0794  0.3588  0.8430
17250TIP3    H173241   4.545   4.671  10.360 -0.2036  0.2904  1.1157
17250TIP3    H273242   4.589   4.806  10.306  0.7737  0.2029  1.6752
17251TIP3   OH273243   0.705   1.249  11.725  0.0592 -0.3699  0.5572
17251TIP3    H173244   0.697   1.200  11.643  0.4599  0.5018 -0.0170
17251TIP3    H273245   0.670   1.190  11.792 -1.9297 -0.4498 -0.4600
17252TIP3   OH273246   2.667   3.565  15.141  0.4429 -0.3321 -0.4376
17252TIP3    H173247   2.641   3.474  15.159  2.7267 -1.0761 -0.5469
17252TIP3    H273248   2.719   3.590  15.217  1.1739  0.3130 -1.1466
17253TIP3   OH273249   4.037   2.290  11.272  0.3502 -0.2760 -0.1374
17253TIP3    H173250   4.083   2.251  11.347 -1.5410 -0.2965  1.0996
17253TIP3    H273251   4.053   2.384  11.280 -0.0865 -0.2472  0.5110
17254TIP3   OH273252   5.570   0.102   4.664 -0.0289 -0.3763  0.7520
17254TIP3    H173253   5.594   0.017   4.700  3.1423  0.1726  0.1874
17254TIP3    H273254   5.594   0.096   4.571 -0.4721  0.8821  0.5344
17255TIP3   OH273255   6.172   2.290  15.264 -0.0427  0.3617  0.0900
17255TIP3    H173256   6.129   2.338  15.335  1.4260  2.5167 -0.4086
17255TIP3    H273257   6.185   2.202  15.300  0.9231  1.4568  2.6457
17256TIP3   OH273258   6.064   3.302  11.448 -0.0892 -1.0979  0.1052
17256TIP3    H173259   6.071   3.312  11.543  1.9295  2.8911 -0.2325
17256TIP3    H273260   6.154   3.294  11.417 -0.4100  0.8150 -1.5840
17257TIP3   OH273261   0.695   6.717   5.473 -0.2029  0.0540 -0.4413
17257TIP3    H173262   0.770   6.669   5.508 -0.1371  0.1138 -0.5006
17257TIP3    H273263   0.633   6.649   5.447 -0.7994  0.0187  0.9713
17258TIP3   OH273264   2.388   5.204   4.942 -0.2640 -0.1349 -0.2980
17258TIP3    H173265   2.402   5.121   4.896  1.4063  0.0562 -0.2215
17258TIP3    H273266   2.455   5.262   4.906  0.0496  0.4954  1.2135
17259TIP3   OH273267   2.207   0.435   1.634  0.1601 -0.1519 -0.4409
17259TIP3    H173268   2.161   0.354   1.655  2.1233 -1.0124  0.8946
17259TIP3    H273269   2.141   0.491   1.594 -1.1028 -2.6708 -2.1565
17260TIP3   OH273270   1.486   6.098  16.228 -0.5233 -0.8425  0.0428
17260TIP3    H173271   1.454   6.117  16.140  0.0155  0.4479  0.0999
17260TIP3    H273272   1.477   6.003  16.238  1.1421 -1.2950 -2.0998
17261TIP3   OH273273   3.795   4.175  16.473 -0.0085  0.2493 -0.2862
17261TIP3    H173274   3.878   4.209  16.508  0.4158  0.0189 -1.0527
17261TIP3    H273275   3.735   4.250  16.477  0.0203  0.2209  0.9448
17262TIP3   OH273276   5.759   1.219  16.104 -0.1699 -0.1886 -0.2825
17262TIP3    H173277   5.679   1.174  16.132 -1.8677  2.1949 -0.9107
17262TIP3    H273278   5.740   1.248  16.015  2.3458 -1.4818 -1.3153
17263TIP3   OH273279   4.771   5.046   4.778  0.0181 -0.3065 -0.0317
17263TIP3    H173280   4.684   5.008   4.782  0.7746 -2.0797  0.4189
17263TIP3    H273281   4.825   4.991   4.835  1.4448  0.7182 -0.3156
17264TIP3   OH273282   5.568   0.347  12.368 -0.2405 -0.0106  0.3714
17264TIP3    H173283   5.532   0.387  12.447 -1.3332  0.3270 -0.2747
17264TIP3    H273284   5.498   0.355  12.303 -0.6367 -3.1483  0.2582
17265TIP3   OH273285   1.892   4.870   2.716 -0.0404  0.0886 -0.2680
17265TIP3    H173286   1.830   4.901   2.649 -0.3782 -0.8003 -0.3955
17265TIP3    H273287   1.977   4.902   2.687 -0.3392  0.6884 -0.5018
17266TIP3   OH273288   0.042   1.948   0.149  0.4660  0.2756  0.0582
17266TIP3    H173289   0.102   1.989   0.085  0.0912 -0.8574 -1.0636
17266TIP3    H273290  -0.041   1.994   0.135  0.7582  1.0543  0.8032
17267TIP3   OH273291   3.010   4.958  12.675  0.0598  0.1582  0.1318
17267TIP3    H173292   3.076   5.005  12.623  0.4127 -1.9734 -1.4675
17267TIP3    H273293   2.958   5.028  12.716  2.2343  1.9045  0.0998
17268TIP3   OH273294   0.998   2.766  15.605  0.3282  0.3459  0.5322
17268TIP3    H173295   1.001   2.827  15.679 -0.3377 -0.0131  0.8606
17268TIP3    H273296   0.992   2.823  15.528 -0.6068  0.7013  0.8570
17269TIP3   OH273297   0.974   2.799   6.187 -0.1054 -0.9937 -0.1197
17269TIP3    H173298   0.959   2.838   6.273 -0.3877  0.9815 -1.0107
17269TIP3    H273299   1.040   2.732   6.203  0.7063  0.1074  1.4707
17270TIP3   OH273300   1.355   0.727  14.781  0.1335  0.5166  0.1222
17270TIP3    H173301   1.353   0.764  14.869 -2.1578  0.2402  0.2447
17270TIP3    H273302   1.426   0.662  14.783 -1.6289 -1.5018  2.6616
17271TIP3   OH273303   5.894   1.635   5.710 -0.3585  0.8150  0.1268
17271TIP3    H173304   5.852   1.565   5.660 -1.3914  1.4629  0.0453
17271TIP3    H273305   5.833   1.653   5.782  0.1170  1.3035  0.4162
17272TIP3   OH273306   1.317   4.372   4.254  0.0288 -0.1706  0.4151
17272TIP3    H173307   1.257   4.431   4.300 -0.2865  0.5862 -0.9206
17272TIP3    H273308   1.360   4.428   4.190 -2.4921 -1.8272 -3.0580
17273TIP3   OH273309   4.759   5.307  14.876 -0.3178 -0.3106 -0.0929
17273TIP3    H173310   4.825   5.264  14.821 -1.4260 -1.7602 -0.3432
17273TIP3    H273311   4.677   5.295  14.828 -0.7455  1.8088  0.0264
17274TIP3   OH273312   1.198   0.172   5.262 -0.1513 -0.0632  0.3169
17274TIP3    H173313   1.284   0.213   5.261 -0.0330 -0.2909 -0.8160
17274TIP3    H273314   1.201   0.109   5.190 -1.5634  0.5963 -0.3689
17275TIP3   OH273315   0.426   0.178  13.438 -0.1755  0.0655  0.6206
17275TIP3    H173316   0.365   0.157  13.367  0.6179  0.4190 -0.1854
17275TIP3    H273317   0.484   0.244  13.400 -0.5748  1.2850  2.0304
17276TIP3   OH273318   4.248   3.530   4.782  0.6638  0.4020  0.2602
17276TIP3    H173319   4.289   3.559   4.864  1.8862  0.3365 -0.3074
17276TIP3    H273320   4.157   3.559   4.790  0.0477 -1.8503  2.7353
17277TIP3   OH273321   1.462   5.657  12.858 -0.2260  0.0988 -0.0997
17277TIP3    H173322   1.539   5.601  12.867 -0.4012  0.0783  1.6737
17277TIP3    H273323   1.461   5.681  12.766  3.4967  2.3763  0.2480
17278TIP3   OH273324   3.603   4.596  16.281 -0.0516 -0.0312  0.2735
17278TIP3    H173325   3.618   4.645  16.362 -0.4102 -2.5131  1.9398
17278TIP3    H273326   3.511   4.615  16.260 -0.1733  0.0812  0.8609
17279TIP3   OH273327   0.087   1.571   0.881  0.5569 -0.1271  0.0331
17279TIP3    H173328   0.094   1.485   0.922 -1.8247 -0.7173 -0.6624
17279TIP3    H273329   0.131   1.560   0.796  2.7176  0.2127  1.0315
17280TIP3   OH273330   4.561   3.118  16.065  0.2934  0.2622 -0.0262
17280TIP3    H173331   4.562   3.076  15.979 -3.5140  2.3858 -1.3822
17280TIP3    H273332   4.516   3.055  16.121 -0.5835  0.3042 -0.6473
17281TIP3   OH273333   1.218   6.010  16.043 -0.4023 -0.4892  0.6694
17281TIP3    H173334   1.152   5.955  16.001 -0.3290 -0.6883  0.8117
17281TIP3    H273335   1.171   6.090  16.067 -0.0534  0.3834 -1.3642
17282TIP3   OH273336   1.784   6.434  11.498 -0.2958  0.0601  0.4523
17282TIP3    H173337   1.833   6.399  11.572 -1.0015 -2.9827 -0.3822
17282TIP3    H273338   1.693   6.434  11.527 -0.4754 -0.2487 -0.0918
17283TIP3   OH273339   4.136   4.746   3.325 -0.0986 -0.5507 -0.4938
17283TIP3    H173340   4.194   4.793   3.385 -0.4341  0.3177 -0.8359
17283TIP3    H273341   4.193   4.723   3.251  0.4476 -2.0904  0.3461
17284TIP3   OH273342   0.479   6.207  11.273  0.1328 -0.4495 -0.2092
17284TIP3    H173343   0.426   6.283  11.298 -0.3601 -0.7465 -0.3536
17284TIP3    H273344   0.418   6.148  11.229  0.5766 -0.8063 -0.3525
17285TIP3   OH273345   4.754   0.223  11.391  0.5911 -0.1308 -0.0296
17285TIP3    H173346   4.734   0.220  11.485 -2.2899 -1.3227 -0.5781
17285TIP3    H273347   4.761   0.131  11.365  0.1231  0.1451 -1.1887
17286TIP3   OH273348   4.771   4.488   5.253 -0.0835  0.0945 -0.2799
17286TIP3    H173349   4.683   4.460   5.276 -0.0997 -1.3347 -1.8674
17286TIP3    H273350   4.759   4.565   5.198 -0.4420 -0.7909 -1.4782
17287TIP3   OH273351   0.948   5.766   2.444 -0.2257  0.1090 -0.6438
17287TIP3    H173352   1.034   5.807   2.434 -0.4534  1.3189  1.6741
17287TIP3    H273353   0.967   5.672   2.439  1.5135  0.2818  1.1293
17288TIP3   OH273354   2.924   5.222   6.488 -0.3044  0.1822  0.7799
17288TIP3    H173355   2.920   5.302   6.436  1.1558  1.0793  1.9510
17288TIP3    H273356   2.911   5.151   6.425 -0.2744  1.2970 -0.5129
17289TIP3   OH273357   5.286   1.711   3.248  0.1691  0.1282  0.0966
17289TIP3    H173358   5.321   1.724   3.160  0.1486  2.9208  0.4096
17289TIP3    H273359   5.327   1.630   3.279  3.0698  1.0031 -1.1288
17290TIP3   OH273360   2.434   4.851  14.875 -0.2678  0.6240 -0.0237
17290TIP3    H173361   2.497   4.906  14.829  0.0702 -0.1066 -0.4416
17290TIP3    H273362   2.349   4.878  14.840 -0.0584  0.4608 -0.6664
17291TIP3   OH273363   4.168   6.332  16.979  0.2563  0.3430  0.0785
17291TIP3    H173364   4.088   6.289  17.010 -0.2311 -0.4926 -2.1483
17291TIP3    H273365   4.136   6.411  16.935  0.4610 -0.6399 -1.9522
17292TIP3   OH273366   1.227   6.828   3.402  0.3053 -0.2526 -0.1989
17292TIP3    H173367   1.156   6.792   3.349 -0.3717  0.9590 -0.1372
17292TIP3    H273368   1.213   6.792   3.490  0.9260 -1.5728 -0.6184
17293TIP3   OH273369   3.269   5.032  15.082  0.6397  0.2323  0.4363
17293TIP3    H173370   3.174   5.032  15.078  0.6604  0.5314 -0.2452
17293TIP3    H273371   3.291   5.111  15.132  0.5220 -0.1050  1.0264
17294TIP3   OH273372   4.597   3.836   5.007  0.1385 -0.0613  0.1100
17294TIP3    H173373   4.609   3.925   5.039 -0.4876  0.6202 -1.4333
17294TIP3    H273374   4.537   3.796   5.069 -1.6374  1.4456 -0.5492
17295TIP3   OH273375   1.269   1.482  12.107  0.0064 -0.0370 -0.6392
17295TIP3    H173376   1.287   1.421  12.178  2.8804  1.3633  0.0247
17295TIP3    H273377   1.333   1.460  12.039 -0.9881  0.2829 -1.7171
17296TIP3   OH273378   5.100   2.615  12.489  0.3037 -0.1706  0.0168
17296TIP3    H173379   5.133   2.538  12.535 -1.1030  0.3606  2.0515
17296TIP3    H273380   5.013   2.630  12.525 -0.1165  1.4402 -1.4918
17297TIP3   OH273381   5.586   5.156   3.733  0.0462  0.0187  0.3913
17297TIP3    H173382   5.507   5.190   3.692  1.5518  2.5287 -0.6705
17297TIP3    H273383   5.609   5.079   3.681 -0.5066  0.5589 -0.6936
17298TIP3   OH273384   0.569   6.360  12.616 -0.6094  0.1554  0.0653
17298TIP3    H173385   0.542   6.296  12.551  1.0737 -1.2687  0.6660
17298TIP3    H273386   0.508   6.349  12.688 -0.1573 -1.0338  0.2859
17299TIP3   OH273387   6.565   2.264   1.115  0.0173  0.0308 -1.0238
17299TIP3    H173388   6.488   2.320   1.117 -0.4489 -0.4183  3.2649
17299TIP3    H273389   6.551   2.206   1.040 -2.6691  1.4206 -1.7095
17300TIP3   OH273390   4.022   5.080  17.079 -0.4020  0.3696  0.1328
17300TIP3    H173391   4.045   5.122  17.162 -1.3287 -1.3396  1.3095
17300TIP3    H273392   4.106   5.062  17.037  0.0593  1.9497  0.2970
17301TIP3   OH273393   3.488   6.592  13.092 -0.0563 -0.0526 -0.4057
17301TIP3    H173394   3.562   6.545  13.130  0.3353 -1.1292 -2.3668
17301TIP3    H273395   3.412   6.565  13.145  0.5258 -1.1355 -0.0941
17302TIP3   OH273396   3.836   3.663   3.446  0.4492  0.2835  0.1224
17302TIP3    H173397   3.793   3.662   3.531 -0.4906 -0.8331 -0.3426
17302TIP3    H273398   3.876   3.576   3.438  0.5414  0.3819 -0.5580
17303TIP3   OH273399   1.886   5.230   2.031  0.0650  0.3037  0.1815
17303TIP3    H173400   1.874   5.197   2.120  1.4139 -0.7626 -0.0009
17303TIP3    H273401   1.951   5.171   1.992  0.6603  1.6844 -1.0006
17304TIP3   OH273402   4.121   4.728  13.930 -0.6171 -0.6632  0.3747
17304TIP3    H173403   4.089   4.699  13.844  0.3544  2.0448 -1.0268
17304TIP3    H273404   4.205   4.685  13.941 -0.3371 -0.3513 -0.4800
17305TIP3   OH273405   0.269   6.414   2.511  0.1208 -0.1870 -0.4416
17305TIP3    H173406   0.307   6.398   2.597 -0.9226 -1.8978 -0.2391
17305TIP3    H273407   0.180   6.442   2.528 -0.1199 -0.6116 -0.9521
17306TIP3   OH273408   6.170   0.065   6.195 -0.1651 -0.5355  0.3655
17306TIP3    H173409   6.187  -0.001   6.262  0.1377  0.1153  0.9464
17306TIP3    H273410   6.076   0.083   6.202 -0.1120 -0.3825  0.7041
17307TIP3   OH273411   6.491   2.073   0.907  0.1534 -0.0782  0.7758
17307TIP3    H173412   6.409   2.031   0.881  0.3303 -0.4832  0.8711
17307TIP3    H273413   6.552   2.054   0.836 -0.1250  1.1451  0.1703
17308TIP3   OH273414   4.559   4.955   5.493  0.1782 -0.8718  0.1560
17308TIP3    H173415   4.527   4.984   5.578 -0.8797  0.8694 -0.7481
17308TIP3    H273416   4.609   5.030   5.460 -0.7824 -0.8726 -1.3967
17309TIP3   OH273417   5.458   0.901   0.108  0.3303  0.2352  1.0429
17309TIP3    H173418   5.501   0.842   0.170 -3.0506 -1.1946  2.2496
17309TIP3    H273419   5.420   0.970   0.162 -1.5445 -0.3059  0.4906
17310TIP3   OH273420   5.847   2.211   2.065  0.3819  0.3182  0.1450
17310TIP3    H173421   5.892   2.247   1.988  0.1990  0.4055  0.0776
17310TIP3    H273422   5.864   2.117   2.061  0.6536  0.3665  0.1828
17311TIP3   OH273423   0.792   3.338  11.916  0.2195 -0.3882 -0.6328
17311TIP3    H173424   0.834   3.269  11.967 -1.5282 -0.9223  0.1791
17311TIP3    H273425   0.704   3.345  11.953  0.8789  3.6768  0.6569
17312TIP3   OH273426   2.240   0.021  15.706  0.1055  0.3959  0.3791
17312TIP3    H173427   2.189  -0.057  15.727  0.2663  0.3981  0.7759
17312TIP3    H273428   2.231   0.030  15.611 -0.4157  0.2423  0.4082
17313TIP3   OH273429   3.686   6.223   4.305 -0.3313 -0.0621  0.2237
17313TIP3    H173430   3.699   6.312   4.274 -0.5619 -0.0119  0.2674
17313TIP3    H273431   3.774   6.190   4.322 -0.1641 -0.2672 -0.9606
17314TIP3   OH273432   0.056   2.724  17.064  0.3652  0.1495 -0.2177
17314TIP3    H173433   0.041   2.732  16.969  0.4723  0.1702 -0.2326
17314TIP3    H273434   0.115   2.649  17.072  1.8263  1.2399 -0.3103
17315TIP3   OH273435   2.634   2.083   0.867  1.2100  0.4732  0.4095
17315TIP3    H173436   2.617   2.177   0.860 -2.9331 -0.2126 -2.0266
17315TIP3    H273437   2.562   2.051   0.922  1.2319 -1.5065 -0.6586
17316TIP3   OH273438   2.221   0.960  14.059  0.5287 -0.1000 -0.1315
17316TIP3    H173439   2.303   1.008  14.046  0.8159 -0.6408 -0.3296
17316TIP3    H273440   2.183   0.999  14.138  0.6982  0.5323 -0.3571
17317TIP3   OH273441   0.645   5.463   3.654  0.0592  0.2169 -0.8341
17317TIP3    H173442   0.684   5.512   3.581  1.8938  2.5047  1.4480
17317TIP3    H273443   0.618   5.531   3.716 -1.6641 -1.6080  0.5384
17318TIP3   OH273444   2.261   2.286   5.044 -0.2608  0.3674 -0.2580
17318TIP3    H173445   2.197   2.274   5.115 -1.2536 -0.8508 -1.3064
17318TIP3    H273446   2.216   2.339   4.979 -0.2440 -0.5531 -1.0361
17319TIP3   OH273447   0.567   4.328   0.252 -0.1933 -0.5488  0.5419
17319TIP3    H173448   0.546   4.234   0.252  0.6443 -0.7852 -1.3701
17319TIP3    H273449   0.527   4.361   0.172 -2.2007  1.2168  2.1363
17320TIP3   OH273450   3.580   2.700  15.771  0.6680 -0.5119 -0.2763
17320TIP3    H173451   3.641   2.764  15.807  0.6835 -0.6435 -0.0674
17320TIP3    H273452   3.510   2.695  15.836  1.4554 -1.9072  0.4979
17321TIP3   OH273453   2.784   5.882  14.811  0.6240 -0.3198 -0.5007
17321TIP3    H173454   2.729   5.946  14.858 -0.5465 -0.5111 -1.5598
17321TIP3    H273455   2.851   5.936  14.767  0.2197  0.0939 -0.6171
17322TIP3   OH273456   5.693   1.478  11.715  0.0727  0.2864  0.5223
17322TIP3    H173457   5.672   1.475  11.808 -1.1143 -1.3324  0.2540
17322TIP3    H273458   5.764   1.416  11.704  0.3164  0.5894  0.3717
17323TIP3   OH273459   6.325   2.782  11.244  0.8877 -0.0310 -0.3318
17323TIP3    H173460   6.391   2.796  11.176  2.8154 -0.0476  1.4275
17323TIP3    H273461   6.335   2.690  11.268  1.6776  0.4378  1.3116
17324TIP3   OH273462   2.401   0.763  11.750  0.0614  0.0382  0.6272
17324TIP3    H173463   2.447   0.682  11.729 -0.9095 -0.7243  1.3527
17324TIP3    H273464   2.398   0.765  11.846  2.1487  2.1490  0.7442
17325TIP3   OH273465   5.259   0.096  16.912 -0.1916  0.1479 -0.1626
17325TIP3    H173466   5.245   0.112  17.005  1.0935 -1.5123  0.3650
17325TIP3    H273467   5.206   0.162  16.868 -0.4950  1.2352  1.7386
17326TIP3   OH273468   3.337   1.361   4.669 -0.4922  0.4416 -0.0066
17326TIP3    H173469   3.350   1.447   4.708  0.0756  0.0457  0.6768
17326TIP3    H273470   3.242   1.348   4.670 -0.5155  0.6821  0.7032
17327TIP3   OH273471   6.812   0.934  16.854 -0.0673  0.4521  0.1912
17327TIP3    H173472   6.761   0.876  16.798 -0.5048  1.5017 -0.5294
17327TIP3    H273473   6.867   0.984  16.793 -1.4730  2.5394  0.5102
17328TIP3   OH273474   6.448   1.273   2.717  0.2576  0.1558  0.4701
17328TIP3    H173475   6.528   1.267   2.665 -1.0421  2.1183 -2.0206
17328TIP3    H273476   6.448   1.362   2.752 -1.7629  0.9923 -1.4317
17329TIP3   OH273477   2.192   6.414   3.207  0.1066 -0.3838  0.1976
17329TIP3    H173478   2.102   6.436   3.230  0.4337 -0.2368  1.4019
17329TIP3    H273479   2.192   6.319   3.200 -0.3477 -0.3224 -0.7558
17330TIP3   OH273480   1.283   4.681  12.261 -0.0464  0.1072 -0.1099
17330TIP3    H173481   1.250   4.749  12.203  2.9325  1.5140 -0.3284
17330TIP3    H273482   1.301   4.727  12.343 -1.0214 -1.1472  0.8431
17331TIP3   OH273483   5.992   2.188   4.967  0.2411 -0.0968  0.0291
17331TIP3    H173484   6.045   2.244   5.025 -0.1234  0.5420 -0.2513
17331TIP3    H273485   5.937   2.249   4.919  0.4667 -0.6340 -0.9291
17332TIP3   OH273486   5.241   1.373   2.738  0.4443 -0.6470 -0.4303
17332TIP3    H173487   5.268   1.305   2.800  1.5712  0.2653  0.1099
17332TIP3    H273488   5.203   1.442   2.792  1.4331  0.1562 -0.7314
17333TIP3   OH273489   2.252   4.384   6.399 -0.3047  0.1474 -0.4387
17333TIP3    H173490   2.217   4.336   6.474  0.9428 -0.6686 -0.3559
17333TIP3    H273491   2.328   4.430   6.434 -1.2869  1.9753 -0.5918
17334TIP3   OH273492   2.319   5.546  14.444  0.1380  0.0871  0.3560
17334TIP3    H173493   2.371   5.597  14.507  2.8299 -4.0851  1.9416
17334TIP3    H273494   2.382   5.518  14.378 -0.7230 -2.4682  0.5066
17335TIP3   OH273495   2.987   1.810   4.710  0.0560  0.0900  0.4049
17335TIP3    H173496   3.002   1.874   4.641  1.7765  0.5547  1.1657
17335TIP3    H273497   3.015   1.727   4.672  2.0162  0.5108  0.8625
17336TIP3   OH273498   6.540   4.928  11.089 -0.1853  0.4072 -0.1598
17336TIP3    H173499   6.535   5.015  11.051  0.2522  0.3113 -0.4434
17336TIP3    H273500   6.525   4.868  11.015  3.8168  0.0893 -0.9878
17337TIP3   OH273501   2.151   0.478   1.341 -0.0067 -0.1846 -0.6408
17337TIP3    H173502   2.186   0.536   1.273  1.0971  0.5890  0.5208
17337TIP3    H273503   2.070   0.520   1.368 -0.9135 -0.9690 -2.0572
17338TIP3   OH273504   5.255   6.787  14.560 -0.0806  0.1225  0.0061
17338TIP3    H173505   5.275   6.866  14.610  0.4026  0.5508 -0.8419
17338TIP3    H273506   5.284   6.715  14.616  0.4757  0.5939  0.3362
17339TIP3   OH273507   6.085   4.025   0.718  0.0543  0.3400 -0.1710
17339TIP3    H173508   6.055   4.034   0.808  0.2767 -0.0471 -0.0583
17339TIP3    H273509   6.039   4.094   0.671  0.2268  0.7874  0.3109
17340TIP3   OH273510   4.770   5.172   5.054 -0.6385  0.1262  0.0225
17340TIP3    H173511   4.730   5.216   4.979  0.3615 -0.7474 -1.0640
17340TIP3    H273512   4.857   5.210   5.062  0.7510 -2.3954 -1.7447
17341TIP3   OH273513   2.390   0.015  11.989  0.2076  0.1567  0.1835
17341TIP3    H173514   2.475  -0.006  11.951 -0.1742  0.2740 -0.7426
17341TIP3    H273515   2.357   0.088  11.937  0.0111  0.8434  1.2178
17342TIP3   OH273516   5.357   0.759  16.974  0.3547  0.0524  0.4440
17342TIP3    H173517   5.329   0.698  16.905 -1.0389  0.3779  0.6903
17342TIP3    H273518   5.445   0.786  16.948  1.0618 -2.1281  0.3759
17343TIP3   OH273519   4.222   6.323   4.512  0.4718  0.1299  0.8492
17343TIP3    H173520   4.310   6.362   4.510  0.7970 -0.5784  0.8738
17343TIP3    H273521   4.232   6.244   4.565  0.2156 -0.8650 -0.5205
17344TIP3   OH273522   5.318   6.361   2.311 -1.1795 -0.0680  0.2519
17344TIP3    H173523   5.272   6.346   2.228  0.4055  0.1451 -0.6974
17344TIP3    H273524   5.359   6.278   2.332 -0.5869  0.2085  0.1993
17345TIP3   OH273525   0.240   4.081  13.690  0.1700 -0.1639 -0.3977
17345TIP3    H173526   0.251   4.175  13.707 -1.3204  0.1735 -1.0604
17345TIP3    H273527   0.164   4.057  13.744 -0.7473 -0.4789 -1.7691
17346TIP3   OH273528   6.314   1.268   4.506 -0.1279  0.6272  0.1900
17346TIP3    H173529   6.392   1.215   4.521 -1.0405 -1.4354 -1.7296
17346TIP3    H273530   6.342   1.334   4.442  0.9625  2.4795  2.4445
17347TIP3   OH273531   5.782   2.661  13.656  0.1640  0.4729 -0.6107
17347TIP3    H173532   5.862   2.698  13.693 -0.5355  0.9287  0.5057
17347TIP3    H273533   5.717   2.731  13.664 -0.6772 -0.3193 -0.2583
17348TIP3   OH273534   0.343   2.143   5.704  0.1203  0.0465  0.3908
17348TIP3    H173535   0.351   2.230   5.745 -1.6875  0.5047 -0.1348
17348TIP3    H273536   0.335   2.083   5.777  0.8146  0.3747  0.7508
17349TIP3   OH273537   3.923   5.642  11.659  0.4215 -1.1070 -0.1173
17349TIP3    H173538   3.931   5.710  11.592  1.8129 -1.8442 -0.7444
17349TIP3    H273539   3.982   5.670  11.729  1.0106 -1.6548 -0.3834
17350TIP3   OH273540   1.099   2.686   1.957  0.1001  0.8741 -0.1340
17350TIP3    H173541   1.086   2.596   1.988 -0.3098  1.1265  0.4469
17350TIP3    H273542   1.173   2.680   1.896 -0.0495  0.1141 -0.2467
17351TIP3   OH273543   6.811   3.530  11.274 -0.0474 -0.3655 -0.1275
17351TIP3    H173544   6.872   3.467  11.234  0.8128  2.5088 -3.9463
17351TIP3    H273545   6.740   3.476  11.308  1.5270 -3.4802 -1.3748
17352TIP3   OH273546   0.056   5.652  15.129  0.0292 -0.1887 -0.2055
17352TIP3    H173547   0.068   5.668  15.222  0.2969  1.9656 -0.5662
17352TIP3    H273548   0.040   5.558  15.123  0.4834 -0.4543  1.9471
17353TIP3   OH273549   1.377   3.721  15.823 -0.3485 -0.2382 -0.4833
17353TIP3    H173550   1.356   3.776  15.899 -0.4380 -0.7782 -0.1148
17353TIP3    H273551   1.328   3.640  15.838 -0.1545 -0.4523 -0.9882
17354TIP3   OH273552   1.126   3.965  11.652 -0.6164 -0.2193  0.6264
17354TIP3    H173553   1.108   3.871  11.657  1.1277 -0.6182  0.0078
17354TIP3    H273554   1.045   4.007  11.680 -2.8882 -1.8232 -2.8593
17355TIP3   OH273555   6.188   2.342   0.999  0.2489 -0.0149  0.4533
17355TIP3    H173556   6.255   2.344   0.931 -0.7868 -1.6122 -0.7074
17355TIP3    H273557   6.206   2.262   1.049 -0.7369 -0.4555  0.1422
17356TIP3   OH273558   5.113   4.776  13.521 -0.1527 -0.0368 -0.0524
17356TIP3    H173559   5.199   4.781  13.478 -0.3522  0.8706 -0.3709
17356TIP3    H273560   5.105   4.860  13.567 -1.7094  0.7528 -1.6577
17357TIP3   OH273561   4.998   2.243   2.041 -1.0803  0.5371 -0.3324
17357TIP3    H173562   4.951   2.244   2.125 -0.2702  1.9916  0.1439
17357TIP3    H273563   5.045   2.159   2.041 -1.2248  0.4456  0.5962
17358TIP3   OH273564   4.041   4.273  16.576 -0.3417  0.4721 -0.7125
17358TIP3    H173565   4.093   4.302  16.651  0.4791 -1.8120 -0.3279
17358TIP3    H273566   4.106   4.257  16.507 -0.9308  0.9309 -1.3997
17359TIP3   OH273567   1.684   4.207  13.960 -0.4077  0.6814  0.1522
17359TIP3    H173568   1.776   4.218  13.983 -0.5968  1.4744  0.5821
17359TIP3    H273569   1.636   4.248  14.032 -1.0725  0.9938 -0.4554
17360TIP3   OH273570   5.114   3.544  15.877  0.7920 -0.2065 -0.1150
17360TIP3    H173571   5.099   3.540  15.782 -3.4964 -1.0136  0.3658
17360TIP3    H273572   5.127   3.453  15.903 -1.1336 -0.4148  0.3016
17361TIP3   OH273573   2.022   0.101  14.330 -0.1246  0.1453  0.4617
17361TIP3    H173574   1.988   0.172  14.385 -1.5443 -1.1033  1.2801
17361TIP3    H273575   2.020   0.137  14.241  0.9240  1.7327  1.0389
17362TIP3   OH273576   5.783   0.715  13.927  0.4013 -0.2911 -0.4761
17362TIP3    H173577   5.846   0.648  13.955  0.6674 -0.0165 -0.4073
17362TIP3    H273578   5.796   0.787  13.989  0.7122  0.1653 -1.0670
17363TIP3   OH273579   1.667   4.704   0.349  0.0442  0.1182 -0.0010
17363TIP3    H173580   1.685   4.715   0.255 -1.4738 -1.2603 -0.4974
17363TIP3    H273581   1.604   4.632   0.353  1.7656 -1.3804  2.2513
17364TIP3   OH273582   1.929   4.887   5.586  0.2570 -0.0217  0.0499
17364TIP3    H173583   1.952   4.830   5.512 -0.3344 -0.3300  0.0992
17364TIP3    H273584   2.013   4.923   5.615  0.6015 -0.6107 -0.1921
17365TIP3   OH273585   4.116   2.037  15.128 -0.0126 -0.1291  0.1303
17365TIP3    H173586   4.090   2.129  15.123 -0.5199 -0.3185 -1.0356
17365TIP3    H273587   4.123   2.009  15.037 -1.2632 -1.6227  0.4530
17366TIP3   OH273588   1.499   1.649   4.881  0.2219  0.1966 -0.2123
17366TIP3    H173589   1.566   1.629   4.816  0.8642  1.0398  0.1714
17366TIP3    H273590   1.439   1.708   4.835 -0.5952 -0.9945 -0.7312
17367TIP3   OH273591   4.513   3.633   2.991 -0.7360 -1.0392 -0.4093
17367TIP3    H173592   4.510   3.666   3.080  0.9008 -0.5889 -0.5030
17367TIP3    H273593   4.479   3.705   2.937 -1.0782 -1.0663 -0.2361
17368TIP3   OH273594   0.804   0.851   4.965 -0.2748 -0.3228  0.2855
17368TIP3    H173595   0.853   0.867   5.046 -1.1799  1.3488  0.5529
17368TIP3    H273596   0.720   0.814   4.994 -0.5720  0.2094  0.1312
17369TIP3   OH273597   3.468   4.075  10.520  0.0130 -0.3259 -0.3894
17369TIP3    H173598   3.410   4.151  10.510  1.5055  0.8651 -0.3394
17369TIP3    H273599   3.554   4.113  10.539  0.5535 -2.0750  0.8486
17370TIP3   OH273600   6.235   0.092  15.110 -0.1520  0.7493 -0.6769
17370TIP3    H173601   6.324   0.126  15.116 -0.8216  2.4953  0.0790
17370TIP3    H273602   6.242   0.001  15.139  1.1178  1.3907  1.2063
17371TIP3   OH273603   3.279   1.622  14.467 -0.2097  0.5879  0.0531
17371TIP3    H173604   3.190   1.609  14.434 -0.1816 -0.5658  0.3814
17371TIP3    H273605   3.330   1.644  14.389 -0.8321  1.5681 -0.0894
17372TIP3   OH273606   2.319   2.756   0.461 -0.1518 -0.1195  0.1158
17372TIP3    H173607   2.397   2.702   0.470 -0.6177 -0.8814 -0.2780
17372TIP3    H273608   2.352   2.845   0.450  0.6186 -0.2126  1.4430
17373TIP3   OH273609   0.985   1.121  14.852  0.1571 -0.3628 -0.6047
17373TIP3    H173610   0.946   1.148  14.935  1.1621 -1.1955  0.1626
17373TIP3    H273611   1.074   1.156  14.854 -0.5971  1.8803 -2.5323
17374TIP3   OH273612   1.889   4.028  11.726 -0.2350  0.0316 -0.6803
17374TIP3    H173613   1.917   3.979  11.648 -0.0929 -2.1770  0.6857
17374TIP3    H273614   1.799   4.056  11.705 -0.0140 -0.0521 -1.8347
17375TIP3   OH273615   0.098   0.091   2.706 -0.1713  0.1708 -0.0344
17375TIP3    H173616   0.134   0.180   2.696 -0.3993  0.1268 -1.5609
17375TIP3    H273617   0.005   0.102   2.688 -0.7066  0.0380  2.4409
17376TIP3   OH273618   5.920   1.914   2.926  0.0559  0.2746 -0.3430
17376TIP3    H173619   6.006   1.906   2.884 -0.5861 -2.8529 -1.3212
17376TIP3    H273620   5.923   1.851   2.998 -0.1000  3.0677  2.3300
17377TIP3   OH273621   5.457   4.796  11.855 -0.0687  0.5430 -0.2832
17377TIP3    H173622   5.505   4.725  11.898  0.1535 -0.4065 -2.0121
17377TIP3    H273623   5.420   4.847  11.927  1.2454 -0.2920  1.0346
17378TIP3   OH273624   4.746   5.679  10.488  0.2797  0.7698 -0.6192
17378TIP3    H173625   4.794   5.630  10.555 -1.1275 -0.4566 -0.4375
17378TIP3    H273626   4.773   5.770  10.499  1.3001  0.3432  0.5254
17379TIP3   OH273627   5.250   1.453   4.713  0.3587  0.7175 -0.1395
17379TIP3    H173628   5.194   1.418   4.643 -1.4294  1.4261  0.8688
17379TIP3    H273629   5.313   1.383   4.730 -1.6008 -1.1172  0.1708
17380TIP3   OH273630   0.488   3.679   2.150  0.1999  0.6756 -0.4610
17380TIP3    H173631   0.572   3.724   2.148  0.4204  0.2511 -0.7504
17380TIP3    H273632   0.432   3.735   2.205  0.8955  0.5673  0.3847
17381TIP3   OH273633   1.265   2.455   2.575  0.1403  1.0232 -0.1244
17381TIP3    H173634   1.171   2.443   2.563  0.1298  0.0172  0.8578
17381TIP3    H273635   1.304   2.418   2.496 -0.2821  1.7544 -0.6944
17382TIP3   OH273636   6.006   4.325   0.015 -0.3630 -0.3595  0.0440
17382TIP3    H173637   6.013   4.229   0.012  3.0842 -0.5829  4.6639
17382TIP3    H273638   6.088   4.356  -0.022  0.0038  0.5620  1.5620
17383TIP3   OH273639   0.267   3.062  11.422 -0.7233  0.2530  0.3072
17383TIP3    H173640   0.315   3.144  11.431 -2.0496  0.9801  0.9848
17383TIP3    H273641   0.312   3.001  11.480  1.9440 -0.3716 -2.1529
17384TIP3   OH273642   4.409   4.367   1.718 -0.0315 -0.0040 -0.0149
17384TIP3    H173643   4.370   4.317   1.647  0.0528 -0.8540  0.5309
17384TIP3    H273644   4.380   4.324   1.798 -2.6100  2.6959  0.6692
17385TIP3   OH273645   3.511   2.071  12.936 -0.3327  0.0486  0.2099
17385TIP3    H173646   3.491   2.160  12.907 -0.4348  0.2800  0.9635
17385TIP3    H273647   3.607   2.070  12.946 -0.3822  0.2620  0.7661
17386TIP3   OH273648   6.719   2.771  15.592  0.4126 -0.4533  0.0472
17386TIP3    H173649   6.670   2.692  15.616 -0.5212  0.5553  1.6614
17386TIP3    H273650   6.770   2.745  15.515 -0.1663 -2.4981  0.2886
17387TIP3   OH273651   0.731   4.330   5.121  0.6109  0.8692  0.3483
17387TIP3    H173652   0.747   4.348   5.214  0.8215  1.2560  0.2388
17387TIP3    H273653   0.812   4.357   5.077  0.2895  1.2559 -0.0180
17388TIP3   OH273654   0.280   4.920   0.695 -0.3884 -0.3643  0.5834
17388TIP3    H173655   0.360   4.906   0.746 -0.0365 -0.6846 -0.0358
17388TIP3    H273656   0.250   4.832   0.675 -0.8794 -0.2415  0.7785
17389TIP3   OH273657   5.462   3.873  14.605  0.1554  0.8238 -0.4187
17389TIP3    H173658   5.399   3.914  14.545  0.9123 -0.3258 -2.0746
17389TIP3    H273659   5.467   3.782  14.576 -0.1090 -0.0376  2.0095
17390TIP3   OH273660   4.831   5.554  14.944  0.3660  0.0995  0.0475
17390TIP3    H173661   4.913   5.539  14.991 -0.2159  0.7113  1.3012
17390TIP3    H273662   4.809   5.470  14.906  1.3283 -0.1878  0.1148
17391TIP3   OH273663   4.234   0.558  12.504 -0.4763 -0.1469  0.3311
17391TIP3    H173664   4.203   0.629  12.561 -0.1542  0.6413 -0.4537
17391TIP3    H273665   4.247   0.484  12.563  0.3490  0.7946  1.3746
17392TIP3   OH273666   0.374   4.093   3.442  0.1436 -0.6920 -0.6044
17392TIP3    H173667   0.373   4.045   3.525  1.2093 -0.3909 -0.4136
17392TIP3    H273668   0.448   4.058   3.394  2.8304  2.6213  0.7042
17393TIP3   OH273669   3.343   6.342  14.623  0.1188 -0.3381  0.7071
17393TIP3    H173670   3.258   6.385  14.631 -0.4637 -1.4054  0.4265
17393TIP3    H273671   3.333   6.261  14.673  1.0214 -0.4180  0.7771
17394TIP3   OH273672   5.637   2.629   5.925  0.2096 -0.3304 -0.1113
17394TIP3    H173673   5.621   2.659   5.835  2.2832 -1.8679 -1.0754
17394TIP3    H273674   5.640   2.534   5.919  0.8889 -0.4490  1.4947
17395TIP3   OH273675   0.646   5.509  17.136 -0.5488 -0.9562 -0.8701
17395TIP3    H173676   0.609   5.581  17.188 -1.1497 -2.0876  0.3312
17395TIP3    H273677   0.587   5.501  17.062  0.8744  1.3464 -2.3949
17396TIP3   OH273678   5.567   0.655   4.630 -0.2264  0.8795  0.0501
17396TIP3    H173679   5.484   0.609   4.618 -2.1676  3.3192  2.7300
17396TIP3    H273680   5.627   0.587   4.661 -1.8007 -0.6003  0.0280
17397TIP3   OH273681   4.998   1.794   3.140  0.0914 -0.1464  0.3786
17397TIP3    H173682   5.054   1.871   3.128  1.1137 -0.9628 -0.2293
17397TIP3    H273683   5.042   1.742   3.207 -1.2971  0.4017  1.7862
17398TIP3   OH273684   4.136   4.619  12.081 -0.1340 -0.5637  0.3610
17398TIP3    H173685   4.058   4.568  12.060 -0.5890  1.0893 -2.5795
17398TIP3    H273686   4.208   4.556  12.076 -1.0046 -1.5980  0.4413
17399TIP3   OH273687   0.156   3.747  12.019 -0.4884  0.1877 -0.0887
17399TIP3    H173688   0.115   3.813  12.076  0.7238 -1.1928  2.5679
17399TIP3    H273689   0.136   3.777  11.930 -3.3783  1.9495  0.9897
17400TIP3   OH273690   3.778   3.308  17.071 -0.1567  0.3423  0.0244
17400TIP3    H173691   3.847   3.242  17.072 -0.6132 -0.2461 -1.8257
17400TIP3    H273692   3.801   3.369  17.141  0.0803 -1.9450  2.0689
17401TIP3   OH273693   3.691   4.099   2.698  0.2002  0.7735 -0.6804
17401TIP3    H173694   3.643   4.103   2.615 -0.7803  0.6379 -0.1327
17401TIP3    H273695   3.753   4.027   2.685 -2.0976 -1.4592 -0.2345
17402TIP3   OH273696   1.145   3.844  14.909  0.5919 -0.1765  0.5992
17402TIP3    H173697   1.173   3.756  14.884  1.0190  0.0206  0.3611
17402TIP3    H273698   1.189   3.901  14.847  1.0589  0.2727  1.3214
17403TIP3   OH273699   4.244   0.439   3.106 -0.0681 -0.3246 -0.3937
17403TIP3    H173700   4.225   0.483   3.023 -0.8003 -1.0083 -0.6014
17403TIP3    H273701   4.330   0.398   3.092 -0.2540 -0.5568 -0.8721
17404TIP3   OH273702   0.307   2.888  12.033 -0.2923  0.2068  0.0087
17404TIP3    H173703   0.253   2.878  11.955  0.6899  0.1948 -0.6891
17404TIP3    H273704   0.271   2.825  12.095  0.6557 -1.8603 -1.4227
17405TIP3   OH273705   5.129   2.887   3.410 -0.3147  0.1512 -0.2110
17405TIP3    H173706   5.132   2.958   3.474  0.6398 -0.4088  0.3993
17405TIP3    H273707   5.077   2.819   3.453  0.2004 -0.1657 -0.0735
17406TIP3   OH273708   6.723   0.078  17.085  0.1988 -0.0904  0.5240
17406TIP3    H173709   6.737   0.171  17.105  0.1755 -0.3500  1.8486
17406TIP3    H273710   6.648   0.078  17.025  0.4461  0.7636  0.1918
17407TIP3   OH273711   0.854   3.559  14.406 -0.2778 -0.3668 -0.5552
17407TIP3    H173712   0.828   3.493  14.471 -1.7567  1.2599  0.5930
17407TIP3    H273713   0.873   3.508  14.327 -0.8135 -2.2168  0.4464
17408TIP3   OH273714   3.298   1.438   1.435 -0.0749  0.3384 -0.0496
17408TIP3    H173715   3.263   1.363   1.386 -1.4405 -0.1436  1.5743
17408TIP3    H273716   3.269   1.515   1.386  2.0133 -0.1089 -2.1926
17409TIP3   OH273717   5.777   0.190   3.591 -0.3218  0.4257 -0.3528
17409TIP3    H173718   5.836   0.263   3.611  0.1572  0.1928 -0.8904
17409TIP3    H273719   5.690   0.229   3.589 -0.0232  1.0873 -1.1311
17410TIP3   OH273720   1.160   1.273   5.302  0.2990 -0.0187  0.3017
17410TIP3    H173721   1.095   1.281   5.231  1.0790  0.0495 -0.4138
17410TIP3    H273722   1.177   1.364   5.329  0.7635  0.0224 -0.1250
17411TIP3   OH273723   4.949   0.070  12.137  0.2839  0.2481 -0.3426
17411TIP3    H173724   4.930   0.157  12.171  0.2825  0.6200 -1.2478
17411TIP3    H273725   4.909   0.069  12.050  1.2583 -0.2538 -0.8017
17412TIP3   OH273726   2.998   0.193   1.594 -0.9101 -0.1454 -0.0446
17412TIP3    H173727   3.047   0.255   1.540 -2.3673  0.0044 -1.2663
17412TIP3    H273728   3.065   0.139   1.635  0.2872 -0.0200 -1.7140
17413TIP3   OH273729   1.135   4.361   2.583 -0.0290  0.3326 -0.1255
17413TIP3    H173730   1.118   4.447   2.543  0.4949  0.8423  0.7376
17413TIP3    H273731   1.146   4.302   2.508 -1.7672  0.7288 -0.7306
17414TIP3   OH273732   6.064   5.407  11.240  0.3100 -0.3067 -0.7457
17414TIP3    H173733   5.996   5.461  11.199  0.8584  1.1093  0.1218
17414TIP3    H273734   6.108   5.363  11.167 -0.0177  0.6044 -1.5118
17415TIP3   OH273735   4.824   2.579  13.508  0.2233  0.1860  0.0040
17415TIP3    H173736   4.772   2.555  13.585  1.5638  1.6278  1.4512
17415TIP3    H273737   4.862   2.496  13.478 -1.0808 -0.5366  0.3088
17416TIP3   OH273738   0.043   4.337  14.232  0.0243 -0.3082  0.1684
17416TIP3    H173739  -0.002   4.314  14.151  1.7030 -0.9582 -0.6115
17416TIP3    H273740   0.046   4.433  14.231 -2.6552 -0.1336  1.0206
17417TIP3   OH273741   4.164   5.631  10.243 -0.8219 -0.2251 -0.0167
17417TIP3    H173742   4.191   5.722  10.243  0.3540 -0.5458  1.4209
17417TIP3    H273743   4.129   5.615  10.331  0.6172 -1.5844  0.3596
17418TIP3   OH273744   2.125   0.029   5.247 -0.1989 -0.2612 -0.4249
17418TIP3    H173745   2.151   0.117   5.276 -3.0661  0.0455  1.7518
17418TIP3    H273746   2.048   0.044   5.193 -1.7847 -1.3878  1.3629
17419TIP3   OH273747   3.859   1.922   2.664 -0.1084 -0.0555  0.1039
17419TIP3    H173748   3.943   1.898   2.625 -1.0146  1.5347 -3.1309
17419TIP3    H273749   3.824   1.840   2.698  1.5822 -1.2271 -0.8391
17420TIP3   OH273750   5.050   6.637  16.242 -0.3180 -1.2187 -0.2569
17420TIP3    H173751   5.074   6.706  16.180 -3.8971 -0.8674 -1.4794
17420TIP3    H273752   5.096   6.660  16.322 -1.6611  2.9940 -0.4417
17421TIP3   OH273753   4.573   5.794  14.655  0.9423 -0.8070 -0.0378
17421TIP3    H173754   4.605   5.784  14.745 -0.7439 -0.5378  0.6224
17421TIP3    H273755   4.491   5.745  14.652  0.6115 -0.2332 -1.2307
17422TIP3   OH273756   3.603   4.601  12.114 -0.0587 -0.3540  0.2640
17422TIP3    H173757   3.691   4.604  12.152 -0.3204 -1.9714  1.1093
17422TIP3    H273758   3.613   4.544  12.037 -0.5299 -1.3374  0.9157
17423TIP3   OH273759   6.467   1.663   5.602  0.0836  0.0931  0.3543
17423TIP3    H173760   6.470   1.666   5.506  1.1678  1.4945  0.3893
17423TIP3    H273761   6.504   1.748   5.629  1.2999 -0.9036  2.0123
17424TIP3   OH273762   0.239   0.465  14.403  0.2427 -0.0516 -0.1009
17424TIP3    H173763   0.170   0.408  14.436  1.9929 -1.6156  1.1016
17424TIP3    H273764   0.270   0.513  14.479  0.7817  0.3082 -0.5348
17425TIP3   OH273765   4.360   1.485  16.855  0.0880 -0.0639 -0.1064
17425TIP3    H173766   4.328   1.401  16.822 -1.5858  0.3738  0.2921
17425TIP3    H273767   4.301   1.506  16.927  1.9097  0.3649  1.3440
17426TIP3   OH273768   2.832   1.626   5.411 -0.0585 -0.3534  0.4435
17426TIP3    H173769   2.859   1.662   5.326 -0.2131  1.6631  1.1900
17426TIP3    H273770   2.913   1.592   5.449  0.2908  0.1018  0.1178
17427TIP3   OH273771   1.130   4.323   6.250 -0.1186 -0.2247  0.0566
17427TIP3    H173772   1.106   4.233   6.225  0.5495 -0.2484 -0.5102
17427TIP3    H273773   1.159   4.315   6.341 -1.5171 -0.3193  0.5317
17428TIP3   OH273774   0.160   5.987  16.389 -0.0302 -0.0679  0.2594
17428TIP3    H173775   0.072   5.989  16.428 -0.1418  0.2996 -0.0105
17428TIP3    H273776   0.144   5.987  16.295  0.2688  0.6370  0.2058
17429TIP3   OH273777   5.372   0.332  15.880 -0.2950  0.4193 -0.1853
17429TIP3    H173778   5.293   0.303  15.926  0.5344  0.3239  1.2612
17429TIP3    H273779   5.428   0.254  15.878 -0.1390  0.5448 -0.9946
17430TIP3   OH273780   5.409   0.868   1.531 -0.0719 -0.6327 -0.6726
17430TIP3    H173781   5.338   0.910   1.579  0.8937 -0.3681  0.5541
17430TIP3    H273782   5.369   0.842   1.448 -1.6745 -0.7574  0.1089
17431TIP3   OH273783   3.459   3.278   0.484  0.3031  0.2725 -0.6186
17431TIP3    H173784   3.494   3.252   0.569  1.8173  1.1433 -0.9425
17431TIP3    H273785   3.409   3.201   0.454 -2.5714  0.8339  2.1763
17432TIP3   OH273786   3.501   1.072   6.369  0.3743 -0.0019 -0.2824
17432TIP3    H173787   3.586   1.117   6.365 -0.5388  1.8577  0.0922
17432TIP3    H273788   3.464   1.082   6.282  1.3995 -2.7379 -1.1287
17433TIP3   OH273789   1.259   3.063  12.844 -0.7363 -0.2789 -0.3694
17433TIP3    H173790   1.319   3.082  12.916  0.5535  1.2409 -1.7655
17433TIP3    H273791   1.212   2.984  12.872 -0.0800  0.0858  1.9779
17434TIP3   OH273792   0.950   6.282  12.235  0.1665 -0.2536 -0.4754
17434TIP3    H173793   0.921   6.337  12.162  0.7582 -0.2298 -0.7010
17434TIP3    H273794   0.921   6.194  12.213  0.8204 -0.3400 -1.0123
17435TIP3   OH273795   4.486   3.420  11.200 -0.2249 -0.2859 -0.0868
17435TIP3    H173796   4.537   3.367  11.139 -0.4111 -0.4483 -0.1053
17435TIP3    H273797   4.471   3.503  11.154  0.7158  0.0809  0.2442
17436TIP3   OH273798   4.050   2.913   2.639 -0.1609 -0.5187  0.1539
17436TIP3    H173799   4.081   2.917   2.549  0.1286 -1.5363  0.1986
17436TIP3    H273800   4.006   2.829   2.646 -0.6851 -0.2011  0.8119
17437TIP3   OH273801   5.305   5.135  11.833  0.3561 -0.1654 -0.4825
17437TIP3    H173802   5.374   5.094  11.781  3.4272  0.5965  2.6675
17437TIP3    H273803   5.314   5.229  11.815  2.7887  0.3386  2.5581
17438TIP3   OH273804   5.474   4.837   4.880  0.5906 -0.2937  0.9270
17438TIP3    H173805   5.418   4.769   4.843  3.3482 -0.8819 -2.7826
17438TIP3    H273806   5.536   4.790   4.935  2.0371 -0.8187 -1.0529
17439TIP3   OH273807   6.438   5.328   3.425  0.0909  0.3170 -0.1799
17439TIP3    H173808   6.389   5.291   3.352 -0.0239  0.2180 -0.0544
17439TIP3    H273809   6.497   5.258   3.453 -1.5163 -0.5176  1.3422
17440TIP3   OH273810   5.385   1.661   0.901 -0.2049 -0.2807 -0.1706
17440TIP3    H173811   5.369   1.752   0.876  1.3744 -0.6445 -2.8705
17440TIP3    H273812   5.410   1.665   0.993 -2.5045  1.6942  0.4448
17441TIP3   OH273813   4.756   3.800   1.771  0.2002 -0.3025 -0.5307
17441TIP3    H173814   4.667   3.767   1.758 -0.1737 -0.8632  2.6287
17441TIP3    H273815   4.811   3.722   1.761 -0.1214 -0.8192  1.3233
17442TIP3   OH273816   1.402   1.176   5.190  0.6509 -0.9972  0.1563
17442TIP3    H173817   1.368   1.200   5.103 -1.1253 -1.7886  0.5801
17442TIP3    H273818   1.339   1.213   5.251  2.3986  0.3784  1.2031
17443TIP3   OH273819   1.957   6.025   2.512  0.1475  0.7415 -0.3141
17443TIP3    H173820   1.880   6.067   2.550 -1.5170 -1.3758 -1.1811
17443TIP3    H273821   1.934   6.009   2.421  1.1926 -0.8653 -0.3326
17444TIP3   OH273822   0.065   2.101  15.539  0.0857 -0.1457  0.1585
17444TIP3    H173823   0.125   2.059  15.601  3.3739  0.5256 -2.2951
17444TIP3    H273824  -0.009   2.041  15.533  1.4460 -2.1467  1.8158
17445TIP3   OH273825   0.530   1.054  12.127  0.1698 -0.6642  0.2501
17445TIP3    H173826   0.535   1.140  12.169 -2.4438 -0.3663  0.1352
17445TIP3    H273827   0.497   1.073  12.039  1.8935 -1.6245 -0.6632
17446TIP3   OH273828   3.749   3.418   3.094  0.2200  0.2995  0.4331
17446TIP3    H173829   3.816   3.352   3.108 -0.7059 -0.3512  2.2302
17446TIP3    H273830   3.797   3.499   3.077  1.4044 -0.4719  0.0210
17447TIP3   OH273831   5.319   3.638  15.407  0.3967 -0.4330  0.1074
17447TIP3    H173832   5.344   3.730  15.406 -1.0789 -0.0040 -1.1226
17447TIP3    H273833   5.398   3.591  15.435  1.7788  1.0151 -1.2284
17448TIP3   OH273834   3.955   4.154   0.233 -0.3653 -0.1099 -0.7381
17448TIP3    H173835   3.975   4.075   0.283 -0.8387  0.5289  0.5210
17448TIP3    H273836   3.862   4.169   0.249 -0.4393  0.3176 -1.5374
17449TIP3   OH273837   0.257   3.265  13.855 -0.0636 -0.4363  0.7955
17449TIP3    H173838   0.337   3.218  13.833 -0.2547 -1.2732  1.7845
17449TIP3    H273839   0.187   3.201  13.841 -0.6353  0.4313 -0.5242
17450TIP3   OH273840   6.820   5.660   6.463 -0.4981 -0.2136 -0.1218
17450TIP3    H173841   6.889   5.661   6.530 -1.1209 -2.2316  0.6095
17450TIP3    H273842   6.739   5.676   6.512 -1.0396 -2.3518 -0.2405
17451TIP3   OH273843   4.847   2.502  13.125 -0.1924 -0.0676  0.0490
17451TIP3    H173844   4.761   2.461  13.119  0.0496 -0.4195 -1.3162
17451TIP3    H273845   4.904   2.446  13.072  1.0780 -0.3269  1.6427
17452TIP3   OH273846   4.621   6.702  14.030  0.1250 -0.1005  0.1993
17452TIP3    H173847   4.625   6.742  14.116  0.7903  0.8459 -0.2516
17452TIP3    H273848   4.595   6.611  14.046  0.5625 -0.0235  1.4093
17453TIP3   OH273849   6.824   2.559  12.853  0.0857 -0.2989  0.5823
17453TIP3    H173850   6.801   2.468  12.832 -0.1776  0.1101 -0.9911
17453TIP3    H273851   6.765   2.612  12.799  0.2866  0.8225  1.4263
17454TIP3   OH273852   3.436   4.233   5.468 -0.0954 -0.7427  0.3965
17454TIP3    H173853   3.454   4.247   5.562  0.9415 -1.6895  0.3639
17454TIP3    H273854   3.348   4.268   5.455  0.8023  2.0564  1.0992
17455TIP3   OH273855   4.028   1.766   1.505  0.4624  0.0534 -0.1241
17455TIP3    H173856   4.082   1.782   1.427  0.3477 -0.8724 -0.4048
17455TIP3    H273857   3.974   1.845   1.514  0.5979  0.2374 -0.8823
17456TIP3   OH273858   5.373   0.893  15.539  0.0158  0.0013 -0.4067
17456TIP3    H173859   5.457   0.878  15.495 -0.1473  0.3271 -0.8375
17456TIP3    H273860   5.379   0.843  15.620  0.2932 -0.6650 -0.8348
17457TIP3   OH273861   1.370   5.196   0.571 -0.2106  0.1303  0.4960
17457TIP3    H173862   1.380   5.164   0.661 -0.9019  0.1080  0.5771
17457TIP3    H273863   1.354   5.290   0.581 -0.9900  0.0087  0.4506
17458TIP3   OH273864   0.136   1.416  10.856  0.2478  0.1770  0.4802
17458TIP3    H173865   0.057   1.375  10.891  0.0103 -0.1228 -0.3809
17458TIP3    H273866   0.103   1.487  10.802  0.4847 -0.7501 -0.9329
17459TIP3   OH273867   2.863   1.293   3.290  0.1750  0.0528  0.1106
17459TIP3    H173868   2.952   1.289   3.324 -0.0764 -0.6103  0.7127
17459TIP3    H273869   2.832   1.380   3.313  1.1305  0.8027 -1.3132
17460TIP3   OH273870   6.389   1.830   0.323  0.3239 -0.2379  0.2638
17460TIP3    H173871   6.375   1.794   0.236 -0.4130  0.8383 -0.0844
17460TIP3    H273872   6.372   1.924   0.313  1.7920  0.1615  1.2130
17461TIP3   OH273873   3.609   1.429  15.411 -0.3359  0.0747  0.5991
17461TIP3    H173874   3.578   1.516  15.435 -3.1504 -0.4832 -0.6441
17461TIP3    H273875   3.531   1.384  15.377  0.9575 -2.9791  1.2981
17462TIP3   OH273876   3.586   2.215  16.477  0.1396 -1.1491  0.4531
17462TIP3    H173877   3.584   2.285  16.542 -1.4545 -0.0747 -0.6796
17462TIP3    H273878   3.603   2.135  16.527  2.5016  0.0654  1.7182
17463TIP3   OH273879   2.731   2.174   5.443  0.6434 -0.6544 -0.0987
17463TIP3    H173880   2.755   2.242   5.380  2.0635 -0.1356  0.9476
17463TIP3    H273881   2.812   2.125   5.459 -0.0611 -1.7831  0.1329
17464TIP3   OH273882   3.562   5.418  16.085  0.1480  0.2640  0.0951
17464TIP3    H173883   3.534   5.500  16.043  2.3223  1.2498  0.4346
17464TIP3    H273884   3.600   5.446  16.169 -0.6164 -1.2919  1.0088
17465TIP3   OH273885   6.012   3.955   1.784 -0.1756 -0.2046  0.0019
17465TIP3    H173886   5.949   4.011   1.739 -0.8167  0.0442  1.1659
17465TIP3    H273887   6.068   4.017   1.832  0.5458 -0.4567 -0.5156
17466TIP3   OH273888   1.055   6.755  13.985 -0.0102 -0.2143  0.2348
17466TIP3    H173889   0.998   6.725  13.913  0.4816 -1.7863  0.4659
17466TIP3    H273890   1.005   6.735  14.064  0.2220 -0.1809  0.3883
17467TIP3   OH273891   5.819   0.453  15.858 -0.0833 -0.1511  0.1557
17467TIP3    H173892   5.816   0.414  15.771 -1.1871 -0.1721  0.1863
17467TIP3    H273893   5.778   0.388  15.915  0.2703  0.0271  0.6189
17468TIP3   OH273894   3.433   3.586   2.409 -0.4270  0.3859  0.0354
17468TIP3    H173895   3.346   3.549   2.395 -0.9902  1.7399 -0.2305
17468TIP3    H273896   3.416   3.675   2.441  0.8519  0.7317 -0.2003
17469TIP3   OH273897   3.580   6.373  15.506 -0.0131  0.4602  0.0938
17469TIP3    H173898   3.669   6.401  15.527  0.0026 -0.2784  1.0774
17469TIP3    H273899   3.532   6.378  15.589 -0.2839 -1.3198  0.0755
17470TIP3   OH273900   0.946   3.440   0.909 -1.0604 -0.2928  0.0885
17470TIP3    H173901   1.006   3.379   0.952 -4.2014 -2.6867  1.4454
17470TIP3    H273902   0.927   3.399   0.824 -1.4548 -0.0210  0.0458
17471TIP3   OH273903   4.221   1.354   3.641  0.6561  0.2269 -0.3629
17471TIP3    H173904   4.311   1.385   3.639  1.0998 -1.0049 -0.4091
17471TIP3    H273905   4.221   1.275   3.588 -0.4317  0.1461 -0.2775
17472TIP3   OH273906   4.951   0.969   5.306 -0.2106 -0.3351  0.1168
17472TIP3    H173907   5.035   0.928   5.329  0.6158  1.3181  0.1335
17472TIP3    H273908   4.949   0.967   5.210 -0.1952 -0.4382  0.1182
17473TIP3   OH273909   0.769   6.123   1.538  0.6492  0.5630  0.0170
17473TIP3    H173910   0.763   6.155   1.627  1.9319  0.0009  0.3328
17473TIP3    H273911   0.721   6.187   1.486 -2.0200 -0.2360  1.3358
17474TIP3   OH273912   2.403   2.571   2.177 -0.1000 -0.1380 -0.0468
17474TIP3    H173913   2.426   2.621   2.255 -2.4793  0.1138  0.5777
17474TIP3    H273914   2.377   2.637   2.112  0.5901 -0.4073 -0.6149
17475TIP3   OH273915   4.536   4.168  11.141 -0.1356  0.0383  1.1113
17475TIP3    H173916   4.553   4.251  11.185 -0.4780  0.7307 -0.0013
17475TIP3    H273917   4.496   4.194  11.057 -2.0522 -1.3065  1.5469
17476TIP3   OH273918   5.390   6.383  16.026 -0.0840 -0.1018 -0.1468
17476TIP3    H173919   5.375   6.434  15.947  0.5793  0.1554 -0.1084
17476TIP3    H273920   5.469   6.421  16.065  0.4777 -1.1967 -0.1686
17477TIP3   OH273921   1.171   6.400   3.455  0.0927  0.1980  0.3825
17477TIP3    H173922   1.235   6.374   3.520 -0.3007  0.6496  0.9578
17477TIP3    H273923   1.087   6.375   3.492 -0.0112 -1.7363 -0.9946
17478TIP3   OH273924   6.165   4.262   5.308 -0.2691  0.3238  0.0895
17478TIP3    H173925   6.252   4.263   5.269 -0.3430 -1.2805 -0.1888
17478TIP3    H273926   6.124   4.183   5.272 -2.1860  1.5328 -0.5417
17479TIP3   OH273927   3.874   3.596   3.924  0.4181 -0.2302  0.6680
17479TIP3    H173928   3.840   3.540   3.993 -1.7337 -1.0097 -0.9240
17479TIP3    H273929   3.812   3.668   3.918 -0.8461 -1.3901 -1.9418
17480TIP3   OH273930   4.588   4.513  10.386 -0.7212 -0.2613 -0.4946
17480TIP3    H173931   4.668   4.491  10.337 -1.0177 -0.1507 -1.0409
17480TIP3    H273932   4.526   4.444  10.363 -0.8261 -0.2769 -0.1689
17481TIP3   OH273933   0.245   4.222  17.109  0.3885 -0.0138 -0.5368
17481TIP3    H173934   0.267   4.130  17.122 -0.6579  0.0209  2.1658
17481TIP3    H273935   0.149   4.224  17.105  0.3339  1.0015  0.5047
17482TIP3   OH273936   4.919   3.582   4.164 -0.1697  0.3699  0.1367
17482TIP3    H173937   4.863   3.542   4.230  1.7439 -2.7205  0.0850
17482TIP3    H273938   4.955   3.660   4.207 -0.0805 -0.7711  2.2539
17483TIP3   OH273939   1.914   0.665  16.114  0.0443 -0.0126 -0.5414
17483TIP3    H173940   1.893   0.583  16.157  0.8054  0.8419  1.5666
17483TIP3    H273941   2.001   0.652  16.077 -0.3034 -0.5057 -1.1984
17484TIP3   OH273942   3.725   0.492  10.405  0.0951  0.1820 -0.1912
17484TIP3    H173943   3.641   0.509  10.448  0.2192 -2.1930  1.1610
17484TIP3    H273944   3.777   0.570  10.422 -1.5602  1.3944 -0.4207
17485TIP3   OH273945   0.602   3.317  12.310 -0.5268 -0.1160 -0.3337
17485TIP3    H173946   0.694   3.300  12.332 -0.3041  1.6783  0.2318
17485TIP3    H273947   0.563   3.229  12.305  0.8538 -0.8578  0.9465
17486TIP3   OH273948   5.482   3.646  13.825  0.2228  0.5089  0.0385
17486TIP3    H173949   5.427   3.585  13.775  1.2381  0.8986 -1.6286
17486TIP3    H273950   5.420   3.699  13.876 -0.8693  0.2026 -0.9495
17487TIP3   OH273951   2.707   5.137   2.145  0.5148  0.5528  0.1767
17487TIP3    H173952   2.620   5.175   2.135  0.8556  1.9720  2.1091
17487TIP3    H273953   2.767   5.206   2.119  1.0918 -0.0424 -0.1089
17488TIP3   OH273954   0.465   0.743  14.269 -0.3526  0.2085  0.2890
17488TIP3    H173955   0.438   0.710  14.183  0.4132 -2.8611  1.0968
17488TIP3    H273956   0.554   0.776  14.255 -0.0074 -0.8054 -0.0407
17489TIP3   OH273957   1.095   0.922   3.362 -0.9449 -0.1415 -0.4635
17489TIP3    H173958   1.107   0.901   3.454 -1.5347 -0.4606 -0.4540
17489TIP3    H273959   1.173   0.972   3.338 -1.1756  0.6764  0.4243
17490TIP3   OH273960   3.357   1.713  14.708 -0.1274 -1.1111 -0.4234
17490TIP3    H173961   3.446   1.745  14.688 -0.0689  0.5891  2.1044
17490TIP3    H273962   3.321   1.688  14.623  1.3078  2.0774 -2.1601
17491TIP3   OH273963   0.743   3.191  12.930  0.8643 -0.2400 -0.7069
17491TIP3    H173964   0.745   3.279  12.968  1.1377 -1.3356  2.0110
17491TIP3    H273965   0.832   3.175  12.901  0.6896  0.5584 -1.7439
17492TIP3   OH273966   6.133   0.504   2.341 -0.8274  0.1628  0.1779
17492TIP3    H173967   6.209   0.517   2.397  1.0374  0.9213 -2.3705
17492TIP3    H273968   6.058   0.518   2.399  0.8950 -1.1451  2.9262
17493TIP3   OH273969   4.774   1.439  17.206  0.0770 -0.1789 -0.0813
17493TIP3    H173970   4.707   1.406  17.267  0.6374 -0.1732  0.5501
17493TIP3    H273971   4.727   1.451  17.124 -0.0011 -3.3237 -0.6085
17494TIP3   OH273972   0.046   3.577  14.848  0.0598 -0.2115  0.6199
17494TIP3    H173973   0.108   3.604  14.915  1.0301  0.0550 -0.3515
17494TIP3    H273974  -0.037   3.564  14.895  0.9594 -1.0951  2.0320
17495TIP3   OH273975   1.210   3.157   4.365  0.2459  0.3493  0.5438
17495TIP3    H173976   1.264   3.115   4.299 -0.9911 -1.1152  0.4215
17495TIP3    H273977   1.269   3.174   4.438  1.3574  0.8949 -0.4619
17496TIP3   OH273978   3.774   1.734  13.824 -0.5645  0.2465 -0.4667
17496TIP3    H173979   3.693   1.719  13.872 -0.7808  0.5806 -0.7195
17496TIP3    H273980   3.797   1.825  13.843  0.4823 -0.2350  0.6780
17497TIP3   OH273981   4.160   6.652  13.649 -0.2882  0.2952 -0.3554
17497TIP3    H173982   4.073   6.641  13.611 -0.6551 -0.2823  0.6308
17497TIP3    H273983   4.144   6.684  13.738  0.5352  1.0106 -0.4544
17498TIP3   OH273984   1.818   5.441   6.172  0.0649 -0.0207  0.2730
17498TIP3    H173985   1.909   5.429   6.143 -0.4737 -2.2327 -0.7022
17498TIP3    H273986   1.825   5.492   6.253  1.9920  1.8200 -0.9465
17499TIP3   OH273987   5.842   3.896  15.094 -0.7942  0.1013  0.0970
17499TIP3    H173988   5.769   3.851  15.052 -0.3722  1.8700 -2.8468
17499TIP3    H273989   5.879   3.951  15.025  2.6459  0.1357  1.7344
17500TIP3   OH273990   1.459   0.642  16.175  0.7407 -0.5624 -0.0572
17500TIP3    H173991   1.468   0.737  16.165  1.4262 -0.5895  0.2779
17500TIP3    H273992   1.521   0.605  16.112  0.4988 -0.7897 -0.1635
17501TIP3   OH273993   0.461   5.080  14.083  0.0823 -0.3855  0.8313
17501TIP3    H173994   0.522   5.029  14.137  1.7948  2.7570  2.1342
17501TIP3    H273995   0.423   5.144  14.143 -2.1741 -0.2611 -0.6400
17502TIP3   OH273996   5.573   1.507  11.995  0.2419  0.4854 -0.2096
17502TIP3    H173997   5.518   1.428  11.994 -0.7905  1.1163  1.7485
17502TIP3    H273998   5.513   1.578  12.018  1.6819  1.3538  1.0543
17503TIP3   OH273999   6.313   5.381  16.063 -0.2750 -0.0764  0.3148
17503TIP3    H174000   6.335   5.452  16.003  1.1447 -1.3287 -0.7184
17503TIP3    H274001   6.348   5.410  16.147  2.3124 -0.4087 -0.5408
17504TIP3   OH274002   1.105   3.388   2.110 -0.5682 -0.0464  0.1626
17504TIP3    H174003   1.119   3.296   2.133  0.0572  0.3543  1.4588
17504TIP3    H274004   1.167   3.436   2.165 -1.2888  1.1954 -0.0806
17505TIP3   OH274005   4.817   4.942   2.467 -0.6926  0.1373  0.3602
17505TIP3    H174006   4.910   4.938   2.492 -0.2252 -1.3938 -1.3766
17505TIP3    H274007   4.797   5.035   2.462  0.6158  0.4915  1.2331
17506TIP3   OH274008   0.957   3.704  10.802 -0.5936  0.2679 -0.1938
17506TIP3    H174009   0.865   3.704  10.829 -0.1137  1.0017  1.6049
17506TIP3    H274010   0.985   3.795  10.813 -0.2010  0.5732 -2.9242
17507TIP3   OH274011   6.480   0.497   0.411 -0.1728  0.5045  0.4262
17507TIP3    H174012   6.438   0.429   0.360  1.2204 -0.7601  0.8966
17507TIP3    H274013   6.410   0.534   0.465 -1.4713  1.2508 -1.6757
17508TIP3   OH274014   1.846   2.546  10.498  0.3709 -0.0047 -0.2674
17508TIP3    H174015   1.875   2.634  10.525  2.0082 -0.3598 -0.7602
17508TIP3    H274016   1.757   2.560  10.465 -0.2609  1.0702  1.7100
17509TIP3   OH274017   6.685   0.359  11.640 -0.2511  0.4514 -0.3697
17509TIP3    H174018   6.722   0.446  11.630  3.1703 -0.5827  1.5861
17509TIP3    H274019   6.645   0.360  11.726  1.4100 -0.3131  0.4617
17510TIP3   OH274020   6.038   5.266   1.112  0.5751  0.4390  0.3647
17510TIP3    H174021   6.063   5.199   1.176  0.6059  0.2881  0.1952
17510TIP3    H274022   6.006   5.339   1.165 -1.9106 -0.6570  0.5056
17511TIP3   OH274023   5.594   1.343   5.971  0.5921 -0.1055 -0.1149
17511TIP3    H174024   5.529   1.412   5.977 -0.9669 -1.5364  0.3441
17511TIP3    H274025   5.661   1.367   6.035 -0.2555  0.6247  0.5151
17512TIP3   OH274026   6.489   2.197   3.771  0.3884  0.1228  0.2202
17512TIP3    H174027   6.565   2.204   3.713  0.5956 -3.2708 -0.1022
17512TIP3    H274028   6.419   2.164   3.715 -0.1459 -0.6949  1.3337
17513TIP3   OH274029   4.669   3.441   2.678  0.1084 -0.1173  0.3350
17513TIP3    H174030   4.575   3.433   2.691  0.0174  1.2010  0.6674
17513TIP3    H274031   4.682   3.533   2.652  1.1893 -0.5348 -0.7260
17514TIP3   OH274032   5.491   1.346   2.513  0.1664 -0.6848  0.0781
17514TIP3    H174033   5.544   1.420   2.544 -1.4411  0.2468  0.7639
17514TIP3    H274034   5.484   1.288   2.588 -0.6100 -0.2955  0.3153
17515TIP3   OH274035   4.244   2.146   4.716  0.3548  0.3034  0.3587
17515TIP3    H174036   4.154   2.176   4.710  0.0244 -0.7417 -0.0677
17515TIP3    H274037   4.240   2.072   4.777  0.9984  0.5058  0.6597
17516TIP3   OH274038   0.563   6.199   0.943  0.1434  0.1985 -0.3718
17516TIP3    H174039   0.640   6.141   0.936 -0.1867 -0.5256  1.4134
17516TIP3    H274040   0.594   6.284   0.912  0.5269 -0.9773 -3.4806
17517TIP3   OH274041   5.886   4.647   3.500  0.6056 -0.4298 -0.0823
17517TIP3    H174042   5.827   4.597   3.555  2.7642 -2.2118  0.7827
17517TIP3    H274043   5.865   4.619   3.410 -0.3834 -0.4271  0.1481
17518TIP3   OH274044   1.236   5.975   0.504  0.6469  0.4303  0.5510
17518TIP3    H174045   1.170   5.906   0.512 -1.1456  1.9830 -0.1647
17518TIP3    H274046   1.319   5.928   0.505 -0.5185 -1.9380 -1.7446
17519TIP3   OH274047   2.831   0.111  12.601 -0.3087  0.1542  0.4425
17519TIP3    H174048   2.739   0.087  12.590  0.0681 -1.7195  1.0179
17519TIP3    H274049   2.864   0.048  12.664  1.3742  0.8340  0.2773
17520TIP3   OH274050   5.128   3.574  11.061  1.0316 -0.5028  0.3271
17520TIP3    H174051   5.211   3.578  11.014  1.1399  1.1237  0.5823
17520TIP3    H274052   5.126   3.487  11.101  1.7273 -1.2551 -1.2260
17521TIP3   OH274053   5.969   5.904  16.084  0.2268 -0.2650 -0.1588
17521TIP3    H174054   5.905   5.953  16.136 -1.0323 -1.9745 -0.0101
17521TIP3    H274055   6.024   5.860  16.149  0.1444 -0.5577 -0.2879
17522TIP3   OH274056   4.340   0.903   0.925 -0.2718 -0.0106 -0.2995
17522TIP3    H174057   4.248   0.898   0.901 -0.2310 -0.6703 -0.3358
17522TIP3    H274058   4.378   0.964   0.861 -1.0538  1.8301  0.9115
17523TIP3   OH274059   6.522   4.193   3.762  0.4205  0.3825 -0.0344
17523TIP3    H174060   6.604   4.190   3.713 -0.1058  0.8695 -0.9607
17523TIP3    H274061   6.549   4.205   3.853  1.3553  1.0386 -0.3906
17524TIP3   OH274062   2.448   0.602  16.335  0.4360 -0.3357 -0.0439
17524TIP3    H174063   2.499   0.529  16.370 -0.3197 -1.2950 -0.8726
17524TIP3    H274064   2.476   0.608  16.243  0.0084 -0.0201 -0.1542
17525TIP3   OH274065   1.049   4.061   1.438  0.2433  0.1649  0.1436
17525TIP3    H174066   0.976   4.020   1.483 -0.4519  0.4786 -0.6681
17525TIP3    H274067   1.023   4.062   1.345 -0.0483  2.8772  0.1485
17526TIP3   OH274068   5.061   1.411  12.850 -0.0970  0.2858  0.0214
17526TIP3    H174069   5.151   1.391  12.876  0.3107 -0.2987 -1.7084
17526TIP3    H274070   5.056   1.506  12.854  0.6469  0.3317  0.0644
17527TIP3   OH274071   4.271   1.246   1.010  0.2581 -0.5707 -0.1443
17527TIP3    H174072   4.326   1.251   0.932  0.9627 -0.6377  0.3350
17527TIP3    H274073   4.196   1.302   0.991 -0.0824 -1.3820 -1.2576
17528TIP3   OH274074   2.675   6.739   1.457  0.0921  0.4537  0.3563
17528TIP3    H174075   2.585   6.719   1.434  0.4434 -0.3689 -0.3759
17528TIP3    H274076   2.673   6.759   1.551 -1.1109  2.1494  0.0249
17529TIP3   OH274077   4.293   3.740  16.564 -0.0448 -0.3022  0.0128
17529TIP3    H174078   4.283   3.655  16.607  2.6347 -0.3480  0.7313
17529TIP3    H274079   4.293   3.803  16.636 -0.9203  0.2222 -0.4297
17530TIP3   OH274080   3.109   3.803   4.712 -0.4212 -0.2326 -0.1908
17530TIP3    H174081   3.061   3.829   4.791 -0.4577  0.6401 -0.4973
17530TIP3    H274082   3.201   3.815   4.734 -0.4082 -0.4194 -0.1358
17531TIP3   OH274083   6.744   5.993  16.505 -0.2488 -0.2113 -0.0797
17531TIP3    H174084   6.711   5.912  16.544 -1.3760  0.2367 -0.0610
17531TIP3    H274085   6.680   6.060  16.531  0.6962  0.6956 -0.0448
17532TIP3   OH274086   4.272   4.459   3.586 -0.1269  0.0751  0.1868
17532TIP3    H174087   4.286   4.541   3.634 -0.6107 -0.3363  1.0627
17532TIP3    H274088   4.344   4.402   3.614  0.6613  0.4427 -1.0171
17533TIP3   OH274089   4.206   3.985   2.073 -0.4951 -0.5649  0.2879
17533TIP3    H174090   4.207   3.969   1.979  2.4700 -0.6204  0.2165
17533TIP3    H274091   4.210   3.898   2.113 -3.3049 -0.6370  0.6108
17534TIP3   OH274092   5.224   4.670  12.248  0.1883 -0.6559 -0.1663
17534TIP3    H174093   5.276   4.594  12.223 -1.1806 -1.5440 -0.4637
17534TIP3    H274094   5.150   4.669  12.186  0.0704  0.8284 -0.0713
17535TIP3   OH274095   6.540   5.548   3.077 -0.0794 -0.4944 -0.2186
17535TIP3    H174096   6.564   5.634   3.111 -1.7348  0.1309 -0.5694
17535TIP3    H274097   6.615   5.492   3.099  0.7292  0.8665  0.6119
17536TIP3   OH274098   4.402   2.948   1.126 -0.5711 -0.2330 -0.9793
17536TIP3    H174099   4.402   2.860   1.089 -1.3472  0.1255 -1.8568
17536TIP3    H274100   4.492   2.980   1.114 -0.2121 -0.9945 -0.4026
17537TIP3   OH274101   3.099   2.756  16.026  0.0721  0.4841 -0.4212
17537TIP3    H174102   3.005   2.776  16.034  0.1972  0.3190  2.6751
17537TIP3    H274103   3.101   2.672  15.981 -1.4123 -0.1816  0.6416
17538TIP3   OH274104   6.706   5.938  16.811  0.4181 -0.0754 -0.0907
17538TIP3    H174105   6.721   5.941  16.906  1.6271  0.4476 -0.2807
17538TIP3    H274106   6.762   6.007  16.776  0.2879 -0.5317 -1.2274
17539TIP3   OH274107   0.364   6.200   1.979  0.1118 -0.0866 -0.5192
17539TIP3    H174108   0.397   6.113   1.999 -0.8843 -0.2110  0.6509
17539TIP3    H274109   0.280   6.185   1.936  0.5336  0.2799 -1.5025
17540TIP3   OH274110   3.109   3.196   2.358 -0.5148  0.5546 -0.2005
17540TIP3    H174111   3.107   3.248   2.278  1.3910  1.3679  0.2341
17540TIP3    H274112   3.157   3.116   2.334 -1.3932  0.0329 -0.2677
17541TIP3   OH274113   6.334   3.281   3.096 -0.4631  0.7572 -0.0464
17541TIP3    H174114   6.362   3.191   3.112 -0.3676  0.9053  0.6293
17541TIP3    H274115   6.383   3.307   3.018 -0.7439  0.1174 -0.4445
17542TIP3   OH274116   2.448   5.730  14.573 -0.7954 -0.1821 -0.2199
17542TIP3    H174117   2.493   5.698  14.651 -0.2277 -0.1677 -0.5394
17542TIP3    H274118   2.396   5.805  14.604  0.7057  0.8650 -0.1577
17543TIP3   OH274119   5.175   4.940  11.622 -1.0376  0.4624 -0.3342
17543TIP3    H174120   5.134   5.027  11.619  1.3695  1.6266 -1.6029
17543TIP3    H274121   5.264   4.956  11.651 -0.4872 -1.6046 -0.7309
17544TIP3   OH274122   2.813   2.862  16.062 -0.3481  0.8850 -0.0529
17544TIP3    H174123   2.759   2.897  15.991 -0.2647  0.1589 -0.4805
17544TIP3    H274124   2.750   2.826  16.125 -0.3728 -0.1126 -0.6299
17545TIP3   OH274125   6.353   1.747   0.067 -0.2816 -0.1886 -0.1388
17545TIP3    H174126   6.382   1.824   0.018  0.4059 -0.9971 -1.0438
17545TIP3    H274127   6.366   1.674   0.006  1.0380 -1.2951  1.3884
17546TIP3   OH274128   2.979   4.583  15.370 -0.0229 -0.4775  0.3118
17546TIP3    H174129   2.907   4.556  15.426 -1.1075  0.4678 -0.5627
17546TIP3    H274130   2.981   4.517  15.300 -2.2622  1.1504 -1.4778
17547TIP3   OH274131   5.510   3.844   3.724 -0.1040 -0.2138  0.4311
17547TIP3    H174132   5.558   3.926   3.734  0.0649 -0.2967  0.3114
17547TIP3    H274133   5.512   3.804   3.812 -0.0471 -0.1669  0.4509
17548TIP3   OH274134   0.413   4.462   1.178 -0.1371  0.5875 -0.1226
17548TIP3    H174135   0.400   4.405   1.102  0.2463 -1.7345  1.4869
17548TIP3    H274136   0.508   4.468   1.188 -0.1573  1.8558 -0.4739
17549TIP3   OH274137   6.731   3.868  15.626 -0.3039  0.5256 -0.1824
17549TIP3    H174138   6.812   3.885  15.577 -1.2796 -1.1689 -2.5855
17549TIP3    H274139   6.674   3.942  15.604  0.4203  1.5551  1.2568
17550TIP3   OH274140   5.980   3.108   2.739  0.4067  0.0285 -0.2902
17550TIP3    H174141   6.070   3.095   2.710  0.0593 -0.2474 -1.2984
17550TIP3    H274142   5.927   3.094   2.660 -0.3912  2.1289 -0.1874
17551TIP3   OH274143   3.869   4.168   4.285 -0.1983 -0.1255  0.7135
17551TIP3    H174144   3.889   4.259   4.266 -1.2955 -0.1443 -0.6913
17551TIP3    H274145   3.805   4.172   4.356  0.3159  0.1532  1.1672
17552TIP3   OH274146   3.152   2.682   4.424 -0.8475  0.0680  0.1297
17552TIP3    H174147   3.208   2.672   4.501 -1.8333  0.8706  0.9803
17552TIP3    H274148   3.063   2.675   4.458 -1.2950 -1.3021 -1.2173
17553TIP3   OH274149   1.786   4.816   1.559  0.0679  0.8779  0.1448
17553TIP3    H174150   1.845   4.741   1.557 -0.0207  0.7955  0.4638
17553TIP3    H274151   1.744   4.816   1.473  0.4441  0.8691 -0.0398
17554TIP3   OH274152   2.436   6.438  11.336 -0.4799 -0.3253 -0.1053
17554TIP3    H174153   2.465   6.429  11.246  0.6846  1.2859  0.0541
17554TIP3    H274154   2.515   6.422  11.388 -0.0919  2.6559  0.4099
17555TIP3   OH274155   1.155   6.453  12.294 -0.2838  0.5634 -0.8651
17555TIP3    H174156   1.099   6.523  12.327  0.0357  0.6179 -0.4297
17555TIP3    H274157   1.098   6.377  12.286 -0.6173  0.8532 -1.2724
17556TIP3   OH274158   0.785   3.790   3.334  0.4852  0.0848  0.2870
17556TIP3    H174159   0.861   3.748   3.294  0.8208  0.0551  0.9512
17556TIP3    H274160   0.821   3.861   3.387 -0.1270  2.3048 -2.0206
17557TIP3   OH274161   1.856   5.164   2.330 -0.1661  0.9378 -0.1676
17557TIP3    H174162   1.933   5.193   2.379 -0.3733  0.6625  0.3228
17557TIP3    H274163   1.813   5.100   2.386 -0.3714  0.5601 -0.7396
17558TIP3   OH274164   0.710   4.896  11.482  0.6730  0.5711  0.5833
17558TIP3    H174165   0.653   4.884  11.558  3.1609  1.3375  2.7259
17558TIP3    H274166   0.731   4.990  11.483  2.9907  0.0964  0.7177
17559TIP3   OH274167   3.422   0.732   2.694  0.6831  0.2441 -0.3736
17559TIP3    H174168   3.470   0.665   2.741  1.1003 -0.4845 -1.8065
17559TIP3    H274169   3.330   0.708   2.705  0.5890  1.3551  1.9312
17560TIP3   OH274170   1.500   6.117  12.855  0.1115  0.3280  0.0510
17560TIP3    H174171   1.409   6.088  12.861  0.0343  0.8672  2.3564
17560TIP3    H274172   1.550   6.047  12.898  0.6596  0.6173 -0.1052
17561TIP3   OH274173   6.835   4.040   4.741  0.0453  0.3858 -0.2382
17561TIP3    H174174   6.792   4.017   4.823  0.6701 -0.1964 -0.0718
17561TIP3    H274175   6.925   4.011   4.751  0.3968  1.2487 -0.7340
17562TIP3   OH274176   2.179   5.999   3.963  0.5130  0.1031  0.1603
17562TIP3    H174177   2.104   5.947   3.992  1.2468 -0.6723  0.7530
17562TIP3    H274178   2.214   6.037   4.043  0.8855  0.2776 -0.0814
17563TIP3   OH274179   6.830   5.991  16.142 -0.6609 -0.1503  0.4486
17563TIP3    H174180   6.895   6.056  16.113 -0.3871 -0.0783  1.2141
17563TIP3    H274181   6.820   5.933  16.067 -0.7847  0.6713 -0.1917
17564TIP3   OH274182   6.553   0.054   3.423  0.6390  0.3883  0.1032
17564TIP3    H174183   6.554  -0.026   3.371 -1.1617  1.3178 -1.5266
17564TIP3    H274184   6.641   0.062   3.458  0.7911 -2.4293  0.5733
17565TIP3   OH274185   5.762   5.530  11.954 -0.2912  0.2994 -0.3335
17565TIP3    H174186   5.837   5.589  11.963 -0.0239 -0.1712  0.7408
17565TIP3    H274187   5.799   5.448  11.923 -0.4639  0.2857 -0.5046
17566TIP3   OH274188   5.832   1.060  16.514  0.1977  0.3750 -0.3453
17566TIP3    H174189   5.806   1.153  16.511 -0.1015  0.2672 -1.5219
17566TIP3    H274190   5.882   1.052  16.595 -2.0180  0.9641  1.1525
17567TIP3   OH274191   3.787   4.966   4.704 -0.3500 -0.3928 -0.2876
17567TIP3    H174192   3.739   4.883   4.706  1.3613 -1.4536  1.5999
17567TIP3    H274193   3.759   5.011   4.784  0.5853 -0.3288  0.0134
17568TIP3   OH274194   0.686   5.434   1.814  0.6801 -0.3527 -0.3823
17568TIP3    H174195   0.663   5.508   1.870  1.4779 -0.9932  0.8435
17568TIP3    H274196   0.603   5.390   1.798  0.4514 -0.2318  0.4194
17569TIP3   OH274197   6.827   3.957  14.840  0.1134  0.7236 -0.2360
17569TIP3    H174198   6.862   4.025  14.898 -1.2445  0.4221  0.9669
17569TIP3    H274199   6.757   4.001  14.792 -0.8324  0.1804  0.6120
17570TIP3   OH274200   5.116   0.341  15.973  0.0944 -0.6288  0.3931
17570TIP3    H174201   5.085   0.413  16.027  0.5642 -0.6106  0.6500
17570TIP3    H274202   5.042   0.318  15.917  0.7743  1.9176 -1.7253
17571TIP3   OH274203   5.386   4.518   3.154  0.3166  0.4992  0.2916
17571TIP3    H174204   5.451   4.472   3.100 -0.6550 -0.7810  0.1490
17571TIP3    H274205   5.391   4.609   3.125 -0.1260 -0.1294 -1.9571
17572TIP3   OH274206   3.972   3.584   4.773 -0.5742  0.4168 -0.1715
17572TIP3    H174207   3.909   3.588   4.844  0.0911  1.1984  0.3990
17572TIP3    H274208   3.925   3.618   4.697 -0.5786  1.8872  0.4604
17573TIP3   OH274209   2.620   0.283  13.761 -0.2673 -0.4030  0.0712
17573TIP3    H174210   2.658   0.211  13.811 -0.3777 -1.1710 -0.9190
17573TIP3    H274211   2.562   0.327  13.822 -1.2610 -2.0012  0.3289
17574TIP3   OH274212   0.878   2.655   0.698 -0.1258  0.9213 -0.3651
17574TIP3    H174213   0.825   2.676   0.774  0.0364  0.2888 -0.0723
17574TIP3    H274214   0.830   2.693   0.624  0.1191  2.2525  0.1206
17575TIP3   OH274215   5.518   3.770  17.112 -0.1424 -0.0352 -0.3338
17575TIP3    H174216   5.510   3.860  17.080  0.6726 -0.4438 -1.8108
17575TIP3    H274217   5.435   3.728  17.088 -0.4327  0.2567  0.1523
17576TIP3   OH274218   1.087   2.368   2.929  0.5200  0.1818  0.4617
17576TIP3    H174219   1.105   2.452   2.888 -0.7391 -0.6777 -2.0717
17576TIP3    H274220   0.991   2.363   2.933  0.5099 -1.7325 -0.9275
17577TIP3   OH274221   0.644   5.300  13.031 -0.3147  0.4775  0.2134
17577TIP3    H174222   0.599   5.322  12.949 -0.2919  0.0431  0.0820
17577TIP3    H274223   0.573   5.294  13.096 -0.3767  0.4301  0.1412
17578TIP3   OH274224   1.854   6.729   2.251  0.5476 -0.0840 -0.2555
17578TIP3    H174225   1.898   6.813   2.237  1.5991 -0.4628  0.6692
17578TIP3    H274226   1.772   6.752   2.295  0.6531  0.4862 -0.3489
17579TIP3   OH274227   3.320   1.575   4.986 -0.2330  0.2353 -0.0834
17579TIP3    H174228   3.362   1.489   4.988 -0.3819  0.0702 -1.9336
17579TIP3    H274229   3.326   1.602   4.894 -0.1683  2.2218  0.4659
17580TIP3   OH274230   4.703   1.898   2.443  0.2384  0.1236  0.2149
17580TIP3    H174231   4.761   1.973   2.432  3.5957 -2.3171 -0.2571
17580TIP3    H274232   4.693   1.889   2.538  0.7294  0.5486  0.3104
17581TIP3   OH274233   4.048   6.785  13.859  0.5666 -0.4625  0.2946
17581TIP3    H174234   4.027   6.780  13.952 -1.0505  1.9323  0.1434
17581TIP3    H274235   3.967   6.814  13.818  0.6723 -3.2272 -2.1858
17582TIP3   OH274236   2.193   3.853  11.622 -0.1904  0.4351  0.1403
17582TIP3    H174237   2.271   3.830  11.672  0.5671 -1.5252 -1.7755
17582TIP3    H274238   2.127   3.789  11.649 -1.5600  2.6239  2.4234
17583TIP3   OH274239   4.892   6.532  17.169  0.1997  0.0200  0.3488
17583TIP3    H174240   4.930   6.614  17.201 -1.4785  1.2458 -0.6194
17583TIP3    H274241   4.905   6.536  17.074  0.5251 -1.0876  0.3380
17584TIP3   OH274242   2.730   1.933   3.066  1.0645 -0.0606 -0.2574
17584TIP3    H174243   2.728   1.856   3.009  0.2414 -0.9762  0.9606
17584TIP3    H274244   2.810   1.922   3.117  0.1621 -0.9731  1.0189
17585TIP3   OH274245   1.435   5.552  13.703 -0.5493  0.3788  0.1810
17585TIP3    H174246   1.372   5.537  13.773 -0.1292 -0.3773  0.4063
17585TIP3    H274247   1.381   5.568  13.625 -1.0131  0.9299  0.6109
17586TIP3   OH274248   0.859   1.139   4.374  0.3921 -0.6942  0.1242
17586TIP3    H174249   0.782   1.187   4.343 -0.4860 -1.0027  1.7335
17586TIP3    H274250   0.858   1.057   4.324  0.4586 -0.1317 -0.8234
17587TIP3   OH274251   4.807   5.422   3.745 -0.0120 -0.1956  0.0851
17587TIP3    H174252   4.744   5.493   3.757  1.2090  0.8171  0.7298
17587TIP3    H274253   4.768   5.367   3.677 -1.1880  0.8552 -0.1332
17588TIP3   OH274254   1.980   0.042  12.970 -0.4397 -0.1002 -0.5178
17588TIP3    H174255   1.944   0.003  12.891 -0.5053 -2.3238  0.5478
17588TIP3    H274256   2.075   0.035  12.960 -0.4553 -2.0779  0.3404
17589TIP3   OH274257   1.457   0.773  17.146 -0.7919 -0.5019 -0.4571
17589TIP3    H174258   1.441   0.864  17.173 -0.2037 -0.9666  1.6199
17589TIP3    H274259   1.486   0.780  17.055 -0.2261  1.4363 -0.1753
17590TIP3   OH274260   4.208   2.475  14.105 -0.0916 -0.5382 -0.6973
17590TIP3    H174261   4.134   2.463  14.045 -0.0778 -0.8757 -0.6493
17590TIP3    H274262   4.232   2.567  14.096 -0.0230 -0.6097 -1.2855
17591TIP3   OH274263   5.619   4.898  10.607 -0.3188 -0.4543 -0.1120
17591TIP3    H174264   5.593   4.816  10.566  1.0518 -0.8241 -0.3145
17591TIP3    H274265   5.562   4.964  10.568 -0.0300 -1.0150 -1.5532
17592TIP3   OH274266   1.369   5.399  12.298 -0.3931 -0.0251 -0.0627
17592TIP3    H174267   1.312   5.322  12.303 -1.8165  0.9742 -0.0934
17592TIP3    H274268   1.409   5.405  12.385 -0.8620 -0.3600  0.1821
17593TIP3   OH274269   6.216   4.724  16.250 -0.8432  0.0713 -0.2575
17593TIP3    H174270   6.183   4.723  16.160 -1.2246  2.2853 -0.1922
17593TIP3    H274271   6.195   4.637  16.283 -4.2278  0.3855 -1.1264
17594TIP3   OH274272   5.092   3.007  12.110  0.5339  0.0514  0.4083
17594TIP3    H174273   5.066   3.010  12.018  0.5199  0.3784  0.4197
17594TIP3    H274274   5.119   2.917  12.125  1.8128  0.3021 -0.2704
17595TIP3   OH274275   2.018   6.256  12.842 -0.2420 -0.1047  0.9068
17595TIP3    H174276   2.073   6.188  12.880  1.3983  0.0362 -1.0404
17595TIP3    H274277   1.933   6.214  12.829  0.2093 -1.2097  1.4195
17596TIP3   OH274278   4.984   6.790  17.147 -0.0086 -0.0986 -0.2023
17596TIP3    H174279   5.020   6.874  17.174  0.6722 -0.8608  1.3550
17596TIP3    H274280   5.054   6.749  17.096 -0.1431  0.0504 -0.5085
17597TIP3   OH274281   6.586   0.481  11.084  0.8126 -0.4388 -0.0416
17597TIP3    H174282   6.634   0.400  11.070  0.1693 -0.8730  0.2555
17597TIP3    H274283   6.530   0.490  11.007 -1.5348 -1.9971  1.3538
17598TIP3   OH274284   4.679   0.452  12.517  0.3705 -0.6454  0.0406
17598TIP3    H174285   4.758   0.507  12.521  0.1369 -0.1584 -1.4082
17598TIP3    H274286   4.674   0.412  12.603  0.6959  1.4330  1.0993
17599TIP3   OH274287   3.371   6.510  15.182  0.0683  0.0507 -0.2794
17599TIP3    H174288   3.336   6.455  15.253  0.9277 -0.7724 -0.4617
17599TIP3    H274289   3.364   6.599  15.215  0.1770 -0.2974  0.7359
17600TIP3   OH274290   1.253   6.194   4.367  0.1648  0.2340 -0.2363
17600TIP3    H174291   1.194   6.247   4.421 -0.3653  0.5898 -1.1298
17600TIP3    H274292   1.243   6.230   4.278 -1.0817 -2.0500 -1.1079
17601TIP3   OH274293   4.671   6.394  16.068  0.5640  0.0633  0.7717
17601TIP3    H174294   4.622   6.327  16.020  0.0084  0.7961  0.2899
17601TIP3    H274295   4.605   6.439  16.120  0.5373  1.6810 -0.5951
17602TIP3   OH274296   2.102   4.139  12.938 -0.3222  0.7002 -0.4936
17602TIP3    H174297   2.135   4.225  12.912 -0.5075  1.3294  1.2337
17602TIP3    H274298   2.129   4.129  13.029  2.7648 -2.6069 -1.5373
17603TIP3   OH274299   1.787   0.893  11.602 -0.6575  0.5284  0.2569
17603TIP3    H174300   1.881   0.881  11.614 -0.8778 -0.3218  1.3381
17603TIP3    H274301   1.767   0.846  11.521 -0.0431  1.3390 -0.3752
17604TIP3   OH274302   1.973   4.457   1.682 -0.5719  0.1870  0.2228
17604TIP3    H174303   1.931   4.502   1.609 -0.1813  4.2527  2.2491
17604TIP3    H274304   1.915   4.383   1.700 -1.4922 -0.0845 -3.1098
17605TIP3   OH274305   2.687   1.053   5.055  0.3294 -0.3750  0.3773
17605TIP3    H174306   2.775   1.016   5.057  1.0782  1.1297 -1.6710
17605TIP3    H274307   2.697   1.139   5.015 -2.4460 -1.4907 -3.2705
17606TIP3   OH274308   3.199   5.419   2.573 -0.3661  0.2292 -0.1398
17606TIP3    H174309   3.269   5.355   2.557  2.1937  2.9486 -0.9214
17606TIP3    H274310   3.160   5.433   2.487  0.4391  1.0626 -0.3947
17607TIP3   OH274311   6.600   3.512   1.596 -0.3180 -0.2106  0.3750
17607TIP3    H174312   6.535   3.557   1.543 -1.1059  0.4409  1.8317
17607TIP3    H274313   6.676   3.570   1.595  1.0096 -1.7661 -2.7578
17608TIP3   OH274314   3.763   4.056  16.740  0.0374 -0.2034 -0.3006
17608TIP3    H174315   3.824   4.130  16.739 -1.5316  1.2792  2.2359
17608TIP3    H274316   3.683   4.092  16.778 -0.9763 -3.1231  0.5851
17609TIP3   OH274317   3.361   6.755   5.566 -0.8649  0.3366 -0.1432
17609TIP3    H174318   3.431   6.709   5.520 -1.7425 -0.3820 -0.8063
17609TIP3    H274319   3.304   6.685   5.598 -0.6947  0.8621  1.3918
17610TIP3   OH274320   3.307   2.020   2.994 -0.1484  0.1825  0.2724
17610TIP3    H174321   3.283   1.944   3.047  0.2092  0.4209  0.7731
17610TIP3    H274322   3.385   1.993   2.946 -0.9765 -0.3485 -0.8309
17611TIP3   OH274323   3.788   2.080   2.087  0.1773  0.0873 -0.1006
17611TIP3    H174324   3.798   2.072   2.182  1.4195  0.7392 -0.1590
17611TIP3    H274325   3.836   2.005   2.052 -0.0366  0.0083 -0.2278
17612TIP3   OH274326   4.820   6.025   0.358  0.4161 -0.4927  0.0052
17612TIP3    H174327   4.794   5.966   0.429  1.4531 -2.7059 -1.3315
17612TIP3    H274328   4.755   6.095   0.359 -0.8143 -1.5881  1.7584
17613TIP3   OH274329   3.509   5.951  13.188  0.4134  0.4639 -0.3549
17613TIP3    H174330   3.537   5.880  13.246  1.6290  1.6409  0.5573
17613TIP3    H274331   3.452   5.909  13.124  3.5047 -1.9491 -1.7571
17614TIP3   OH274332   2.109   3.189   6.311  0.2909  0.7247  0.1212
17614TIP3    H174333   2.180   3.125   6.311  0.4035  0.8491 -0.4455
17614TIP3    H274334   2.041   3.151   6.256 -0.1509  0.5396  0.7785
17615TIP3   OH274335   3.568   3.279   2.041  0.3144  0.8818 -0.1480
17615TIP3    H174336   3.509   3.276   2.116  0.2915  0.5587 -0.1777
17615TIP3    H274337   3.514   3.252   1.967  1.1283 -2.1318  0.2384
17616TIP3   OH274338   3.722   3.446  16.332  0.5201 -0.1288 -0.7138
17616TIP3    H174339   3.698   3.366  16.378  2.2376 -0.5334 -0.4439
17616TIP3    H274340   3.716   3.514  16.399  1.0950 -0.3944 -0.3819
17617TIP3   OH274341   4.935   5.631   1.273  0.4925  0.0434  0.3358
17617TIP3    H174342   5.028   5.621   1.251  0.5384  0.6294  0.2592
17617TIP3    H274343   4.909   5.544   1.306  0.5480 -0.7120 -1.4900
17618TIP3   OH274344   0.952   6.293   0.287  0.0174 -0.2495 -0.0753
17618TIP3    H174345   0.948   6.352   0.362 -1.4460 -1.2632  0.7125
17618TIP3    H274346   0.887   6.327   0.226  1.1751  0.5479 -0.9183
17619TIP3   OH274347   4.018   3.971   2.730  0.3815 -0.1341  0.0806
17619TIP3    H174348   4.031   4.022   2.810  1.2587 -0.0411 -0.1113
17619TIP3    H274349   4.003   4.036   2.662  4.9867  0.2399 -0.8791
17620TIP3   OH274350   5.148   0.972  15.412 -0.1479 -0.0168 -0.4251
17620TIP3    H174351   5.234   0.977  15.454 -0.7512  1.6921  0.7453
17620TIP3    H274352   5.103   0.902  15.458  0.6235 -1.0183 -1.1370
17621TIP3   OH274353   2.367   6.110  13.941 -0.1499 -0.3629  0.6382
17621TIP3    H174354   2.400   6.135  14.027 -0.0135 -2.6500  1.3156
17621TIP3    H274355   2.427   6.042  13.911 -0.2981  0.2614 -1.2348
17622TIP3   OH274356   1.823   2.575  12.295  0.0752 -0.2196 -0.2412
17622TIP3    H174357   1.778   2.656  12.271  0.0039 -0.7012 -1.8462
17622TIP3    H274358   1.769   2.538  12.365 -0.2735  0.7519  0.0301
17623TIP3   OH274359   1.442   0.702  16.496 -0.1976 -0.0327  0.1210
17623TIP3    H174360   1.414   0.612  16.512 -0.2464 -0.4513 -2.0649
17623TIP3    H274361   1.514   0.695  16.433 -1.2051  1.4882 -1.2943
17624TIP3   OH274362   1.763   6.038   0.866 -0.2841  0.4235  0.6153
17624TIP3    H174363   1.828   6.065   0.931 -0.2000  0.8741  0.3472
17624TIP3    H274364   1.762   6.109   0.802  0.6281 -0.6386 -0.6244
17625TIP3   OH274365   4.387   2.979  16.225 -0.0864 -0.0058  0.8373
17625TIP3    H174366   4.297   2.964  16.196 -0.3669  1.2471  1.0186
17625TIP3    H274367   4.394   2.927  16.306 -0.3189 -0.9028  0.3005
17626TIP3   OH274368   5.907   4.382   0.692 -0.0751 -0.1025 -0.1938
17626TIP3    H174369   5.955   4.331   0.627 -1.5167  1.2422 -2.4643
17626TIP3    H274370   5.858   4.447   0.640  0.2068  2.3558  2.3933
17627TIP3   OH274371   2.602   1.708  11.396  0.1858  0.2098  0.5535
17627TIP3    H174372   2.658   1.666  11.330  0.0815 -0.3702  0.8252
17627TIP3    H274373   2.641   1.683  11.480  2.0358  3.2855  0.7482
17628TIP3   OH274374   5.926   6.545   0.330  0.4216 -0.5384 -0.6871
17628TIP3    H174375   5.840   6.535   0.371  0.1966  0.1113 -0.9747
17628TIP3    H274376   5.926   6.636   0.299  1.5123 -0.2902  0.0000
17629TIP3   OH274377   0.341   5.667  15.036  0.2689 -0.0866  0.2932
17629TIP3    H174378   0.265   5.719  15.008  0.1767 -0.4939 -0.2402
17629TIP3    H274379   0.319   5.578  15.009  1.2282 -0.1040 -0.4889
17630TIP3   OH274380   1.288   4.699   1.818 -0.3242  0.0934  0.6026
17630TIP3    H174381   1.371   4.736   1.847  0.0555 -0.9648  0.8969
17630TIP3    H274382   1.232   4.703   1.896 -0.1229 -0.4030  0.7753
17631TIP3   OH274383   1.014   4.680  12.770  0.1044 -0.5826 -0.1758
17631TIP3    H174384   0.981   4.614  12.710  0.4100 -2.0733  1.2070
17631TIP3    H274385   1.020   4.635  12.854  1.3021  0.9212  0.6078
17632TIP3   OH274386   4.526   1.771  13.822  0.3957  0.2312 -0.6462
17632TIP3    H174387   4.600   1.806  13.772  0.0624  0.5275 -0.9407
17632TIP3    H274388   4.464   1.743  13.755  0.4206 -0.4059 -0.4012
17633TIP3   OH274389   5.030   2.928   2.684 -0.7713 -0.5748  0.3719
17633TIP3    H174390   5.035   2.940   2.778  0.3311 -1.3509  0.4312
17633TIP3    H274391   5.121   2.922   2.655 -1.1067 -1.4452 -0.5829
17634TIP3   OH274392   5.296   3.500   3.219  0.0123 -0.9008  0.3749
17634TIP3    H174393   5.389   3.521   3.218 -0.1289 -0.1555  1.7482
17634TIP3    H274394   5.254   3.575   3.176  0.0767 -1.5513 -0.8778
17635TIP3   OH274395   2.068   2.769  16.282  0.1851 -0.2503  0.2767
17635TIP3    H174396   2.090   2.701  16.345  1.8120 -0.8253 -0.8403
17635TIP3    H274397   2.148   2.820  16.272 -0.3809  0.5350 -0.4839
17636TIP3   OH274398   2.571   6.248   1.548 -0.2262  0.3124  0.0620
17636TIP3    H174399   2.644   6.304   1.573 -0.3607  0.6508 -0.2989
17636TIP3    H274400   2.573   6.176   1.612  0.8716 -0.0877 -0.3903
17637TIP3   OH274401   2.918   6.016   1.457 -0.1226  0.0889  0.2612
17637TIP3    H174402   2.905   6.100   1.413  1.4504 -0.5847 -1.6727
17637TIP3    H274403   2.833   5.973   1.453 -0.5778  0.9924 -0.0578
17638TIP3   OH274404   1.378   2.551  15.810  0.4067  0.1164  0.0536
17638TIP3    H174405   1.305   2.603  15.844  2.3660  1.5093  2.5178
17638TIP3    H274406   1.368   2.466  15.853 -0.4027 -0.1050 -0.5566
17639TIP3   OH274407   0.315   6.289  14.615 -0.2493  0.0740 -0.2003
17639TIP3    H174408   0.378   6.354  14.647 -1.4993  1.8579 -1.1562
17639TIP3    H274409   0.238   6.301  14.670 -0.2508 -1.1630  0.1006
17640TIP3   OH274410   0.707   0.535   2.423 -0.1737  0.0789 -0.0841
17640TIP3    H174411   0.640   0.473   2.395  1.3710 -1.7056 -0.0248
17640TIP3    H274412   0.732   0.581   2.343 -1.9626  1.3861  0.0217
17641TIP3   OH274413   1.993   6.641   5.835 -0.6923  0.2333  0.2210
17641TIP3    H174414   2.076   6.657   5.791 -0.4492 -0.8193  0.2829
17641TIP3    H274415   1.928   6.687   5.781 -0.3158 -0.5064 -0.8909
17642TIP3   OH274416   2.062   1.022   0.091  0.5990  0.1560  0.2842
17642TIP3    H174417   2.006   1.086   0.048  0.1452 -0.4568 -0.0500
17642TIP3    H274418   2.002   0.967   0.142  1.0528  0.4220  1.1302
17643TIP3   OH274419   5.568   0.704   0.748 -0.4355  0.1988 -0.0786
17643TIP3    H174420   5.498   0.658   0.795  0.2155 -0.3054  0.4146
17643TIP3    H274421   5.648   0.675   0.791  0.0336  1.3845 -0.1146
17644TIP3   OH274422   3.314   3.210   4.771  0.2229  0.6481 -0.5866
17644TIP3    H174423   3.264   3.137   4.735  0.7597  0.0828 -0.2110
17644TIP3    H274424   3.260   3.243   4.843  0.5243 -0.1655  0.0244
17645TIP3   OH274425   5.898   3.054   3.401 -0.1151 -0.0039 -0.3012
17645TIP3    H174426   5.847   3.086   3.476  1.1027 -0.4349  0.7344
17645TIP3    H274427   5.989   3.069   3.426  0.4225 -2.3955 -0.6355
17646TIP3   OH274428   6.085   4.446  14.231  0.4308  0.0840 -0.0072
17646TIP3    H174429   6.097   4.423  14.139 -1.1110  0.0993 -0.2519
17646TIP3    H274430   5.992   4.471  14.237  0.0851 -1.4224  1.8701
17647TIP3   OH274431   4.679   6.316   2.438  0.1980  0.1440  0.0038
17647TIP3    H174432   4.726   6.327   2.355 -1.4121  0.1317 -0.9544
17647TIP3    H274433   4.605   6.260   2.416 -0.8464  0.9940  1.2304
17648TIP3   OH274434   0.816   0.285   1.622  0.4838  0.2750  0.0651
17648TIP3    H174435   0.872   0.352   1.663  0.5405  0.8331 -0.9071
17648TIP3    H274436   0.862   0.260   1.542  1.4366 -2.3685  1.3240
17649TIP3   OH274437   5.086   4.216  11.514 -0.1090 -0.3782  0.3092
17649TIP3    H174438   5.094   4.267  11.594 -2.4342 -1.0483  1.0583
17649TIP3    H274439   5.100   4.279  11.443 -2.3264  1.2834  1.2034
17650TIP3   OH274440   6.487   3.618   2.440  0.8525  0.9228 -0.5955
17650TIP3    H174441   6.557   3.683   2.451 -0.3759  2.6277 -2.2265
17650TIP3    H274442   6.422   3.641   2.506  1.6081 -0.4306  0.6714
17651TIP3   OH274443   2.997   3.449   0.993 -0.1575  0.2915  0.0449
17651TIP3    H174444   2.964   3.414   0.910 -0.9170  0.0416  0.4414
17651TIP3    H274445   3.089   3.471   0.975 -0.8528  2.2115 -1.4447
17652TIP3   OH274446   1.080   4.603   2.437 -0.4066 -0.1945  0.6154
17652TIP3    H174447   1.132   4.636   2.363 -0.7275  0.4576  0.6816
17652TIP3    H274448   1.107   4.657   2.511  0.0867 -1.0013  1.0399
17653TIP3   OH274449   6.812   5.812   4.783 -0.3740  0.2184  0.0208
17653TIP3    H174450   6.730   5.845   4.822  0.1177 -0.1035  1.3804
17653TIP3    H274451   6.849   5.889   4.739 -2.8611 -0.2928 -3.3791
17654TIP3   OH274452   4.757   2.574  12.786  0.8893 -0.1701 -0.2002
17654TIP3    H174453   4.832   2.539  12.834  1.3954  1.8353  0.5763
17654TIP3    H274454   4.683   2.521  12.816  1.4471  0.0276  1.6918
17655TIP3   OH274455   5.421   1.495  16.102 -0.4936 -0.5866 -0.3026
17655TIP3    H174456   5.481   1.542  16.045 -1.6675  1.0984 -0.2499
17655TIP3    H274457   5.339   1.544  16.095 -0.9823 -0.9656  1.9807
17656TIP3   OH274458   2.287   1.918  11.176  0.1268 -0.3214 -0.3160
17656TIP3    H174459   2.235   1.978  11.123  0.1600 -1.6402 -1.9136
17656TIP3    H274460   2.263   1.831  11.145  1.4108 -1.0719  0.6793
17657TIP3   OH274461   4.156   1.647  12.981  0.6388  0.3177  0.4069
17657TIP3    H174462   4.181   1.739  12.978 -0.1101  0.5204  0.1204
17657TIP3    H274463   4.193   1.615  13.064  4.5439 -0.2451 -1.3333
17658TIP3   OH274464   4.611   6.563   2.521 -0.1673 -0.4883 -0.1435
17658TIP3    H174465   4.663   6.484   2.513 -0.5887 -0.7104 -0.8170
17658TIP3    H274466   4.522   6.532   2.540  0.3496 -0.0522  3.7266
17659TIP3   OH274467   5.194   1.620   3.819 -0.1883  0.0146  0.6392
17659TIP3    H174468   5.179   1.662   3.735  1.0371 -1.2131 -0.2415
17659TIP3    H274469   5.125   1.655   3.876 -0.7375  1.2481 -0.7179
17660TIP3   OH274470   4.724   6.113   4.988  0.8803 -0.2323  0.1223
17660TIP3    H174471   4.805   6.097   5.036  1.4990 -0.6778 -1.0383
17660TIP3    H274472   4.750   6.116   4.896 -0.3642  0.0125 -0.2455
17661TIP3   OH274473   2.914   1.949  16.254 -0.2823 -0.1867  0.0584
17661TIP3    H174474   2.861   1.891  16.309 -1.4718  0.2148 -0.6252
17661TIP3    H274475   2.882   1.933  16.165  0.3172  0.5382 -0.2951
17662TIP3   OH274476   3.309   5.370  11.875 -0.3769 -0.2889 -0.4053
17662TIP3    H174477   3.366   5.417  11.937 -0.3927 -0.9768  0.1375
17662TIP3    H274478   3.344   5.394  11.789  0.7623 -0.7152 -0.0814
17663TIP3   OH274479   4.109   4.603  16.439 -0.2477 -1.1182 -0.2913
17663TIP3    H174480   4.086   4.681  16.388  0.3482 -0.2534  0.7121
17663TIP3    H274481   4.201   4.588  16.420  0.0305 -0.6717  0.6587
17664TIP3   OH274482   3.929   5.319  10.624  0.2474  0.1538 -0.3308
17664TIP3    H174483   3.909   5.337  10.532  0.8385 -0.2466 -0.5482
17664TIP3    H274484   3.965   5.400  10.658  2.0677 -0.2902 -1.0564
17665TIP3   OH274485   3.025   2.983  11.336  0.1899 -0.5743  0.0797
17665TIP3    H174486   3.037   3.068  11.379  0.5470 -0.9382  0.7257
17665TIP3    H274487   3.098   2.930  11.368 -1.1305 -1.7499  1.2875
17666TIP3   OH274488   5.075   0.460  15.459  0.1038 -0.5820 -0.1599
17666TIP3    H174489   5.164   0.444  15.491  0.9306 -0.8041 -2.3929
17666TIP3    H274490   5.087   0.506  15.376 -1.9435  1.0080  0.3428
17667TIP3   OH274491   1.905   1.168   3.525 -0.2288 -0.2043 -0.0731
17667TIP3    H174492   1.855   1.236   3.479  0.6811  0.0648 -0.6746
17667TIP3    H274493   1.988   1.209   3.546  0.4770 -1.2298 -0.7535
17668TIP3   OH274494   5.629   3.539  15.970  0.2908  0.2174  0.3374
17668TIP3    H174495   5.646   3.625  16.006  0.7552  0.8282 -1.2522
17668TIP3    H274496   5.550   3.551  15.916  2.1040  0.5216 -2.4865
17669TIP3   OH274497   1.892   1.458  16.949 -0.2795 -0.0478  0.2897
17669TIP3    H174498   1.976   1.492  16.980  0.2849 -1.3612  0.2519
17669TIP3    H274499   1.836   1.536  16.940  0.8133  0.7966  0.6631
17670TIP3   OH274500   5.708   4.200  15.021  0.3869 -0.3806  0.3783
17670TIP3    H174501   5.630   4.200  14.965 -0.8901  0.4187  2.0796
17670TIP3    H274502   5.781   4.187  14.960 -1.1038 -2.0039 -1.1763
17671TIP3   OH274503   3.944   0.130  12.470 -0.0398  0.7855 -0.0802
17671TIP3    H174504   3.851   0.129  12.444  0.3642 -1.2383 -1.7100
17671TIP3    H274505   3.989   0.169  12.395  0.6480 -0.5441 -0.3933
17672TIP3   OH274506   0.011   1.376  14.525  0.4033 -0.7059 -0.0377
17672TIP3    H174507   0.065   1.452  14.505 -0.4963 -0.4232 -1.4866
17672TIP3    H274508   0.056   1.335  14.599  0.0964  2.0882  1.8880
17673TIP3   OH274509   5.128   0.392  14.105  0.2883 -0.4156  0.1077
17673TIP3    H174510   5.042   0.362  14.135 -0.5570  1.7300 -0.0052
17673TIP3    H274511   5.169   0.430  14.183  0.5966 -0.2596 -0.1279
17674TIP3   OH274512   5.783   0.081   0.482 -0.2081  0.3660 -0.0504
17674TIP3    H174513   5.874   0.110   0.490  0.3906 -1.6484  1.3606
17674TIP3    H274514   5.732   0.155   0.514  1.0746  0.8010  1.1097
17675TIP3   OH274515   2.876   0.536  10.660  0.3503 -0.0452  0.2235
17675TIP3    H174516   2.830   0.615  10.689  0.1710 -0.1850  0.3211
17675TIP3    H274517   2.841   0.519  10.572  0.4471  0.0279  0.1705
17676TIP3   OH274518   5.325   4.448   4.938  0.0587  0.0194 -0.1843
17676TIP3    H174519   5.252   4.388   4.921  0.3798 -0.2073 -0.8098
17676TIP3    H274520   5.398   4.391   4.962  0.5408  0.0838 -1.3820
17677TIP3   OH274521   6.669   5.592   1.636  0.3054 -0.1318 -0.0486
17677TIP3    H174522   6.691   5.567   1.546  0.1643 -1.3129  0.2225
17677TIP3    H274523   6.671   5.687   1.636 -1.2773 -0.0370 -1.7222
17678TIP3   OH274524   6.123   1.537  14.226  0.0411  0.2775 -0.2960
17678TIP3    H174525   6.117   1.581  14.312 -1.9162 -1.0589  0.3069
17678TIP3    H274526   6.032   1.527  14.198  0.6154 -0.2159 -2.0854
17679TIP3   OH274527   4.887   3.014   0.483  0.0951  0.2083  0.5130
17679TIP3    H174528   4.970   2.967   0.486 -1.1873 -2.1940  1.1372
17679TIP3    H274529   4.870   3.026   0.389  0.7961  0.0922  0.3675
17680TIP3   OH274530   3.253   3.850   0.831  0.8022  0.2081 -0.0526
17680TIP3    H174531   3.311   3.788   0.787  0.6028 -0.0256  0.0074
17680TIP3    H274532   3.305   3.929   0.842  1.0318  0.0787 -0.2085
17681TIP3   OH274533   2.000   1.582  14.069  0.1289 -0.3115 -0.3837
17681TIP3    H174534   1.920   1.619  14.032 -1.7057 -1.4918  2.1391
17681TIP3    H274535   2.000   1.611  14.161  1.8919 -1.4740  0.0426
17682TIP3   OH274536   4.424   0.698  12.875 -0.3839 -0.6753  0.1162
17682TIP3    H174537   4.477   0.777  12.873 -2.2403  0.6457  0.5151
17682TIP3    H274538   4.383   0.699  12.962 -1.2532 -1.5053 -0.2633
17683TIP3   OH274539   4.662   6.819   2.601 -0.1151 -0.2776  0.3135
17683TIP3    H174540   4.631   6.732   2.575 -0.3452  0.5279 -2.4477
17683TIP3    H274541   4.741   6.833   2.548 -0.2725  1.3082  0.4593
17684TIP3   OH274542   4.638   6.612   5.839 -0.0165 -0.1574 -0.1240
17684TIP3    H174543   4.679   6.671   5.903 -2.4034 -0.0339  1.4374
17684TIP3    H274544   4.616   6.669   5.765  2.1216 -0.1503 -0.8035
17685TIP3   OH274545   4.924   2.039   1.805 -0.4850  0.1067 -0.1238
17685TIP3    H174546   5.006   2.087   1.808  0.2783 -1.0159 -1.4912
17685TIP3    H274547   4.922   2.001   1.717 -1.9550 -0.7554  0.2464
17686TIP3   OH274548   3.310   1.315  13.127 -0.3564  0.1853 -0.6713
17686TIP3    H174549   3.248   1.346  13.061 -1.4178  1.4006  0.8229
17686TIP3    H274550   3.323   1.391  13.185  0.3096 -0.9091  0.6713
17687TIP3   OH274551   5.742   3.125  14.707 -0.0610 -0.2352  0.2853
17687TIP3    H174552   5.649   3.110  14.718 -0.7177  3.3588  0.8594
17687TIP3    H274553   5.756   3.126  14.612 -0.8652  0.3919  0.1706
17688TIP3   OH274554   5.456   2.458   2.037  0.5970 -0.2328  0.3862
17688TIP3    H174555   5.381   2.466   2.096  0.8512  0.0013  0.6802
17688TIP3    H274556   5.486   2.368   2.047 -0.3574 -0.6775 -0.6036
17689TIP3   OH274557   4.494   0.943   5.169  0.0681 -0.3952  0.2473
17689TIP3    H174558   4.439   0.951   5.247 -2.7518 -2.2060 -1.3933
17689TIP3    H274559   4.516   0.850   5.164  0.1549 -0.3197 -1.1565
17690TIP3   OH274560   1.963   6.529  16.639 -0.2849  0.3762  0.1761
17690TIP3    H174561   1.942   6.455  16.696  1.4569  0.7182  1.3470
17690TIP3    H274562   1.878   6.558  16.606 -1.2347 -0.7041  1.5169
17691TIP3   OH274563   4.736   2.592   3.458  0.7467  0.0004  1.2523
17691TIP3    H174564   4.670   2.636   3.511  2.0532  1.4840  1.7079
17691TIP3    H274565   4.715   2.499   3.466 -1.5228  0.4310  1.0346
17692TIP3   OH274566   2.256   0.131  16.192 -0.3440  0.2380 -0.3856
17692TIP3    H174567   2.223   0.209  16.237  0.2444  0.2076  0.1049
17692TIP3    H274568   2.230   0.144  16.100 -0.4015  0.9255 -0.2812
17693TIP3   OH274569   3.632   5.332   4.458  0.2431 -0.9021  0.3683
17693TIP3    H174570   3.569   5.372   4.518 -2.4829 -1.5906 -1.8387
17693TIP3    H274571   3.635   5.240   4.483  1.5883 -0.6131  1.3911
17694TIP3   OH274572   0.481   3.648  14.708 -0.0590 -0.0233 -0.1935
17694TIP3    H174573   0.438   3.566  14.683 -2.6569  0.4887  2.1563
17694TIP3    H274574   0.409   3.710  14.722  1.6929  1.9830  0.5107
17695TIP3   OH274575   5.469   1.731  10.335  0.4154  0.3265  0.4314
17695TIP3    H174576   5.503   1.644  10.318  0.0625  0.5153 -1.4759
17695TIP3    H274577   5.374   1.720  10.336  0.0987  1.1333 -3.5568
17696TIP3   OH274578   4.663   2.839   5.473 -0.1483  0.7103 -0.2613
17696TIP3    H174579   4.598   2.802   5.413 -0.8337  0.6712  0.4812
17696TIP3    H274580   4.618   2.914   5.514  0.1497  0.4749  0.5224
17697TIP3   OH274581   4.626   1.774   1.737  0.1304 -0.2807  0.2246
17697TIP3    H174582   4.531   1.786   1.748  0.1209  0.4710 -0.5606
17697TIP3    H274583   4.635   1.685   1.702 -0.3355 -0.1398 -0.2646
17698TIP3   OH274584   0.175   0.667   3.484 -0.5168 -0.3340 -0.4240
17698TIP3    H174585   0.187   0.595   3.422  1.1055  0.0894 -0.6451
17698TIP3    H274586   0.255   0.668   3.536 -1.3144  0.1375  0.8431
17699TIP3   OH274587   4.601   6.027   1.200 -0.3095  0.2580  0.3223
17699TIP3    H174588   4.648   5.995   1.277  0.3539 -0.0533 -0.1999
17699TIP3    H274589   4.604   5.954   1.138 -1.1639  0.3694  0.1354
17700TIP3   OH274590   1.516   0.310  13.507 -0.4733  0.5411  0.0536
17700TIP3    H174591   1.530   0.401  13.533 -1.6423  0.5359  0.7732
17700TIP3    H274592   1.459   0.315  13.431  0.8619  0.4509 -0.9945
17701TIP3   OH274593   5.841   3.939  13.256  0.4634 -0.4148 -0.4805
17701TIP3    H174594   5.895   3.860  13.252  1.3241  0.2143 -1.9161
17701TIP3    H274595   5.794   3.941  13.173  0.3786  0.5089 -0.4283
17702TIP3   OH274596   2.274   3.025  13.376  0.0675 -0.4854  0.1771
17702TIP3    H174597   2.261   2.930  13.365 -0.1261 -0.4033 -0.3059
17702TIP3    H274598   2.346   3.046  13.316  1.3494 -0.6365  1.5894
17703TIP3   OH274599   0.816   0.117  13.432 -0.0146 -0.2703  0.2200
17703TIP3    H174600   0.857   0.036  13.401 -0.5712 -0.3699 -0.2660
17703TIP3    H274601   0.855   0.185  13.377 -1.0240 -0.4501 -0.7562
17704TIP3   OH274602   2.864   3.643   4.782 -0.2379  0.1443 -0.4151
17704TIP3    H174603   2.907   3.625   4.866  2.4050  0.7658 -1.5299
17704TIP3    H274604   2.935   3.674   4.725 -1.6519 -1.6429 -3.3547
17705TIP3   OH274605   1.015   2.162  13.673 -0.5188 -0.0862 -0.5184
17705TIP3    H174606   1.000   2.140  13.765  0.6220  0.6245 -0.1327
17705TIP3    H274607   1.109   2.151  13.661 -0.9303 -2.3127 -2.2220
17706TIP3   OH274608   2.201   1.569  15.635 -0.1237 -0.3805  0.5007
17706TIP3    H174609   2.131   1.605  15.580 -0.0433  0.0358  0.6741
17706TIP3    H274610   2.196   1.474  15.619 -0.6220 -0.3398  0.3881
17707TIP3   OH274611   2.000   0.141   5.509  0.5101 -0.1329  0.3299
17707TIP3    H174612   2.035   0.194   5.580  2.2845  0.2445 -0.7628
17707TIP3    H274613   2.015   0.193   5.430 -1.3408 -0.5705 -0.3546
17708TIP3   OH274614   2.280   2.412   3.809  0.1713 -0.4118 -0.3470
17708TIP3    H174615   2.350   2.403   3.744  1.0082  1.9923  0.1072
17708TIP3    H274616   2.203   2.437   3.758  0.8735  1.6594 -0.4789
17709TIP3   OH274617   2.649   0.767  16.629 -0.1818 -0.2506  0.0024
17709TIP3    H174618   2.692   0.847  16.658 -1.2747 -0.1683  1.5130
17709TIP3    H274619   2.556   0.786  16.636 -0.5170 -0.7064 -2.3695
17710TIP3   OH274620   3.083   3.319  11.288 -0.1742 -0.0428  0.2708
17710TIP3    H174621   3.128   3.315  11.204 -1.5489 -0.6470 -0.4798
17710TIP3    H274622   3.140   3.372  11.344  0.1795  1.4441 -1.4145
17711TIP3   OH274623   2.478   3.170   6.653 -0.4058  0.3743 -0.0233
17711TIP3    H174624   2.564   3.140   6.625  0.2344  1.4298  0.7485
17711TIP3    H274625   2.416   3.120   6.599  0.6883 -0.1622 -0.8117
17712TIP3   OH274626   1.279   4.766  15.619  0.1797 -0.8524 -0.0153
17712TIP3    H174627   1.306   4.790  15.530 -2.4332 -1.4590 -1.0625
17712TIP3    H274628   1.249   4.675  15.611  1.0767 -1.3527  1.8023
17713TIP3   OH274629   0.503   0.112  12.372 -0.1017 -0.0713 -0.1530
17713TIP3    H174630   0.487   0.194  12.326  0.9597 -0.1513 -0.6994
17713TIP3    H274631   0.565   0.065  12.316 -0.1729 -0.9506  0.4867
17714TIP3   OH274632   0.443   3.632   2.466  0.1085 -0.2310  0.1306
17714TIP3    H174633   0.456   3.658   2.557  0.8296  0.4340 -0.1550
17714TIP3    H274634   0.352   3.603   2.463  0.0698 -0.2552  1.0542
17715TIP3   OH274635   3.206   2.831  11.452  0.0837  0.6008 -0.1537
17715TIP3    H174636   3.295   2.864  11.461  0.8290 -1.4019  0.3484
17715TIP3    H274637   3.214   2.737  11.464 -1.8516  0.1348 -1.9341
17716TIP3   OH274638   1.251   6.481  15.322 -0.1578  0.2123  0.1101
17716TIP3    H174639   1.240   6.530  15.241  0.9029 -1.1551 -0.8917
17716TIP3    H274640   1.162   6.457  15.348 -0.4330 -0.2426 -1.2191
17717TIP3   OH274641   1.998   1.761  13.206 -0.3115  0.9248 -0.0619
17717TIP3    H174642   2.036   1.674  13.200 -0.4189  0.7483  1.4769
17717TIP3    H274643   2.051   1.806  13.272 -0.8690  1.6846 -0.1204
17718TIP3   OH274644   2.308   0.246   1.413  0.3445 -0.2069 -0.3727
17718TIP3    H174645   2.313   0.236   1.508  0.3572 -1.3149 -0.4849
17718TIP3    H274646   2.275   0.335   1.401 -0.8119 -0.4647  0.6899
17719TIP3   OH274647   2.742   4.223   4.518  0.3933  0.1756 -0.2169
17719TIP3    H174648   2.743   4.133   4.485  0.4787  0.6020 -1.3988
17719TIP3    H274649   2.659   4.229   4.566  0.8725 -0.8390  0.8008
17720TIP3   OH274650   4.590   6.604  14.520 -0.1809 -0.3370  0.5130
17720TIP3    H174651   4.685   6.601  14.518 -0.1570 -2.4654  1.8949
17720TIP3    H274652   4.562   6.526  14.472 -1.1398 -1.0202  2.1173
17721TIP3   OH274653   3.886   4.217   2.278  0.3644 -0.2346 -0.1881
17721TIP3    H174654   3.828   4.292   2.265  0.7239 -0.2836 -2.5008
17721TIP3    H274655   3.852   4.150   2.219  2.0505 -0.6829 -0.6988
17722TIP3   OH274656   3.044   1.667  10.862 -0.0424 -0.2258 -0.2556
17722TIP3    H174657   2.993   1.744  10.885  0.0627 -0.3559  0.4416
17722TIP3    H274658   3.112   1.700  10.803 -0.7425 -0.0046 -0.9601
17723TIP3   OH274659   2.349   5.148   0.807  0.1486  0.0161 -0.6294
17723TIP3    H174660   2.318   5.223   0.756 -1.1879  0.8064  1.2204
17723TIP3    H274661   2.340   5.176   0.898 -2.6803 -3.1721  0.2835
17724TIP3   OH274662   1.481   6.127   5.897 -0.1891  0.7345 -0.4347
17724TIP3    H174663   1.475   6.201   5.958 -1.8073  1.2884 -1.2182
17724TIP3    H274664   1.574   6.104   5.897 -0.0393  1.1116  1.7525
17725TIP3   OH274665   6.785   1.663  13.482  0.2004  0.1966 -0.4876
17725TIP3    H174666   6.852   1.713  13.530  0.0763  1.0645 -1.1848
17725TIP3    H274667   6.705   1.676  13.532  0.5523 -0.9166  0.3991
17726TIP3   OH274668   0.573   2.458  13.708  0.0382  0.5462  0.1111
17726TIP3    H174669   0.569   2.367  13.737 -0.3084  1.0266  1.6499
17726TIP3    H274670   0.552   2.454  13.615 -0.8413 -0.8615  0.3396
17727TIP3   OH274671   0.700   2.931   3.571  0.2252  0.3225  0.4165
17727TIP3    H174672   0.627   2.960   3.627 -0.9286 -0.7511 -0.4641
17727TIP3    H274673   0.683   2.838   3.557  1.1204  0.3194 -0.7752
17728TIP3   OH274674   6.291   2.637   4.283 -0.1795  0.1271 -0.4114
17728TIP3    H174675   6.320   2.666   4.370 -2.9133  0.0975  0.6056
17728TIP3    H274676   6.263   2.547   4.295  0.8145 -0.4055 -1.7413
17729TIP3   OH274677   1.363   5.428  15.866 -0.0251  0.5010  0.1145
17729TIP3    H174678   1.412   5.348  15.887 -1.4872 -0.5543 -0.3201
17729TIP3    H274679   1.311   5.405  15.789  1.1529  2.5855 -1.3998
17730TIP3   OH274680   4.317   5.334  13.702  0.0393  0.2454 -0.8095
17730TIP3    H174681   4.376   5.306  13.772  0.8657  1.3382 -1.0274
17730TIP3    H274682   4.349   5.288  13.624  0.5882  0.7988 -0.9172
17731TIP3   OH274683   5.125   4.764   3.998  0.3725  0.3317 -0.7813
17731TIP3    H174684   5.150   4.759   3.906  0.5313  1.9400 -0.8544
17731TIP3    H274685   5.143   4.677   4.033  0.5834 -0.2162 -2.1927
17732TIP3   OH274686   6.273   1.728   1.300 -0.0804  0.3363 -0.3258
17732TIP3    H174687   6.200   1.788   1.314  0.8246  1.1205  1.2377
17732TIP3    H274688   6.316   1.761   1.221 -0.7901  0.4894 -0.6593
17733TIP3   OH274689   2.051   0.022  10.647  0.1000 -0.8512 -0.0570
17733TIP3    H174690   2.120  -0.041  10.625  2.1028  1.3119 -0.3875
17733TIP3    H274691   1.970  -0.026  10.632  1.4296 -2.3763 -3.4930
17734TIP3   OH274692   1.933   1.365   1.147 -0.2487  0.1252 -0.3416
17734TIP3    H174693   1.960   1.415   1.225  1.1015  0.2575 -0.8552
17734TIP3    H274694   1.966   1.417   1.074  1.5919 -1.7025 -0.8822
17735TIP3   OH274695   0.106   0.235  12.082 -0.4330 -0.0447  0.1898
17735TIP3    H174696   0.159   0.168  12.040  1.5208  0.4709  1.6695
17735TIP3    H274697   0.075   0.290  12.010 -0.6593 -1.5382 -0.8913
17736TIP3   OH274698   5.206   1.685  13.530  0.1223 -0.2186  0.4937
17736TIP3    H174699   5.176   1.681  13.620 -1.1077  0.3550  0.1285
17736TIP3    H274700   5.128   1.668  13.477  0.1471  2.2950 -0.5161
17737TIP3   OH274701   4.515   0.330  14.025  0.1920 -0.2044  0.5144
17737TIP3    H174702   4.496   0.411  13.978 -2.7816 -0.5779  0.8512
17737TIP3    H274703   4.573   0.281  13.966  0.0007  1.1076 -0.8334
17738TIP3   OH274704   1.409   5.543   2.939 -0.1889 -0.3218  0.1566
17738TIP3    H174705   1.438   5.556   2.848 -0.1277 -1.0338  0.0752
17738TIP3    H274706   1.445   5.459   2.964  0.5037  0.2454  1.1338
17739TIP3   OH274707   6.466   2.818  12.935 -0.4628  0.0942 -0.3635
17739TIP3    H174708   6.533   2.886  12.933 -1.6423  1.3531  0.8710
17739TIP3    H274709   6.464   2.789  13.026  0.0829 -1.7219 -0.8818
17740TIP3   OH274710   3.673   6.393  11.318  0.4062 -0.5768  0.1968
17740TIP3    H174711   3.656   6.311  11.270  0.0455 -0.1163 -0.4838
17740TIP3    H274712   3.702   6.364  11.404  3.2069 -1.4745 -0.9312
17741TIP3   OH274713   1.945   5.431  14.468  0.4315  0.2276  0.2246
17741TIP3    H174714   1.977   5.487  14.539 -1.9720  0.6980  1.0389
17741TIP3    H274715   1.917   5.351  14.512  1.5920 -0.6809 -0.6239
17742TIP3   OH274716   4.732   4.364   2.699 -0.1971 -0.3746  0.7977
17742TIP3    H174717   4.715   4.281   2.743  0.4556  0.3818  2.5847
17742TIP3    H274718   4.665   4.424   2.735 -0.6608 -0.1042 -0.4585
17743TIP3   OH274719   6.142   1.349  12.935  0.4377 -0.7118 -0.4148
17743TIP3    H174720   6.098   1.328  12.852  0.5254 -0.5807 -0.4939
17743TIP3    H274721   6.174   1.265  12.967  1.8142 -0.5568 -1.3149
17744TIP3   OH274722   5.715   3.159  12.230  0.4073  0.4425 -0.9595
17744TIP3    H174723   5.756   3.081  12.193  0.1825 -0.6755  0.9998
17744TIP3    H274724   5.788   3.219  12.246  1.1285 -0.7939  0.7437
17745TIP3   OH274725   5.607   2.364   4.993  0.1989  0.6879  0.7338
17745TIP3    H174726   5.542   2.309   4.950  1.7888 -2.0593  1.6637
17745TIP3    H274727   5.689   2.343   4.948  1.1855  0.7874  2.4228
17746TIP3   OH274728   6.356   6.230   0.376  0.5505 -0.4599 -0.2711
17746TIP3    H174729   6.395   6.286   0.443  0.6995  0.3045 -0.9725
17746TIP3    H274730   6.392   6.143   0.393  0.2891 -0.3577  0.8654
17747TIP3   OH274731   2.058   4.718   5.091  0.2859 -0.3380 -0.0565
17747TIP3    H174732   2.137   4.719   5.038  0.5453  1.1767  0.3155
17747TIP3    H274733   2.017   4.803   5.075 -1.5358 -1.2704 -0.6195
17748TIP3   OH274734   3.587   0.456  11.364  0.1726 -0.6811 -0.4588
17748TIP3    H174735   3.532   0.379  11.349  1.3011 -1.4661 -0.6850
17748TIP3    H274736   3.647   0.430  11.434  1.6334 -0.5988 -1.6333
17749TIP3   OH274737   3.913   3.675   2.061 -0.2474 -0.6769  0.8332
17749TIP3    H174738   3.904   3.673   2.156 -0.5665 -2.3409  0.7968
17749TIP3    H274739   3.840   3.623   2.028  1.3166 -2.3823 -0.1595
17750TIP3   OH274740   3.151   2.915  12.083 -0.1526 -0.2165  0.5055
17750TIP3    H174741   3.176   2.823  12.086 -0.0795 -0.1774  1.3074
17750TIP3    H274742   3.065   2.915  12.041  0.3847 -0.5178 -0.6367
17751TIP3   OH274743   6.331   5.984   3.518 -0.5364  0.3025  0.6317
17751TIP3    H174744   6.252   6.006   3.566 -1.0205 -1.8936  0.9740
17751TIP3    H274745   6.399   5.976   3.585 -0.4246  0.5152  0.5447
17752TIP3   OH274746   3.030   5.527  14.207 -0.0197  0.0995 -0.1895
17752TIP3    H174747   3.051   5.523  14.300 -0.9982 -4.1535  0.0657
17752TIP3    H274748   3.063   5.444  14.171 -1.2416  0.7875 -3.2397
17753TIP3   OH274749   2.656   1.147   5.753 -0.4441  0.1040 -0.0500
17753TIP3    H174750   2.654   1.243   5.744 -0.4855  0.0028 -1.4033
17753TIP3    H274751   2.749   1.125   5.744 -0.5536 -0.0565 -0.8676
17754TIP3   OH274752   6.118   2.199  16.321  0.1271  0.7907 -0.2863
17754TIP3    H174753   6.068   2.117  16.320  0.1883  0.7470  0.0551
17754TIP3    H274754   6.189   2.184  16.259 -0.6585  1.0942 -1.2829
17755TIP3   OH274755   1.033   0.185  10.484  0.7895  0.0267  0.1401
17755TIP3    H174756   1.128   0.176  10.484  0.8021  0.1412 -0.1588
17755TIP3    H274757   1.010   0.197  10.392  0.4094 -0.7285  0.1352
17756TIP3   OH274758   4.662   5.728  11.811 -0.4898 -0.4797 -0.5429
17756TIP3    H174759   4.700   5.712  11.724 -1.0159 -2.2221 -0.4744
17756TIP3    H274760   4.636   5.642  11.843 -0.1200  0.0982  1.4557
17757TIP3   OH274761   5.120   4.228  14.067 -0.5512 -0.5289 -0.1153
17757TIP3    H174762   5.036   4.230  14.021 -0.5229  0.2183 -0.1489
17757TIP3    H274763   5.097   4.233  14.160 -0.5774 -1.2842 -0.0745
17758TIP3   OH274764   5.436   5.722  14.445  0.6414 -0.1939 -0.1570
17758TIP3    H174765   5.503   5.789  14.459  0.7699 -0.2015 -0.6810
17758TIP3    H274766   5.486   5.645  14.418  0.5662 -0.7880  1.3512
17759TIP3   OH274767   5.721   4.991   4.986 -0.5335 -0.0583 -0.0161
17759TIP3    H174768   5.634   5.027   5.001 -0.7065 -0.7807  0.7856
17759TIP3    H274769   5.726   4.978   4.891 -1.2824  0.0200 -0.0691
17760TIP3   OH274770   0.814   5.929   3.343  0.5307  0.1869  0.1988
17760TIP3    H174771   0.804   5.915   3.248  1.3791 -1.6404  0.3289
17760TIP3    H274772   0.726   5.950   3.373  0.4150  1.8424 -1.1162
17761TIP3   OH274773   0.287   1.027   6.239 -0.2443 -0.4939 -0.2852
17761TIP3    H174774   0.213   1.084   6.260 -1.8619 -2.1779 -1.1232
17761TIP3    H274775   0.260   0.980   6.160  1.2449 -1.9961  0.0283
17762TIP3   OH274776   4.385   4.925   2.479  0.0756  0.4513  0.3237
17762TIP3    H174777   4.321   4.900   2.546  1.8615 -1.5886  1.4040
17762TIP3    H274778   4.437   4.995   2.520 -0.0133  0.4970  0.3572
17763TIP3   OH274779   1.942   0.915  14.018  0.3366 -0.3524 -0.3243
17763TIP3    H174780   1.911   0.826  14.004 -1.2720  0.1218 -0.0122
17763TIP3    H274781   1.996   0.910  14.097 -2.1151 -0.6154  1.4845
17764TIP3   OH274782   4.702   6.476   2.855  0.2033  0.2370 -0.2468
17764TIP3    H174783   4.711   6.533   2.778  2.7204  1.2331  0.6932
17764TIP3    H274784   4.787   6.433   2.864 -0.5618 -1.1245  1.0701
17765TIP3   OH274785   5.298   2.277  13.991  0.5801  0.4999 -0.4218
17765TIP3    H174786   5.256   2.324  14.063  1.9458  1.2565 -0.0732
17765TIP3    H274787   5.392   2.285  14.009  0.9037 -2.2657 -0.4296
17766TIP3   OH274788   1.682   3.715   4.674 -0.0527 -0.1717 -0.0429
17766TIP3    H174789   1.711   3.786   4.730  2.4643 -2.3223  1.6399
17766TIP3    H274790   1.738   3.721   4.596 -1.0568  0.6542 -0.7350
17767TIP3   OH274791   0.791   5.930   1.338 -0.1027  0.3182 -0.4329
17767TIP3    H174792   0.753   5.974   1.414  0.9921  0.8776 -0.1774
17767TIP3    H274793   0.832   6.001   1.288  2.5208 -0.4276  0.4597
17768TIP3   OH274794   1.309   2.484   6.535  0.6058  0.0560 -0.0703
17768TIP3    H174795   1.236   2.421   6.540 -0.3694  1.1714  0.3210
17768TIP3    H274796   1.270   2.567   6.564  1.5764  1.0981 -1.6569
17769TIP3   OH274797   5.361   6.609   2.418  0.4046  0.5165  0.1545
17769TIP3    H174798   5.323   6.532   2.376  0.6758 -0.9694  2.4441
17769TIP3    H274799   5.287   6.667   2.434  0.0696  0.3812 -0.8558
17770TIP3   OH274800   2.353   5.303  14.065  0.2692 -0.0121  0.4574
17770TIP3    H174801   2.347   5.399  14.070 -0.9336 -0.0232 -0.4836
17770TIP3    H274802   2.444   5.286  14.040  0.6024  0.8548  1.0170
17771TIP3   OH274803   2.817   2.457  11.585 -0.4831  0.5167 -0.1875
17771TIP3    H174804   2.816   2.508  11.666  0.5123 -1.3759  1.1117
17771TIP3    H274805   2.905   2.469  11.549 -1.5163  2.9619 -2.1837
17772TIP3   OH274806   0.220   2.130  14.040  0.0309  0.5280  0.2075
17772TIP3    H174807   0.184   2.051  13.998 -0.4364  0.0888  1.3877
17772TIP3    H274808   0.274   2.096  14.111  1.7026  1.2298 -0.6680
17773TIP3   OH274809   5.000   0.780   0.611 -0.4745 -0.7819  0.4531
17773TIP3    H174810   5.090   0.748   0.612 -0.1643  0.0836  0.1844
17773TIP3    H274811   4.990   0.828   0.693 -1.3186 -2.5337  1.4506
17774TIP3   OH274812   6.504   6.710  15.895  0.5228  0.3834 -0.1613
17774TIP3    H174813   6.560   6.751  15.830  0.5468  0.5973 -0.0078
17774TIP3    H274814   6.517   6.762  15.974 -0.8310  1.2002 -0.4535
17775TIP3   OH274815   6.421   1.045   4.879  0.4581  0.5632 -0.4462
17775TIP3    H174816   6.403   1.081   4.792 -0.7987  0.0319 -0.4275
17775TIP3    H274817   6.421   0.950   4.867  0.8473  0.4977  0.0313
17776TIP3   OH274818   5.882   2.890  12.307 -1.0445  0.0776  0.0085
17776TIP3    H174819   5.946   2.904  12.237 -0.8338 -0.6350  0.0533
17776TIP3    H274820   5.915   2.942  12.380  0.8622 -2.1754  0.8735
17777TIP3   OH274821   5.277   2.127  15.026 -0.3069 -0.2643 -0.4667
17777TIP3    H174822   5.353   2.178  15.000 -0.3619  0.2524  0.3264
17777TIP3    H274823   5.313   2.053  15.076 -0.2869 -0.4564 -0.7603
17778TIP3   OH274824   2.430   3.262   6.168  0.0082  0.0566 -0.0322
17778TIP3    H174825   2.364   3.196   6.144  0.3724 -0.1958 -0.3467
17778TIP3    H274826   2.508   3.211   6.188 -0.1662  0.2883  1.3166
17779TIP3   OH274827   4.740   6.010  14.703 -0.4186 -0.2011  0.3319
17779TIP3    H174828   4.674   5.967  14.650  0.4373 -0.0188 -0.9428
17779TIP3    H274829   4.766   5.945  14.768  0.5056 -1.4591 -1.2494
17780TIP3   OH274830   3.012   1.412   4.332  0.0597  0.3491  0.7880
17780TIP3    H174831   3.077   1.443   4.268 -0.9578  2.5186  0.7131
17780TIP3    H274832   3.064   1.362   4.395  1.2805 -0.7733 -1.0189
17781TIP3   OH274833   5.276   0.383   6.452  0.0703  0.0064 -0.3626
17781TIP3    H174834   5.319   0.405   6.535 -0.9016  0.8097 -0.0560
17781TIP3    H274835   5.217   0.310   6.474 -0.3264  0.3436 -0.3022
17782TIP3   OH274836   3.866   2.083   3.299 -0.4237 -0.1207 -0.2910
17782TIP3    H174837   3.858   2.167   3.344 -0.1361  0.7778 -1.8460
17782TIP3    H274838   3.944   2.043   3.337 -1.1240 -0.1597  1.1702
17783TIP3   OH274839   2.027   3.588  14.603 -0.3067  0.2632  0.5752
17783TIP3    H174840   2.090   3.644  14.649 -2.0123  2.5547  0.3094
17783TIP3    H274841   2.003   3.521  14.667  0.2673  1.0616  1.6566
17784TIP3   OH274842   5.856   6.535  13.331 -0.2622 -0.2037 -0.2736
17784TIP3    H174843   5.835   6.557  13.240 -0.2376 -0.0384 -0.2384
17784TIP3    H274844   5.795   6.587  13.383 -0.1711 -0.1819 -0.1905
17785TIP3   OH274845   4.616   6.117  15.293  0.1519 -0.1941 -0.2418
17785TIP3    H174846   4.656   6.115  15.380  1.3795 -2.1939 -0.7738
17785TIP3    H274847   4.688   6.141  15.234 -0.4484  0.2767 -0.7933
17786TIP3   OH274848   0.685   0.539   4.032 -0.1175  0.2046  0.0698
17786TIP3    H174849   0.596   0.515   4.057  0.0367 -0.3210  0.1222
17786TIP3    H274850   0.721   0.460   3.992 -0.5362  1.1445 -2.3393
17787TIP3   OH274851   1.297   0.893  11.658  0.5357 -0.1940  0.3511
17787TIP3    H174852   1.257   0.866  11.576  1.3819 -1.0715  0.1989
17787TIP3    H274853   1.260   0.834  11.724 -2.1646  2.1804  1.1453
17788TIP3   OH274854   2.025   3.826   3.907  0.5550  0.0376  0.3281
17788TIP3    H174855   2.067   3.896   3.858 -0.8948  0.4259 -0.4183
17788TIP3    H274856   1.954   3.869   3.956  0.1955 -0.7702  0.5409
17789TIP3   OH274857   0.822   5.897   5.101 -0.5761 -1.0084 -0.3905
17789TIP3    H174858   0.784   5.971   5.054 -1.4129 -1.4836 -0.4800
17789TIP3    H274859   0.768   5.822   5.076  0.8624 -1.8441 -1.0601
17790TIP3   OH274860   6.280   0.273   1.449 -0.0081 -0.7747  0.1475
17790TIP3    H174861   6.253   0.355   1.490  1.5248 -0.9363  1.5993
17790TIP3    H274862   6.282   0.292   1.355  0.5875  0.9396  0.4712
17791TIP3   OH274863   6.699   3.447   6.485 -0.4119 -0.4072  0.2414
17791TIP3    H174864   6.739   3.526   6.450 -0.9224  0.7521  2.1848
17791TIP3    H274865   6.727   3.443   6.576 -0.3131 -2.5493  0.1829
17792TIP3   OH274866   4.239   1.932   2.971 -0.5454  0.3538  0.2164
17792TIP3    H174867   4.244   1.922   3.066  1.7880 -2.2373 -0.0369
17792TIP3    H274868   4.155   1.893   2.947 -1.8294  2.3173  1.2372
17793TIP3   OH274869   4.124   0.818  11.605  0.3490  0.0970 -0.4955
17793TIP3    H174870   4.155   0.732  11.633  0.7529 -0.1647 -1.6688
17793TIP3    H274871   4.078   0.853  11.680  0.1844 -1.1519  0.0057
17794TIP3   OH274872   2.460   6.741  16.736  0.3187 -0.5237  0.1949
17794TIP3    H174873   2.511   6.820  16.755 -1.1580  0.5009  0.0866
17794TIP3    H274874   2.369   6.769  16.745 -0.2614 -1.9172 -1.0057
17795TIP3   OH274875   6.076   0.271   5.650 -0.0401 -0.2172  0.6410
17795TIP3    H174876   5.993   0.307   5.617  0.4749 -0.0119 -0.5020
17795TIP3    H274877   6.125   0.348   5.679 -0.6707 -0.4385  2.3938
17796TIP3   OH274878   2.812   6.451  10.492 -0.2573 -0.4283  0.4794
17796TIP3    H174879   2.883   6.431  10.431  0.0206  0.0090  0.6575
17796TIP3    H274880   2.739   6.478  10.437  0.5953  1.9110  0.3812
17797TIP3   OH274881   4.789   6.353  11.581  0.1812  0.1317 -0.3433
17797TIP3    H174882   4.772   6.396  11.664  2.3363  0.6901 -0.1400
17797TIP3    H274883   4.814   6.264  11.604 -0.1870 -0.0058 -0.4684
17798TIP3   OH274884   2.089   3.924  17.053  0.0226 -0.1195 -0.3099
17798TIP3    H174885   2.166   3.919  16.996 -0.5187 -1.7050 -0.9661
17798TIP3    H274886   2.060   4.015  17.046 -0.3178 -0.3390 -3.0284
17799TIP3   OH274887   4.673   1.515  16.927  0.5326  0.4712  0.3959
17799TIP3    H174888   4.665   1.432  16.880 -0.5511  1.4346 -1.2448
17799TIP3    H274889   4.583   1.544  16.939  0.9035  2.0910 -0.3959
17800TIP3   OH274890   5.729   1.672   0.430  0.0409  0.4663 -0.0601
17800TIP3    H174891   5.741   1.663   0.335  0.5488 -0.9479  0.1175
17800TIP3    H274892   5.714   1.583   0.461 -3.3828  1.1594  0.7942
17801TIP3   OH274893   1.179   5.763  12.924  0.0449  0.1582 -0.7892
17801TIP3    H174894   1.130   5.695  12.877 -2.0676  0.1436  1.2116
17801TIP3    H274895   1.258   5.719  12.955 -1.8489 -1.9069  1.5288
17802TIP3   OH274896   3.181   0.082  12.463  0.3022  0.7057  0.3197
17802TIP3    H174897   3.158   0.029  12.387 -1.1563  1.0051  0.5137
17802TIP3    H274898   3.206   0.019  12.531 -0.5657  0.3089  0.2784
17803TIP3   OH274899   2.711   4.700  16.777 -0.0092  0.9483  0.4539
17803TIP3    H174900   2.622   4.723  16.806 -0.1995 -0.1802  0.8092
17803TIP3    H274901   2.700   4.619  16.728  0.9737  0.1586  1.4973
17804TIP3   OH274902   1.560   5.827  15.878  0.0460  0.5127  0.0623
17804TIP3    H174903   1.509   5.908  15.869  1.7801  1.5006 -1.8910
17804TIP3    H274904   1.626   5.847  15.944  1.7302  1.4989 -1.8133
17805TIP3   OH274905   0.217   0.111  13.272  0.8082 -0.0590 -0.4785
17805TIP3    H174906   0.136   0.061  13.275  0.3162  0.6935 -0.7588
17805TIP3    H274907   0.196   0.187  13.217  1.6360  0.2579 -0.3739
17806TIP3   OH274908   2.791   2.431   3.996  0.0651  0.3617  0.1752
17806TIP3    H174909   2.715   2.440   4.054 -0.0314 -2.9596  0.7587
17806TIP3    H274910   2.754   2.430   3.908 -0.6002 -0.9479  0.4440
17807TIP3   OH274911   3.206   3.249   0.611  0.6434  0.6213  0.1890
17807TIP3    H174912   3.200   3.341   0.637 -0.1856  0.5365  0.3169
17807TIP3    H274913   3.175   3.247   0.521  0.7332  0.4716  0.1597
17808TIP3   OH274914   1.576   4.718  15.286 -0.1443 -0.2679 -0.9296
17808TIP3    H174915   1.640   4.659  15.326 -0.3326  0.3608  0.3650
17808TIP3    H274916   1.497   4.665  15.277 -0.5285 -0.0928  0.8678
17809TIP3   OH274917   4.533   0.845   4.580 -0.0551 -0.0541  0.4117
17809TIP3    H174918   4.562   0.816   4.666 -0.4687 -0.9506  0.2638
17809TIP3    H274919   4.584   0.924   4.562  1.7634 -1.1604  0.4626
17810TIP3   OH274920   6.121   4.284   6.408 -0.4909  0.2532  0.5251
17810TIP3    H174921   6.096   4.352   6.470  0.0259  1.4297 -0.5175
17810TIP3    H274922   6.038   4.248   6.376 -0.7707  0.6798  0.7682
17811TIP3   OH274923   3.152   2.352   3.438  0.3005 -0.2761 -0.4894
17811TIP3    H174924   3.162   2.289   3.510  0.7267  0.7639  0.3945
17811TIP3    H274925   3.241   2.380   3.418  0.0359  0.9880  0.0101
17812TIP3   OH274926   6.610   3.220   4.246 -0.7664 -0.3477  0.7500
17812TIP3    H174927   6.634   3.268   4.325 -2.4650  0.5027  0.8067
17812TIP3    H274928   6.570   3.139   4.277  1.0590 -1.3130  0.6759
17813TIP3   OH274929   3.775   2.095   0.101  0.1946 -0.1862 -0.2081
17813TIP3    H174930   3.781   2.132   0.013 -1.7388  0.1776 -0.2344
17813TIP3    H274931   3.712   2.023   0.093 -1.5240  1.0814  1.2084
17814TIP3   OH274932   3.857   5.699  14.331 -0.0635  0.0303  0.0617
17814TIP3    H174933   3.768   5.735  14.327 -1.3542 -1.5636  5.4982
17814TIP3    H274934   3.845   5.605  14.320  0.7546 -0.2850  1.5769
17815TIP3   OH274935   2.119   4.982  14.260  0.1314  0.2713  0.1618
17815TIP3    H174936   2.082   4.966  14.347 -1.0477  1.3013 -0.1206
17815TIP3    H274937   2.194   4.923  14.255 -2.3297 -3.1720  0.1657
17816TIP3   OH274938   3.160   4.809  12.864  0.1167 -0.4168 -1.3541
17816TIP3    H174939   3.098   4.847  12.802 -0.2869  2.2904  0.5155
17816TIP3    H274940   3.238   4.863  12.856  0.5692 -0.9243 -0.5172
17817TIP3   OH274941   5.180   5.640  12.619  0.4358  0.1487  0.2326
17817TIP3    H174942   5.155   5.731  12.634 -0.4073 -0.1343  0.6144
17817TIP3    H274943   5.096   5.593  12.615  0.6662 -0.2294 -2.6203
17818TIP3   OH274944   4.576   0.456   0.671  0.2987  0.2697 -0.0791
17818TIP3    H174945   4.491   0.490   0.645 -0.2414 -1.5245 -0.8280
17818TIP3    H274946   4.629   0.460   0.592 -0.0895 -1.4812 -0.4619
17819TIP3   OH274947   4.424   5.914  15.503 -0.4902 -0.3577  0.1849
17819TIP3    H174948   4.416   5.819  15.512  2.0876 -0.5026  1.9415
17819TIP3    H274949   4.366   5.948  15.571 -2.6033 -0.5222 -1.4169
17820TIP3   OH274950   6.446   3.986  12.700 -0.5618 -0.6935 -0.2194
17820TIP3    H174951   6.476   3.974  12.790  0.3963 -2.4882 -0.7321
17820TIP3    H274952   6.523   4.021  12.654 -1.4992  1.7527 -0.0706
17821TIP3   OH274953   2.845   3.868   1.643  0.2449 -0.0160  0.0053
17821TIP3    H174954   2.856   3.851   1.549  1.0122 -0.1524  0.1177
17821TIP3    H274955   2.751   3.857   1.658  0.4676 -2.8220 -0.1886
17822TIP3   OH274956   4.614   3.936  11.553  0.2650 -0.1216 -0.5638
17822TIP3    H174957   4.633   4.030  11.559  1.0891 -0.3412  0.5869
17822TIP3    H274958   4.525   3.928  11.589  0.6163  0.1014  0.3957
17823TIP3   OH274959   2.008   4.105   5.992 -0.9687  0.3157 -0.1742
17823TIP3    H174960   1.925   4.100   6.040 -2.3035  2.4466 -2.0824
17823TIP3    H274961   2.074   4.120   6.060 -2.4496  0.7500  1.2304
17824TIP3   OH274962   4.051   6.263  15.290 -0.2971 -0.4267  0.0817
17824TIP3    H174963   4.026   6.219  15.208 -0.7131 -0.4243  0.2052
17824TIP3    H274964   4.128   6.216  15.320  0.3579  0.0940 -0.7461
17825TIP3   OH274965   1.575   3.479   1.647 -0.0037  0.3519 -0.8545
17825TIP3    H174966   1.632   3.403   1.639  0.6450  0.7522 -0.0957
17825TIP3    H274967   1.527   3.466   1.729  1.7496  1.8117  0.4852
17826TIP3   OH274968   4.854   1.580  13.925  0.3602 -0.1919 -0.3129
17826TIP3    H174969   4.935   1.601  13.971 -0.5737 -1.5516  2.1766
17826TIP3    H274970   4.798   1.657  13.938  0.5993  0.0002 -0.4214
17827TIP3   OH274971   0.905   5.229  14.173 -0.1974  0.0096  0.3181
17827TIP3    H174972   0.818   5.239  14.133 -0.0349  0.5018  0.0785
17827TIP3    H274973   0.945   5.156  14.126 -0.0642  0.4913 -0.3329
17828TIP3   OH274974   5.551   3.676  11.379 -0.3409 -0.1448 -0.5613
17828TIP3    H174975   5.529   3.592  11.338  0.3387 -0.4029 -0.4122
17828TIP3    H274976   5.486   3.737  11.345  0.5785 -0.1953 -2.5385
17829TIP3   OH274977   4.888   6.090   2.300  0.2345  0.2323  0.3571
17829TIP3    H174978   4.896   6.172   2.251  0.8097  0.4741  0.8453
17829TIP3    H274979   4.970   6.083   2.349  0.5949 -1.1119 -0.3924
17830TIP3   OH274980   2.950   1.031  15.153 -0.4643  0.8706  0.1367
17830TIP3    H174981   2.904   0.947  15.141  0.1780  0.1806  2.0797
17830TIP3    H274982   2.922   1.084  15.079 -3.4769  0.0688  0.5443
17831TIP3   OH274983   4.630   0.532   3.849  0.7561  0.1892 -0.0077
17831TIP3    H174984   4.637   0.596   3.920  0.5161  1.3108 -0.9503
17831TIP3    H274985   4.719   0.500   3.837  0.6158 -0.8475  1.5097
17832TIP3   OH274986   4.076   4.606   1.504 -0.7908  0.1514  0.5652
17832TIP3    H174987   4.064   4.671   1.573  0.4334 -0.0754  1.0069
17832TIP3    H274988   4.039   4.526   1.539  1.1956 -0.3593  1.6252
17833TIP3   OH274989   2.883   4.483   5.055  0.0623 -0.8305 -1.0075
17833TIP3    H174990   2.828   4.501   4.979 -1.6563 -2.3723 -0.2182
17833TIP3    H274991   2.855   4.546   5.121  0.8727 -0.1325 -1.3103
17834TIP3   OH274992   1.687   2.719   4.010 -0.3661  0.1682 -0.2893
17834TIP3    H174993   1.606   2.763   3.985 -1.3833 -0.0372  2.3575
17834TIP3    H274994   1.674   2.627   3.986 -1.3289 -0.0294  0.8942
17835TIP3   OH274995   5.073   3.328   0.622 -0.4945 -0.4212  0.3386
17835TIP3    H174996   5.022   3.352   0.545 -2.6420 -1.0341  1.4559
17835TIP3    H274997   5.164   3.340   0.597 -1.0680 -1.3147 -2.5252
17836TIP3   OH274998   3.657   2.391   0.436  0.1493 -0.1936  0.2521
17836TIP3    H174999   3.633   2.453   0.504  1.2335  1.7327 -1.0266
17836TIP3    H275000   3.750   2.373   0.452  0.1127 -0.6435 -0.0237
17837TIP3   OH275001   5.350   1.144  14.133 -0.4010  0.3663  0.8343
17837TIP3    H175002   5.375   1.178  14.047  0.9846 -1.5553  0.4070
17837TIP3    H275003   5.264   1.106  14.120 -0.7010  1.1005  0.6053
17838TIP3   OH275004   0.986   3.889  13.892 -0.1817  0.7983 -0.3810
17838TIP3    H175005   0.948   3.812  13.850  1.8463 -0.7576  0.4528
17838TIP3    H275006   0.967   3.961  13.833 -0.6811 -0.6439 -2.0515
17839TIP3   OH275007   4.448   4.725   1.898  0.0638 -0.1939  0.3064
17839TIP3    H175008   4.380   4.793   1.899 -0.3343 -0.5769 -0.4267
17839TIP3    H275009   4.444   4.686   1.985  0.3247  0.7475  0.7543
17840TIP3   OH275010   2.895   2.953   4.569 -0.1415  0.1211  0.8184
17840TIP3    H175011   2.832   3.023   4.581  1.1311  1.1334  1.8951
17840TIP3    H275012   2.860   2.880   4.620 -0.4053  0.6951  1.4668
17841TIP3   OH275013   1.897   1.032  16.190  0.1956  0.2705 -0.3202
17841TIP3    H175014   1.985   1.013  16.222 -1.5600 -4.4407  2.8269
17841TIP3    H275015   1.853   1.077  16.262 -0.8715 -0.6084 -0.3871
17842TIP3   OH275016   1.265   3.378   2.546 -0.6924 -0.5777 -0.5833
17842TIP3    H175017   1.204   3.450   2.560 -1.1369 -1.0535 -0.0441
17842TIP3    H275018   1.327   3.411   2.481 -3.1369 -1.0421 -3.3348
17843TIP3   OH275019   2.847   1.110  11.483 -0.3189  0.5649 -0.0385
17843TIP3    H175020   2.804   1.191  11.456  0.4770  1.4585  1.2426
17843TIP3    H275021   2.858   1.060  11.402 -0.0359  2.1403 -1.0081
17844TIP3   OH275022   3.642   0.123  13.789  0.1082 -0.0143 -0.2930
17844TIP3    H175023   3.590   0.048  13.817  0.0799 -0.2109 -0.8762
17844TIP3    H275024   3.584   0.198  13.799 -1.4723 -0.5452 -3.9521
17845TIP3   OH275025   4.779   5.664   5.145  0.0776 -0.3798 -0.0157
17845TIP3    H175026   4.752   5.756   5.151  0.8339 -0.0213 -1.5950
17845TIP3    H275027   4.772   5.643   5.052 -0.6943 -2.1427  0.3825
17846TIP3   OH275028   6.687   1.230  12.543 -0.1097  0.1961 -0.0395
17846TIP3    H175029   6.650   1.254  12.628 -1.1157 -0.3080 -0.3291
17846TIP3    H275030   6.752   1.163  12.563 -0.0562  0.3681  0.3705
17847TIP3   OH275031   5.016   5.580  16.044 -0.1719 -0.1323 -0.3850
17847TIP3    H175032   5.080   5.638  16.002 -1.0377  1.6566  0.6859
17847TIP3    H275033   5.007   5.507  15.983  1.0239  0.7967 -1.7407
17848TIP3   OH275034   6.687   4.466  11.332 -0.8480 -0.0248 -0.3030
17848TIP3    H175035   6.597   4.433  11.332 -0.7718 -0.2407 -0.1044
17848TIP3    H275036   6.723   4.435  11.415 -0.7284  0.4429 -0.1800
17849TIP3   OH275037   2.374   4.093   3.881  0.1287 -0.9550 -0.5950
17849TIP3    H175038   2.363   4.019   3.821 -1.3990 -0.1720 -1.3081
17849TIP3    H275039   2.400   4.166   3.825 -0.0233 -0.5401 -0.1316
17850TIP3   OH275040   0.879   3.488   3.862 -0.5250  0.3730 -0.3728
17850TIP3    H175041   0.858   3.427   3.791  0.5995  0.5072 -0.8313
17850TIP3    H275042   0.964   3.525   3.838 -0.0121  0.2555  1.1578
17851TIP3   OH275043   0.410   0.492   4.182  0.0237  0.3254 -0.2327
17851TIP3    H175044   0.430   0.585   4.186 -0.6500  0.4704 -0.0722
17851TIP3    H275045   0.317   0.488   4.159 -0.5441 -0.2318  1.8998
17852TIP3   OH275046   0.334   6.414   6.109 -0.1742 -0.0540 -0.1143
17852TIP3    H175047   0.305   6.336   6.157  0.3416 -1.2845 -1.6976
17852TIP3    H275048   0.382   6.466   6.174 -0.9737 -0.7836  1.1055
17853TIP3   OH275049   4.691   6.160   0.620  0.2893  0.0246 -0.1960
17853TIP3    H175050   4.603   6.176   0.586  0.2569 -0.5943 -0.4075
17853TIP3    H275051   4.724   6.248   0.642  0.8194  0.6415 -3.0172
17854TIP3   OH275052   0.343   0.773   4.004  0.1730  0.4143 -0.0216
17854TIP3    H175053   0.374   0.835   3.938  1.3837 -0.1199  0.0152
17854TIP3    H275054   0.403   0.785   4.078 -0.3943  0.1236  0.4883
17855TIP3   OH275055   5.388   4.308  10.548  1.4926 -0.5864  0.3738
17855TIP3    H175056   5.298   4.277  10.539  1.2905  0.2662 -0.8200
17855TIP3    H275057   5.388   4.361  10.628  0.4121  1.0034 -0.6063
17856TIP3   OH275058   2.595   6.089  14.115 -0.3576 -1.0878  0.5644
17856TIP3    H175059   2.634   6.094  14.202  1.5557 -1.4414 -0.2098
17856TIP3    H275060   2.574   5.997  14.103  1.9102 -1.5617 -0.3067
17857TIP3   OH275061   0.670   6.132   1.818  0.2723 -0.3326  0.2331
17857TIP3    H175062   0.587   6.126   1.865 -1.3620  0.2368 -2.3724
17857TIP3    H275063   0.722   6.059   1.852 -1.6027 -1.2110  1.3806
17858TIP3   OH275064   0.061   0.301  12.361 -0.4356  0.3883  0.5850
17858TIP3    H175065   0.053   0.291  12.266  1.6605 -0.8115  0.4643
17858TIP3    H275066   0.154   0.282  12.379 -0.5596  1.5373  2.7678
17859TIP3   OH275067   4.273   0.991   1.448  0.3842 -0.0729  0.1958
17859TIP3    H175068   4.344   0.976   1.386  0.3864  0.0736  0.1618
17859TIP3    H275069   4.217   1.057   1.405 -0.8279 -1.5621 -0.6420
17860TIP3   OH275070   0.563   5.069   5.707  0.2017  0.0830 -0.1835
17860TIP3    H175071   0.551   5.156   5.671 -2.5832  0.0207  0.3699
17860TIP3    H275072   0.647   5.073   5.754  0.1868  2.4005 -0.2632
17861TIP3   OH275073   3.838   5.846  13.638  0.1241  0.2161 -0.1192
17861TIP3    H175074   3.854   5.764  13.684 -0.9773 -1.0646 -1.8588
17861TIP3    H275075   3.923   5.870  13.601  0.0223 -1.6019 -1.7414
17862TIP3   OH275076   2.706   1.463  14.273  0.3204  0.3949  0.4074
17862TIP3    H175077   2.766   1.398  14.236  0.6758  0.4603  0.8541
17862TIP3    H275078   2.650   1.489  14.199 -0.0387 -0.6485  0.3021
17863TIP3   OH275079   0.743   6.091   4.735 -0.0582  0.2233 -0.1910
17863TIP3    H175080   0.654   6.071   4.707  0.6063  0.0694 -2.3629
17863TIP3    H275081   0.799   6.046   4.671  1.5545  1.8891 -0.0339
17864TIP3   OH275082   6.707   6.183   5.525  0.2207 -0.0873 -0.1734
17864TIP3    H175083   6.729   6.219   5.439 -0.8810 -2.0549 -1.3554
17864TIP3    H275084   6.614   6.161   5.518  0.3193 -1.0673  1.2445
17865TIP3   OH275085   2.260   2.352   4.588  0.6478 -0.0821 -0.5285
17865TIP3    H175086   2.233   2.398   4.668 -0.1530 -1.6427  0.1313
17865TIP3    H275087   2.349   2.322   4.608  0.6365 -0.0448 -0.4161
17866TIP3   OH275088   3.948   1.834   2.099 -0.1553  0.3100 -0.6279
17866TIP3    H175089   3.982   1.820   2.188  1.4474 -0.8323 -1.3748
17866TIP3    H275090   3.884   1.764   2.088 -0.3162  0.4186 -0.4064
17867TIP3   OH275091   6.020   6.228  11.979 -0.2422 -0.2455 -0.0151
17867TIP3    H175092   5.938   6.180  11.991  0.2751 -0.8525  1.3132
17867TIP3    H275093   6.085   6.178  12.030  0.8172  0.5770 -0.5130
17868TIP3   OH275094   4.206   3.569   0.982 -0.3203 -0.6561  0.3301
17868TIP3    H175095   4.301   3.565   0.979 -0.3474 -2.3571  1.1020
17868TIP3    H275096   4.177   3.482   0.953 -1.5617 -0.9967  2.4129
17869TIP3   OH275097   6.590   3.499   4.803  0.2037  0.4614 -0.0822
17869TIP3    H175098   6.537   3.419   4.799  0.8463 -0.1055  1.7366
17869TIP3    H275099   6.542   3.557   4.862 -1.5759  2.5624 -3.2515
17870TIP3   OH275100   4.572   3.909  17.187 -0.3016  0.3644 -0.1987
17870TIP3    H175101   4.492   3.938  17.230  0.9545  0.7530  1.9886
17870TIP3    H275102   4.643   3.955  17.232  1.2162 -0.3298 -1.7417
17871TIP3   OH275103   5.052   1.005  11.778  0.6967 -0.4140  0.0179
17871TIP3    H175104   5.068   1.074  11.842  2.5080  0.2614 -1.0827
17871TIP3    H275105   4.966   1.025  11.742  0.2520 -0.0233  1.2556
17872TIP3   OH275106   0.894   1.793   5.655 -0.5015 -0.4071 -0.1410
17872TIP3    H175107   0.927   1.742   5.729 -1.9456  2.1055  2.4380
17872TIP3    H275108   0.954   1.772   5.583  3.2311 -0.3884  2.6516
17873TIP3   OH275109   3.304   3.138  11.989  0.2008 -0.0751  0.0244
17873TIP3    H175110   3.275   3.048  12.000 -0.9629  0.0832 -1.3798
17873TIP3    H275111   3.252   3.188  12.051  0.3742 -0.2874  0.3409
17874TIP3   OH275112   2.561   1.521  16.519 -0.2346  0.3366 -0.3393
17874TIP3    H175113   2.502   1.490  16.588  0.9318 -0.2112  0.4444
17874TIP3    H275114   2.525   1.606  16.494 -1.3470  0.0180  0.1237
17875TIP3   OH275115   1.790   5.516  15.593 -0.1331  0.4950  0.4351
17875TIP3    H175116   1.783   5.421  15.580 -1.4587  0.7686 -1.1567
17875TIP3    H275117   1.752   5.532  15.679  0.4378 -0.4406  0.8788
17876TIP3   OH275118   3.839   6.745   2.130 -0.1974 -0.1415  0.5062
17876TIP3    H175119   3.920   6.695   2.119  0.8534  1.4571  0.7073
17876TIP3    H275120   3.863   6.818   2.187 -1.3736  1.2764 -0.7338
17877TIP3   OH275121   6.104   6.050  16.328  0.3141  0.1012 -0.0310
17877TIP3    H175122   6.029   6.058  16.270 -0.5303 -0.1064  1.0123
17877TIP3    H275123   6.162   6.122  16.303 -2.0450  2.8282  1.7602
17878TIP3   OH275124   0.835   2.963   4.104  0.7527 -0.0732  0.4540
17878TIP3    H175125   0.923   2.970   4.067  0.5806  0.1438  0.0807
17878TIP3    H275126   0.848   2.974   4.198  0.8590  2.4986  0.1977
17879TIP3   OH275127   5.901   6.574   1.846  0.5683  0.3951 -0.5147
17879TIP3    H175128   5.980   6.611   1.885 -1.0247  2.6936  0.8145
17879TIP3    H275129   5.893   6.616   1.761 -0.3387  1.9057  0.2828
17880TIP3   OH275130   3.781   1.832   4.283  0.2262 -0.6596  0.7264
17880TIP3    H175131   3.827   1.852   4.364 -0.0614  1.1471  0.4808
17880TIP3    H275132   3.846   1.844   4.214  0.0048 -0.3910  0.5603
17881TIP3   OH275133   0.208   2.088  11.807  0.3693 -0.4219  0.6849
17881TIP3    H175134   0.227   2.131  11.724 -0.8864  0.4276  0.8128
17881TIP3    H275135   0.225   1.995  11.791 -2.0578 -0.6266 -1.2509
17882TIP3   OH275136   0.883   1.086  14.378 -0.0313 -0.1116  0.7962
17882TIP3    H175137   0.912   1.176  14.364 -1.4462  0.5431  1.9016
17882TIP3    H275138   0.837   1.063  14.297  1.1643 -0.2191  0.1164
17883TIP3   OH275139   0.025   0.192  15.287  0.6960 -0.1605 -0.8416
17883TIP3    H175140   0.041   0.277  15.247  1.3598 -0.6211 -1.5971
17883TIP3    H275141  -0.007   0.212  15.375  2.1607  0.8701 -0.5077
17884TIP3   OH275142   1.782   0.239  14.521 -0.2228 -0.0537  0.0572
17884TIP3    H175143   1.808   0.177  14.589 -2.8535 -1.9312 -0.5230
17884TIP3    H275144   1.801   0.325  14.559  0.5760 -1.0944  2.1842
17885TIP3   OH275145   0.882   1.668  15.854 -0.1265 -0.6357  0.5738
17885TIP3    H175146   0.877   1.688  15.761  0.4920  1.3887  0.9222
17885TIP3    H275147   0.791   1.673  15.885 -0.1421  0.3571  0.3786
17886TIP3   OH275148   1.280   2.818   3.491  0.3988 -0.1789 -0.0709
17886TIP3    H175149   1.287   2.728   3.462  0.7319  0.0599 -0.7486
17886TIP3    H275150   1.344   2.826   3.562  0.3765 -0.4711 -0.0179
17887TIP3   OH275151   0.730   0.604   2.165  0.3156  0.1825  0.3304
17887TIP3    H175152   0.729   0.633   2.073  0.9495 -1.8980 -0.3811
17887TIP3    H275153   0.770   0.517   2.163 -2.7464 -1.4554  2.1131
17888TIP3   OH275154   6.412   3.067   2.805  0.0732 -0.1564  0.1389
17888TIP3    H175155   6.374   2.992   2.851  1.0010  0.6283  2.3152
17888TIP3    H275156   6.369   3.067   2.719 -2.5572 -1.0619  1.3584
17889TIP3   OH275157   4.310   5.218   4.959 -0.1607  0.5234  0.3926
17889TIP3    H175158   4.373   5.174   5.015 -0.3520  0.4180  0.5269
17889TIP3    H275159   4.269   5.284   5.015  0.8398  1.5723 -0.0765
17890TIP3   OH275160   3.869   5.705   3.457  0.0476 -0.6155  0.5054
17890TIP3    H175161   3.816   5.628   3.438 -0.4123 -0.3315  0.6156
17890TIP3    H275162   3.945   5.672   3.505  0.0670 -1.0491  0.1785
17891TIP3   OH275163   1.166   4.732   2.065 -0.2293 -0.1961  0.1151
17891TIP3    H175164   1.105   4.658   2.070  2.0091 -2.4959 -2.7252
17891TIP3    H275165   1.235   4.712   2.128  0.8964 -1.1759 -1.3610
17892TIP3   OH275166   6.200   4.899   4.740 -0.0944 -0.0752  0.0888
17892TIP3    H175167   6.163   4.938   4.819 -0.5836 -0.0359 -0.1506
17892TIP3    H275168   6.125   4.889   4.681  0.0398 -1.2524  0.0893
17893TIP3   OH275169   3.684   2.521   0.829  0.2557  1.0919  0.2932
17893TIP3    H175170   3.754   2.461   0.804  0.9638  2.0021  0.0558
17893TIP3    H275171   3.726   2.586   0.884 -0.4816  1.4520  0.4436
17894TIP3   OH275172   3.900   6.500   1.185  0.2428  0.1017 -0.1282
17894TIP3    H175173   3.888   6.590   1.156  0.9051  0.2674  0.0930
17894TIP3    H275174   3.969   6.505   1.252 -0.4598 -0.4191  0.6598
17895TIP3   OH275175   5.655   4.380  16.826  0.0327  0.3300 -0.5217
17895TIP3    H175176   5.713   4.341  16.761  0.0958 -0.0408 -0.2484
17895TIP3    H275177   5.692   4.467  16.841  0.7801 -0.0502 -0.0474
17896TIP3   OH275178   3.545   3.200  15.329 -0.2091  0.3074 -0.5823
17896TIP3    H175179   3.519   3.110  15.309 -0.0220  0.3844 -1.2071
17896TIP3    H275180   3.466   3.252  15.311  0.2664  0.5111 -2.2423
17897TIP3   OH275181   6.397   4.534   1.486  0.2131 -0.3941 -0.2682
17897TIP3    H175182   6.309   4.571   1.492  0.1238 -0.6774  0.2131
17897TIP3    H275183   6.408   4.515   1.393 -0.7314 -1.5501 -0.1695
17898TIP3   OH275184   4.819   3.697   3.076 -0.5616 -0.9903  0.4399
17898TIP3    H175185   4.829   3.614   3.029 -1.4239 -0.0076 -1.5643
17898TIP3    H275186   4.764   3.676   3.151  0.0967 -2.4192  0.5500
17899TIP3   OH275187   5.700   1.073   1.139 -0.3945  0.5713 -0.1986
17899TIP3    H175188   5.769   1.014   1.171 -0.4076  0.8512  0.3620
17899TIP3    H275189   5.623   1.049   1.189  0.3542  3.1956  2.5167
17900TIP3   OH275190   5.830   2.399   3.888  0.0238  0.2331 -0.0696
17900TIP3    H175191   5.875   2.482   3.905  0.7981 -0.5255  2.0043
17900TIP3    H275192   5.755   2.400   3.948 -0.4957 -0.1576 -0.7107
17901TIP3   OH275193   2.424   6.252  13.238  0.2533 -0.4512  0.1692
17901TIP3    H175194   2.443   6.279  13.328 -0.6840  0.1465  0.2014
17901TIP3    H275195   2.464   6.165  13.231 -0.9719 -1.2127  1.6852
17902TIP3   OH275196   0.383   1.793   0.670  0.3582  0.0781 -0.0090
17902TIP3    H175197   0.456   1.818   0.613  0.6764 -0.1180  0.3069
17902TIP3    H275198   0.396   1.845   0.750  1.2409 -1.3297  0.8084
17903TIP3   OH275199   5.651   1.878   6.041 -1.1778 -0.0834  0.3857
17903TIP3    H175200   5.652   1.973   6.041  0.2116 -0.0669 -1.0243
17903TIP3    H275201   5.579   1.854   5.983  1.3644  0.2405 -3.2395
17904TIP3   OH275202   0.217   2.974   0.972 -0.0245 -0.4574  0.0016
17904TIP3    H175203   0.273   3.007   0.902 -0.6667  0.9758  0.1254
17904TIP3    H275204   0.128   2.978   0.937 -0.2341 -0.9385  0.4567
17905TIP3   OH275205   5.713   4.947  15.439 -0.2464  0.1009 -0.4270
17905TIP3    H175206   5.655   4.968  15.512 -1.1991 -0.1838 -1.0908
17905TIP3    H275207   5.667   4.977  15.361  0.9597  0.8195 -0.8963
17906TIP3   OH275208   1.574   3.150  16.206  0.4855 -0.0122 -0.2762
17906TIP3    H175209   1.579   3.090  16.280  1.8993 -1.2468 -1.3048
17906TIP3    H275210   1.600   3.235  16.242 -1.4294  0.0123  1.1771
17907TIP3   OH275211   3.321   6.602  14.796  0.0573 -0.1623  0.3360
17907TIP3    H175212   3.320   6.519  14.842  1.6344 -0.9932 -0.9929
17907TIP3    H275213   3.254   6.593  14.728 -0.3241 -0.0170  0.6869
17908TIP3   OH275214   3.837   5.562  13.367  0.1578 -0.2732 -0.5583
17908TIP3    H175215   3.923   5.582  13.405  0.0572  0.7915 -0.8755
17908TIP3    H275216   3.783   5.638  13.388 -0.2512 -0.2305 -1.7255
17909TIP3   OH275217   6.002   1.693  13.765  0.1788 -0.3606 -0.7442
17909TIP3    H175218   5.950   1.700  13.845 -0.5304 -1.5815 -1.0715
17909TIP3    H275219   5.995   1.780  13.725 -0.4297 -0.0839 -0.0720
17910TIP3   OH275220   6.305   0.155  14.214  0.6012 -0.5388  0.3499
17910TIP3    H175221   6.347   0.236  14.243  0.2809 -0.3794  0.3629
17910TIP3    H275222   6.348   0.135  14.131  0.1588  0.0435 -0.0205
17911TIP3   OH275223   6.452   5.337  17.064  0.0914 -0.6436 -0.0877
17911TIP3    H175224   6.438   5.269  17.130 -0.7878 -0.6880 -0.3179
17911TIP3    H275225   6.466   5.417  17.116 -0.2141 -0.7508  0.1647
17912TIP3   OH275226   1.301   6.642  15.106  0.1893  0.1454 -0.1721
17912TIP3    H175227   1.370   6.630  15.040 -0.6736  0.8576 -1.2315
17912TIP3    H275228   1.284   6.736  15.107 -0.5349  0.0208  0.3307
17913TIP3   OH275229   4.874   0.393   1.143  0.2422 -0.6039  0.1212
17913TIP3    H175230   4.857   0.387   1.049 -0.3058  0.6909  0.1187
17913TIP3    H275231   4.815   0.329   1.182 -0.8551  0.1340 -0.2898
17914TIP3   OH275232   1.084   0.375   2.905 -0.2936 -0.1387  0.1586
17914TIP3    H175233   1.133   0.438   2.854  0.9476 -0.4795  0.8972
17914TIP3    H275234   0.992   0.396   2.888  0.0813  1.8395  0.3727
17915TIP3   OH275235   6.500   2.522  12.157 -0.3260 -0.0555  0.0757
17915TIP3    H175236   6.567   2.550  12.095  0.6450  0.2550  1.2354
17915TIP3    H275237   6.475   2.603  12.203 -0.6132 -0.3799  0.4934
17916TIP3   OH275238   2.180   1.891   3.036  0.1933  0.3713 -0.2048
17916TIP3    H175239   2.096   1.929   3.010  0.4367  0.8687 -0.2659
17916TIP3    H275240   2.180   1.803   2.998 -1.1325 -0.3744  1.3818
17917TIP3   OH275241   1.261   4.974   2.284  0.0664 -0.2844 -0.1972
17917TIP3    H175242   1.253   5.042   2.350  1.7822  0.4008 -0.6452
17917TIP3    H275243   1.321   4.910   2.323  1.2791  0.2398 -1.1289
17918TIP3   OH275244   3.242   1.090   2.881 -0.2326  0.0736 -0.1581
17918TIP3    H175245   3.167   1.103   2.824 -0.5646 -0.0797  0.2381
17918TIP3    H275246   3.305   1.157   2.853 -0.2890 -0.1614 -0.8637
17919TIP3   OH275247   5.534   1.077  16.137 -0.2643  0.2148  0.2220
17919TIP3    H175248   5.449   1.120  16.124  0.2017  0.9737 -0.3763
17919TIP3    H275249   5.512   0.985  16.154 -1.2731  0.6477  1.4048
17920TIP3   OH275250   1.475   0.778   1.277 -0.0167 -0.0908  0.1657
17920TIP3    H175251   1.475   0.774   1.372 -0.9667 -0.0694  0.1813
17920TIP3    H275252   1.470   0.686   1.249 -0.6123 -0.0664  0.1643
17921TIP3   OH275253   3.110   4.613   5.534  0.2382 -0.5430  0.3392
17921TIP3    H175254   3.201   4.600   5.507  0.4052 -0.7486  0.9696
17921TIP3    H275255   3.114   4.681   5.601 -0.2659  0.5475 -0.6906
17922TIP3   OH275256   0.180   5.629  16.772 -0.0923  0.0717  0.0541
17922TIP3    H175257   0.142   5.581  16.846  2.8762 -1.0873  1.0038
17922TIP3    H275258   0.250   5.571  16.740 -0.6347  0.9696 -3.0990
17923TIP3   OH275259   5.123   3.320   5.128 -0.5471  0.1957 -0.0012
17923TIP3    H175260   5.195   3.271   5.088 -0.2450 -0.2374  1.0571
17923TIP3    H275261   5.050   3.259   5.129 -1.3589  1.0147 -2.2119
17924TIP3   OH275262   4.855   4.091  16.441  0.0632  0.6490 -0.3766
17924TIP3    H175263   4.800   4.071  16.365 -0.9753  1.1793  0.2049
17924TIP3    H275264   4.941   4.057  16.418 -0.8415 -1.6026 -0.6997
17925TIP3   OH275265   2.841   6.469  13.036 -0.0040  0.3080  0.0893
17925TIP3    H175266   2.823   6.384  12.997  0.0651  0.0985  0.5069
17925TIP3    H275267   2.794   6.531  12.980  1.6112  0.2260 -1.4290
17926TIP3   OH275268   5.844   1.007  14.672  0.0222 -0.8991  0.0200
17926TIP3    H175269   5.769   0.985  14.727  0.6960 -1.6270  0.6677
17926TIP3    H275270   5.860   0.928  14.620  1.0288 -1.1695  0.7059
17927TIP3   OH275271   2.112   6.592   6.428  0.0192 -0.5787  0.0045
17927TIP3    H175272   2.111   6.635   6.513  1.3399  0.1348 -0.3098
17927TIP3    H275273   2.097   6.500   6.447 -0.2315 -0.3516  0.9586
17928TIP3   OH275274   5.802   5.710  15.475 -0.3505  0.4381 -0.2224
17928TIP3    H175275   5.808   5.776  15.406  0.0193  0.9105  0.2467
17928TIP3    H275276   5.730   5.653  15.448 -0.0280  0.4458 -1.1355
17929TIP3   OH275277   4.704   1.049   5.024  0.3583  0.2724  0.2171
17929TIP3    H175278   4.734   0.993   4.953 -0.5923  1.1906 -0.9625
17929TIP3    H275279   4.644   0.994   5.075  1.7626 -0.6758  0.8945
17930TIP3   OH275280   5.450   2.971   3.740  0.5270 -0.2328  0.3059
17930TIP3    H175281   5.466   2.952   3.648  1.5906  0.2050  0.3809
17930TIP3    H275282   5.525   2.933   3.786  0.5365  0.4417  0.8729
17931TIP3   OH275283   1.340   1.450  14.560 -0.2980  0.5799 -0.1750
17931TIP3    H175284   1.247   1.471  14.561 -0.5458 -0.4943 -0.1276
17931TIP3    H275285   1.349   1.379  14.497 -0.0616 -1.6707  2.2274
17932TIP3   OH275286   5.320   1.197  13.096  0.1011 -0.1444 -0.3802
17932TIP3    H175287   5.305   1.103  13.082 -1.4739  0.1828 -1.1886
17932TIP3    H275288   5.398   1.201  13.150 -1.7525 -2.0732  2.7690
17933TIP3   OH275289   5.642   0.331   1.752  0.1560  0.2319  0.0781
17933TIP3    H175290   5.677   0.303   1.667 -0.3655  0.0947 -0.0920
17933TIP3    H275291   5.550   0.350   1.735 -0.0725 -0.2605  0.7156
17934TIP3   OH275292   5.753   4.085   6.140 -0.5949  0.1878 -0.0480
17934TIP3    H175293   5.658   4.085   6.142 -0.5919  0.6782  1.1694
17934TIP3    H275294   5.778   3.993   6.142 -1.0522  0.0685  1.5412
17935TIP3   OH275295   3.700   3.607   3.686 -0.0504 -0.2470  0.3329
17935TIP3    H175296   3.738   3.523   3.711 -0.0467 -0.0996  0.8464
17935TIP3    H275297   3.687   3.653   3.769 -0.0904  0.2447  0.0597
17936TIP3   OH275298   1.861   2.093  13.521  0.2936 -0.0749 -0.3179
17936TIP3    H175299   1.867   2.091  13.425  2.0616 -0.3455 -0.2177
17936TIP3    H275300   1.893   2.007  13.549  0.7903  0.3819  0.5597
17937TIP3   OH275301   5.414   5.924  13.945  0.4417  0.5436  0.2180
17937TIP3    H175302   5.489   5.867  13.929  0.4594  0.0857  1.8008
17937TIP3    H275303   5.446   5.988  14.008  0.5257  2.5900 -1.7554
17938TIP3   OH275304   3.453   2.237   0.973  0.2256  0.0621 -0.4291
17938TIP3    H175305   3.381   2.300   0.972  0.1448 -0.0322 -0.8647
17938TIP3    H275306   3.512   2.269   1.041 -0.0868  0.2974 -0.2642
17939TIP3   OH275307   6.565   6.594   1.599 -0.0059  0.0258  0.3206
17939TIP3    H175308   6.593   6.503   1.604 -1.8783 -0.7665 -1.8445
17939TIP3    H275309   6.645   6.644   1.612  1.4985 -1.9892 -0.6180
17940TIP3   OH275310   3.524   1.748   4.457  0.6703 -0.1844  1.0333
17940TIP3    H175311   3.574   1.730   4.378  2.1778  0.6611  1.7575
17940TIP3    H275312   3.447   1.796   4.426  0.7019 -0.7713 -0.0085
17941TIP3   OH275313   6.652   2.777  11.191 -0.1776  0.0094 -0.6378
17941TIP3    H175314   6.717   2.713  11.221  2.2258  1.9275 -1.4887
17941TIP3    H275315   6.612   2.736  11.114  3.2254  0.4120 -2.8540
17942TIP3   OH275316   0.355   0.039   1.457 -0.0167  1.1090 -0.2104
17942TIP3    H175317   0.330  -0.012   1.533  0.2820 -0.1754 -0.9330
17942TIP3    H275318   0.450   0.024   1.448 -0.0383  1.2741 -0.8005
17943TIP3   OH275319   5.507   4.186   2.081  0.1733  0.1020 -0.1659
17943TIP3    H175320   5.502   4.090   2.087  1.3942 -0.0626 -1.2937
17943TIP3    H275321   5.416   4.215   2.091 -0.3579 -1.2474 -0.7649
17944TIP3   OH275322   0.613   6.264  10.727 -0.1235  0.4037  0.0780
17944TIP3    H175323   0.545   6.322  10.762 -0.8627 -0.7831  0.6837
17944TIP3    H275324   0.565   6.188  10.695  0.9299 -0.5966  0.7941
17945TIP3   OH275325   1.279   4.007   0.789  0.4524  0.8952 -0.1451
17945TIP3    H175326   1.295   4.020   0.883 -0.5323  1.1301  0.0060
17945TIP3    H275327   1.366   3.995   0.751  0.7971 -0.1608  0.9325
17946TIP3   OH275328   1.383   3.532  11.014  0.9507 -0.5374 -0.1850
17946TIP3    H175329   1.315   3.541  10.947  0.5286 -3.5589 -0.2713
17946TIP3    H275330   1.348   3.577  11.091  0.7851  1.6522 -1.4667
17947TIP3   OH275331   2.672   3.788   2.984 -0.1286 -0.1150  0.7369
17947TIP3    H175332   2.650   3.695   2.975  2.5565 -0.7607 -0.0592
17947TIP3    H275333   2.638   3.828   2.905  0.6856 -0.8964 -0.0396
17948TIP3   OH275334   3.197   4.170  12.477  0.1640  0.3790  0.5562
17948TIP3    H175335   3.229   4.112  12.546 -0.1182  0.4396  0.7418
17948TIP3    H275336   3.146   4.112  12.420 -0.6700  0.5476  1.1005
17949TIP3   OH275337   5.014   1.973  13.105  0.2107  0.3719 -0.3531
17949TIP3    H175338   5.093   1.981  13.158 -0.8794 -1.2281  1.6347
17949TIP3    H275339   4.953   2.035  13.144  0.0085  0.5671 -0.9752
17950TIP3   OH275340   0.663   1.091  13.913  0.3828 -0.4667 -0.3336
17950TIP3    H175341   0.621   1.032  13.850 -0.1232  0.4816 -0.8999
17950TIP3    H275342   0.751   1.105  13.878  0.4121 -0.6669 -0.3414
17951TIP3   OH275343   0.017   5.333  12.747 -0.6556  0.0211  0.2687
17951TIP3    H175344  -0.003   5.426  12.746 -0.9836 -0.0285 -1.6525
17951TIP3    H275345  -0.065   5.290  12.723 -0.3593 -0.7217  0.5514
17952TIP3   OH275346   0.882   0.865   5.213 -0.4562 -0.3981  0.3910
17952TIP3    H175347   0.803   0.834   5.258 -1.3021  1.2360  0.0820
17952TIP3    H275348   0.951   0.855   5.278 -1.4131  0.6186  1.6201
17953TIP3   OH275349   2.787   6.753   2.634 -0.4411  0.2917 -0.0131
17953TIP3    H175350   2.879   6.742   2.609  0.2124  0.4101  2.1263
17953TIP3    H275351   2.763   6.839   2.599  0.9708  1.2444  1.2433
17954TIP3   OH275352   5.949   2.701  14.051  0.0483 -0.1568 -0.3665
17954TIP3    H175353   5.895   2.737  13.981  0.5003 -1.1341 -1.2463
17954TIP3    H275354   5.989   2.623  14.013  2.5938  0.8501  0.0277
17955TIP3   OH275355   4.620   4.386   0.332 -0.2386  0.1302 -0.4543
17955TIP3    H175356   4.551   4.323   0.311 -0.2435  0.3701 -1.1952
17955TIP3    H275357   4.580   4.472   0.314  0.5000  0.2375 -1.6938
17956TIP3   OH275358   2.707   4.901  12.828 -0.4948  0.2092  0.0552
17956TIP3    H175359   2.741   4.944  12.750  0.8439 -1.1272 -0.1263
17956TIP3    H275360   2.682   4.814  12.799 -1.6272  0.2702  0.7715
17957TIP3   OH275361   0.941   4.388   1.170  0.1835  0.0998 -0.0042
17957TIP3    H175362   1.028   4.402   1.134  2.0675 -0.2234  3.9504
17957TIP3    H275363   0.942   4.297   1.202 -2.5211 -0.7285 -1.8886
17958TIP3   OH275364   5.161   4.693  16.431 -0.4642  0.1432 -0.4683
17958TIP3    H175365   5.235   4.755  16.433 -0.9147  0.7055 -0.8079
17958TIP3    H275366   5.103   4.723  16.500 -0.7730  0.2152 -0.7562
17959TIP3   OH275367   0.182   5.496   0.688  0.7103 -0.1758  0.3432
17959TIP3    H175368   0.257   5.437   0.689  1.0141  0.2135  0.7680
17959TIP3    H275369   0.191   5.548   0.768 -0.8142 -1.1186  1.1705
17960TIP3   OH275370   2.043   2.667   3.061  0.2576  0.0829 -0.1857
17960TIP3    H175371   2.077   2.755   3.080 -0.5272  0.4182 -0.2916
17960TIP3    H275372   2.076   2.613   3.133  0.5141  0.5249  0.0333
17961TIP3   OH275373   5.264   4.976   3.612  0.0873 -0.2629 -0.3300
17961TIP3    H175374   5.323   5.030   3.559  0.2853 -0.8726 -0.7350
17961TIP3    H275375   5.315   4.954   3.690 -0.3193  0.9198  0.3041
17962TIP3   OH275376   6.065   3.849  13.978 -0.5993  0.2616 -0.2211
17962TIP3    H175377   6.123   3.908  14.027 -0.1787 -0.0631 -0.3177
17962TIP3    H275378   5.985   3.900  13.964 -0.5170  0.5544  0.3205
17963TIP3   OH275379   6.594   4.128  15.211 -0.1976 -0.4581  0.1732
17963TIP3    H175380   6.628   4.193  15.150 -2.1247  1.1889  0.7160
17963TIP3    H275381   6.499   4.128  15.196 -0.3207 -2.8798  0.5046
17964TIP3   OH275382   5.329   1.362   5.311  0.1896  0.0344 -0.5692
17964TIP3    H175383   5.356   1.302   5.242  1.4420 -0.9717  0.7409
17964TIP3    H275384   5.254   1.320   5.352 -0.3413  0.4708 -1.0673
17965TIP3   OH275385   0.409   3.247  15.504  0.5916 -0.5913 -0.0532
17965TIP3    H175386   0.498   3.277  15.521  0.2898 -0.4907  1.4134
17965TIP3    H275387   0.380   3.300  15.429  1.3399  0.2361  0.2282
17966TIP3   OH275388   4.686   3.135   3.610 -0.4864 -0.2145  0.2577
17966TIP3    H175389   4.622   3.161   3.544 -1.3029 -0.7790  0.8000
17966TIP3    H275390   4.750   3.082   3.562 -1.4156 -1.1537  0.0161
17967TIP3   OH275391   1.930   3.326  16.757 -0.0575 -0.0541  0.2373
17967TIP3    H175392   1.950   3.273  16.680  0.0491  0.9863 -0.4670
17967TIP3    H275393   1.927   3.263  16.829 -0.7799 -1.1278 -0.7073
17968TIP3   OH275394   5.071   2.275  16.915  0.6475 -0.2680 -0.0308
17968TIP3    H175395   5.006   2.303  16.979  0.1934  1.1908 -1.0652
17968TIP3    H275396   5.094   2.355  16.868  0.6394 -1.3309 -1.9507
17969TIP3   OH275397   4.761   5.554   0.898  0.2249 -0.0457 -0.0868
17969TIP3    H175398   4.785   5.505   0.820 -0.1704 -2.7624  1.3711
17969TIP3    H275399   4.839   5.551   0.954 -0.0891  0.2219  0.3735
17970TIP3   OH275400   1.779   6.142  16.667 -0.0262  0.1558 -0.1821
17970TIP3    H175401   1.789   6.217  16.726  0.1129 -0.2535  0.3249
17970TIP3    H275402   1.738   6.178  16.588  0.3951  0.8308 -0.0947
17971TIP3   OH275403   5.748   4.257  15.317 -0.4462  0.2478 -0.3396
17971TIP3    H175404   5.784   4.345  15.331 -2.5974  1.1943 -0.3256
17971TIP3    H275405   5.725   4.255  15.224 -1.1034 -0.0067 -0.1773
17972TIP3   OH275406   4.045   1.097  15.793 -0.5468  0.3967  0.3683
17972TIP3    H175407   4.020   1.073  15.882  0.1587 -0.6014  0.3113
17972TIP3    H275408   3.963   1.091  15.743 -0.5428 -1.2025  0.5159
17973TIP3   OH275409   3.505   2.824  14.226 -0.1419 -0.0466  0.2528
17973TIP3    H175410   3.590   2.807  14.267  0.7322 -1.1352 -1.8548
17973TIP3    H275411   3.453   2.746  14.246 -0.8560  0.7814  1.8684
17974TIP3   OH275412   3.495   6.072   0.302  0.7171  1.0780 -0.1727
17974TIP3    H175413   3.408   6.043   0.276  0.2622  1.5407  0.7688
17974TIP3    H275414   3.548   6.064   0.223  0.4790 -1.6786 -0.1480
17975TIP3   OH275415   5.458   1.758   5.423  0.8932  0.5373 -0.0095
17975TIP3    H175416   5.387   1.693   5.422  0.1992  1.2734 -0.2988
17975TIP3    H275417   5.509   1.737   5.501 -0.3837  0.7442  0.9305
17976TIP3   OH275418   6.813   3.231   1.946  0.4419  0.2612  0.0767
17976TIP3    H175419   6.854   3.250   1.862  1.0771 -0.3875  0.2273
17976TIP3    H275420   6.885   3.200   2.002 -0.4066 -2.2305 -0.0509
17977TIP3   OH275421   4.654   0.331  12.776 -0.2763  0.0775  0.3097
17977TIP3    H175422   4.669   0.373  12.860  1.8262 -0.0614  0.0632
17977TIP3    H275423   4.658   0.238  12.794  2.4532  0.0052 -0.1870
17978TIP3   OH275424   2.660   0.430  15.008  0.1626 -0.0771 -0.2646
17978TIP3    H175425   2.725   0.430  15.079  1.0514 -1.4424 -1.0336
17978TIP3    H275426   2.711   0.447  14.929 -0.4278 -1.0194 -0.8692
17979TIP3   OH275427   4.368   2.350   0.937  0.1839  0.2579  0.1956
17979TIP3    H175428   4.439   2.374   0.996  0.3142  0.5844 -0.0903
17979TIP3    H275429   4.411   2.336   0.852  0.2418 -1.8639  0.5443
17980TIP3   OH275430   6.554   0.176   4.278 -0.3763  0.3803  0.3626
17980TIP3    H175431   6.620   0.214   4.336 -1.3023  1.3222  0.8605
17980TIP3    H275432   6.520   0.101   4.326  0.9751 -0.7031 -0.3176
17981TIP3   OH275433   5.910   4.450  16.437 -0.6173 -0.0496 -0.1890
17981TIP3    H175434   6.005   4.463  16.435 -0.3071 -2.0605 -1.8723
17981TIP3    H275435   5.876   4.512  16.372 -0.5164  0.7314  0.4741
17982TIP3   OH275436   1.073   3.124   5.392 -0.5214 -0.4386  0.0643
17982TIP3    H175437   1.149   3.136   5.336 -1.2750 -0.3058 -0.9612
17982TIP3    H275438   1.097   3.165   5.475  0.0355  0.7790 -0.6769
17983TIP3   OH275439   6.411   5.787  13.507 -0.4641  0.5958 -0.2645
17983TIP3    H175440   6.421   5.864  13.562 -1.3046 -0.2131  1.0814
17983TIP3    H275441   6.480   5.796  13.441  0.5844  1.6081  0.9005
17984TIP3   OH275442   2.967   0.526   4.473 -0.1467 -0.2611  0.3421
17984TIP3    H175443   3.032   0.572   4.419  0.0515 -1.7931 -0.7916
17984TIP3    H275444   2.891   0.517   4.417 -0.6111 -0.2657  0.9648
17985TIP3   OH275445   6.279   1.617  16.671  0.4444  0.5934 -0.3265
17985TIP3    H175446   6.243   1.700  16.641 -1.2764  0.1030  0.2433
17985TIP3    H275447   6.243   1.552  16.610  0.4330  0.1018  0.1899
17986TIP3   OH275448   5.444   3.851  10.284  0.3826 -0.1176 -0.0027
17986TIP3    H175449   5.383   3.826  10.354 -0.4900  0.2338 -0.6199
17986TIP3    H275450   5.518   3.791  10.294 -0.0610 -0.5498  0.7651
17987TIP3   OH275451   4.916   6.372  12.047 -0.1381 -0.0393 -0.2242
17987TIP3    H175452   4.877   6.390  12.132  0.5864 -0.0211  0.1105
17987TIP3    H275453   4.956   6.455  12.020 -0.7804  0.0934 -0.8154
17988TIP3   OH275454   0.440   1.102   6.003  0.3081 -0.1886  0.0169
17988TIP3    H175455   0.382   1.126   6.075  1.1772  0.5991  0.4739
17988TIP3    H275456   0.447   1.182   5.951 -0.4936 -0.8062 -1.1073
17989TIP3   OH275457   2.047   2.468  16.168  0.3775  0.1153 -0.2647
17989TIP3    H175458   1.978   2.453  16.103 -0.7600  0.3213  0.8685
17989TIP3    H275459   2.075   2.558  16.152  1.1173 -0.2864 -1.3797
17990TIP3   OH275460   2.530   0.310  12.129  0.3336 -0.9009 -0.5451
17990TIP3    H175461   2.528   0.402  12.157 -0.3686 -1.4262  1.3110
17990TIP3    H275462   2.612   0.302  12.080  1.1351  0.4054  0.4845
17991TIP3   OH275463   3.628   6.044   0.066 -0.1277 -0.3110  0.4810
17991TIP3    H175464   3.708   6.012   0.026  0.2923 -0.4753  1.4145
17991TIP3    H275465   3.560   5.983   0.038  0.7335 -2.3728  2.5904
17992TIP3   OH275466   5.251   1.165   6.456  0.2851  0.0943  0.3328
17992TIP3    H175467   5.183   1.099   6.441  0.1054  0.6531 -1.5098
17992TIP3    H275468   5.324   1.117   6.495 -0.7053 -0.7354  1.2202
17993TIP3   OH275469   0.440   2.109   0.455  0.3628 -0.3163  0.1190
17993TIP3    H175470   0.367   2.060   0.416  0.3953 -1.4146  1.3826
17993TIP3    H275471   0.417   2.118   0.547  1.5722 -0.2094  0.4308
17994TIP3   OH275472   1.911   0.116  11.769  0.6505  0.3175 -0.2043
17994TIP3    H175473   1.818   0.136  11.764 -0.0204 -1.1346  3.3348
17994TIP3    H275474   1.916   0.022  11.753  1.4533  0.3424 -0.1455
17995TIP3   OH275475   0.754   2.182  16.528  0.0398 -0.4533  0.0301
17995TIP3    H175476   0.768   2.109  16.589 -1.0025 -1.3310 -0.7401
17995TIP3    H275477   0.684   2.233  16.568  0.1402 -0.3940  0.1283
17996TIP3   OH275478   6.440   1.888  12.493  0.4768 -0.2180 -0.1060
17996TIP3    H175479   6.405   1.896  12.405  2.2885  0.5395 -0.8017
17996TIP3    H275480   6.532   1.863  12.481  1.2343  1.4870  1.4662
17997TIP3   OH275481   2.873   2.521   4.518 -0.0832 -0.4253  0.3301
17997TIP3    H175482   2.895   2.477   4.435  0.8207  0.6867 -0.0452
17997TIP3    H275483   2.778   2.510   4.526 -0.2822 -0.0211 -1.1724
17998TIP3   OH275484   0.807   1.316   0.874  0.5033  0.2132  0.1260
17998TIP3    H175485   0.780   1.298   0.964 -3.2452  0.6054 -0.7501
17998TIP3    H275486   0.832   1.231   0.839 -1.6162 -0.6186  0.5237
17999TIP3   OH275487   3.275   4.829  13.142 -0.2093  0.0418  0.0004
17999TIP3    H175488   3.246   4.815  13.052  0.1396 -0.3623 -0.0516
17999TIP3    H275489   3.250   4.748  13.188  0.5706 -0.1942  0.0203
18000TIP3   OH275490   0.038   5.215  10.354 -0.4044 -0.7213 -0.2866
18000TIP3    H175491   0.036   5.220  10.449  0.4034  1.5390 -0.3131
18000TIP3    H275492   0.029   5.306  10.325  3.6511 -0.6897 -2.1847
18001TIP3   OH275493   6.342   2.853   2.422 -0.4218 -0.5040  0.2646
18001TIP3    H175494   6.436   2.866   2.437 -0.4264 -0.6561  0.4304
18001TIP3    H275495   6.329   2.874   2.329 -0.4304  0.6475  0.5157
18002TIP3   OH275496   6.565   6.739   3.683 -0.0770 -0.5525  0.4360
18002TIP3    H175497   6.476   6.773   3.666 -0.2702 -2.1657 -2.3569
18002TIP3    H275498   6.619   6.779   3.615  1.4450  0.4715  2.1569
18003TIP3   OH275499   2.294   6.796  16.404 -0.1922  0.5686  0.1548
18003TIP3    H175500   2.285   6.884  16.366 -1.2019  0.6807  0.6219
18003TIP3    H275501   2.207   6.777  16.440  0.2821 -0.2323  0.8926
18004TIP3   OH275502   3.805   5.686  14.622  0.0122  0.5416 -0.2172
18004TIP3    H175503   3.805   5.691  14.526  1.5757  1.8906 -0.1944
18004TIP3    H275504   3.895   5.705  14.646 -0.3770  0.2796  1.5520
18005TIP3   OH275505   3.611   5.493   0.043 -0.0136 -0.5602  0.2910
18005TIP3    H175506   3.527   5.494   0.089 -0.6976  2.0077 -0.8698
18005TIP3    H275507   3.588   5.472  -0.048  0.8873 -1.9172  0.3524
18006TIP3   OH275508   5.759   1.107   6.505  0.1520 -0.6414 -0.5474
18006TIP3    H175509   5.797   1.195   6.503  1.3625 -1.1465 -0.6929
18006TIP3    H275510   5.831   1.051   6.534 -1.3612 -1.2383  2.4611
18007TIP3   OH275511   4.097   0.472   2.495  0.4739  0.2249 -0.4222
18007TIP3    H175512   4.165   0.429   2.442 -1.8112 -0.8954 -2.6601
18007TIP3    H275513   4.075   0.408   2.563  0.8120  0.1030 -0.4242
18008TIP3   OH275514   0.027   6.705   4.220 -0.5128 -0.2027 -0.2911
18008TIP3    H175515  -0.063   6.690   4.190 -0.5740 -0.2959 -0.0611
18008TIP3    H275516   0.049   6.792   4.186 -0.5485 -0.3464 -0.6860
18009TIP3   OH275517   2.516   3.778  16.211 -0.0860  0.6456 -0.0082
18009TIP3    H175518   2.544   3.791  16.120  0.1247  2.0698  0.2286
18009TIP3    H275519   2.471   3.694  16.211 -3.4856  2.2090 -2.3020
18010TIP3   OH275520   4.558   5.074  12.798 -0.6228  0.2611  0.0903
18010TIP3    H175521   4.519   5.160  12.812  0.0696  0.4120  1.1963
18010TIP3    H275522   4.581   5.073  12.705 -0.3414  1.3984  0.1332
18011TIP3   OH275523   0.441   1.226   1.275  0.2645 -0.0481  0.3479
18011TIP3    H175524   0.524   1.188   1.303  2.1392  2.1088 -1.7917
18011TIP3    H275525   0.400   1.159   1.221  0.6666 -1.0842  1.3023
18012TIP3   OH275526   3.086   6.712  16.658  0.0983 -0.2440  0.5515
18012TIP3    H175527   3.002   6.728  16.701  0.2051 -0.0754  0.6963
18012TIP3    H275528   3.062   6.669  16.576 -0.2733  1.4161 -0.2751
18013TIP3   OH275529   5.438   4.738  11.078  0.3414 -0.1020  0.0469
18013TIP3    H175530   5.465   4.763  10.989 -0.3790  1.8457  0.3314
18013TIP3    H275531   5.512   4.765  11.133  0.5335 -0.7580  0.1121
18014TIP3   OH275532   5.096   1.175   4.803  0.5226  0.2027 -0.1525
18014TIP3    H175533   5.157   1.201   4.735 -0.8980 -0.6556 -1.8199
18014TIP3    H275534   5.043   1.105   4.764 -1.7438  1.0989  1.0684
18015TIP3   OH275535   3.017   4.025   5.717  0.6364 -0.3071  0.1806
18015TIP3    H175536   2.945   4.071   5.760 -1.6079 -2.1631 -1.3509
18015TIP3    H275537   3.082   4.093   5.701 -0.7142  1.4621  1.6768
18016TIP3   OH275538   6.218   6.741  17.122  0.2789  0.0391  0.0912
18016TIP3    H175539   6.160   6.781  17.187  0.8805 -1.3873  1.5699
18016TIP3    H275540   6.264   6.672  17.170  2.3348  0.3364 -1.3271
18017TIP3   OH275541   6.594   6.214   1.278 -0.0166 -0.2561  0.0289
18017TIP3    H175542   6.520   6.251   1.327  1.4865  1.1360  1.3731
18017TIP3    H275543   6.572   6.121   1.268 -0.6349 -0.5547  3.0790
18018TIP3   OH275544   5.271   2.753   2.217 -0.4411 -1.2128 -0.4465
18018TIP3    H175545   5.277   2.658   2.209  0.3880 -1.5165  2.6258
18018TIP3    H275546   5.239   2.768   2.306  0.0100  1.4106 -0.6466
18019TIP3   OH275547   1.730   4.339   0.935 -0.2375 -0.1654 -0.0587
18019TIP3    H175548   1.769   4.377   1.014 -1.9533  0.4170  0.5605
18019TIP3    H275549   1.742   4.245   0.946 -2.2270 -0.2845  1.9971
18020TIP3   OH275550   4.283   2.722   2.646  0.6259 -0.2880  0.0441
18020TIP3    H175551   4.260   2.767   2.728  0.4461 -0.4181  0.0680
18020TIP3    H275552   4.199   2.710   2.602  0.5720 -1.2556  0.3827
18021TIP3   OH275553   2.755   2.964   2.673  0.0915  0.1343 -0.0381
18021TIP3    H175554   2.729   2.989   2.584 -0.8811  1.9257  0.7072
18021TIP3    H275555   2.756   3.046   2.722 -0.8503 -0.9922  1.9795
18022TIP3   OH275556   5.993   1.682   4.264  0.1970  0.0021  0.2893
18022TIP3    H175557   5.969   1.599   4.222  0.2631 -0.3739  0.9696
18022TIP3    H275558   5.964   1.671   4.355 -0.4403  1.0082  0.2160
18023TIP3   OH275559   5.630   1.825  10.608  0.2720 -0.6274 -0.0705
18023TIP3    H175560   5.547   1.870  10.622  0.6413  0.5203 -1.3672
18023TIP3    H275561   5.616   1.772  10.529  0.9631  0.1359 -0.7306
18024TIP3   OH275562   5.272   6.318   5.102  0.6872  0.4400 -0.6355
18024TIP3    H175563   5.309   6.301   5.016 -0.1075  0.4411 -0.9856
18024TIP3    H275564   5.286   6.411   5.117  0.1581  0.5987 -1.0939
18025TIP3   OH275565   0.451   5.425   1.560 -0.3963  0.1526  0.4636
18025TIP3    H175566   0.497   5.449   1.480 -2.3336 -1.3302 -1.2163
18025TIP3    H275567   0.377   5.485   1.565 -1.4942 -1.0849 -0.1121
18026TIP3   OH275568   2.481   0.395   3.678  0.0981  0.0176  0.0891
18026TIP3    H175569   2.539   0.469   3.664 -1.7995  1.1828 -2.3731
18026TIP3    H275570   2.393   0.433   3.678 -0.8905 -2.1053 -0.2690
18027TIP3   OH275571   3.735   2.369  15.479  0.0027 -1.1046  0.1432
18027TIP3    H175572   3.780   2.448  15.510  0.0722 -1.4707  1.0287
18027TIP3    H275573   3.650   2.371  15.521 -0.4250 -0.9428 -0.7163
18028TIP3   OH275574   0.388   5.834  16.019  0.6492 -0.2524  0.1124
18028TIP3    H175575   0.410   5.792  15.936  2.0752 -0.2105  0.4398
18028TIP3    H275576   0.410   5.927  16.005  0.4022 -0.1538  0.3732
18029TIP3   OH275577   3.597   1.441  13.010 -0.1008  0.1492  0.0815
18029TIP3    H175578   3.584   1.365  12.953 -3.2216  0.4143  0.2583
18029TIP3    H275579   3.509   1.477  13.022  0.6380  1.1459  3.6549
18030TIP3   OH275580   3.365   1.498  12.558 -0.4494  0.3559  0.0014
18030TIP3    H175581   3.446   1.548  12.567  0.3558 -0.6385 -1.3205
18030TIP3    H275582   3.341   1.507  12.466 -0.5381 -1.2804 -0.1631
18031TIP3   OH275583   1.673   4.277  13.271 -0.0864 -0.1231 -0.3768
18031TIP3    H175584   1.714   4.346  13.324 -0.7241 -0.4089  0.5256
18031TIP3    H275585   1.684   4.198  13.325 -0.9233 -0.3847 -0.5881
18032TIP3   OH275586   3.846   4.411  13.032 -0.6229  0.2545  0.0107
18032TIP3    H175587   3.916   4.476  13.038 -0.7010  0.2538  1.1486
18032TIP3    H275588   3.882   4.343  12.974 -0.6390  1.3900 -1.3855
18033TIP3   OH275589   3.274   5.811  12.646  1.0775 -0.4959  0.2109
18033TIP3    H175590   3.357   5.794  12.600  0.8934 -0.4222 -0.1486
18033TIP3    H275591   3.243   5.725  12.673  0.3011 -0.7269 -1.3378
18034TIP3   OH275592   1.530   3.838   3.474 -0.0018 -0.1898  0.7342
18034TIP3    H175593   1.442   3.835   3.436 -0.2237  0.9856  1.1215
18034TIP3    H275594   1.541   3.752   3.515 -1.4157  0.0341  1.6493
18035TIP3   OH275595   1.637   6.834  16.206  0.9569  0.3583  0.2636
18035TIP3    H175596   1.700   6.762  16.211  1.1939  0.3196 -2.2603
18035TIP3    H275597   1.590   6.820  16.124 -0.5618  1.8616  0.8102
18036TIP3   OH275598   3.168   5.743   3.064 -0.7064 -0.0745  0.5560
18036TIP3    H175599   3.157   5.799   3.141  0.3542  0.6280  0.2192
18036TIP3    H275600   3.163   5.654   3.098  2.5318  0.1366  1.9576
18037TIP3   OH275601   0.880   4.389   2.392  0.1172 -0.4419  0.7218
18037TIP3    H175602   0.786   4.396   2.410 -0.1498 -0.4610 -0.5757
18037TIP3    H275603   0.913   4.478   2.404 -0.4418 -0.0208 -0.7311
18038TIP3   OH275604   5.004   1.989  14.802  0.3665  0.4398 -0.2052
18038TIP3    H175605   5.034   2.004  14.892 -0.7015  0.4100  0.1605
18038TIP3    H275606   5.072   1.933  14.763  0.6575  0.1566  0.6879
18039TIP3   OH275607   3.502   2.902  15.214  0.2905 -0.7490  0.0709
18039TIP3    H175608   3.437   2.954  15.167 -0.2025 -0.4063  1.1095
18039TIP3    H275609   3.453   2.827  15.247  0.2968 -0.2576  1.2512
18040TIP3   OH275610   4.654   5.796   0.476 -0.1329 -0.3607 -1.1042
18040TIP3    H175611   4.701   5.740   0.413 -0.9636 -0.6107 -1.5132
18040TIP3    H275612   4.701   5.782   0.559 -0.0892 -1.3759 -1.2847
18041TIP3   OH275613   3.556   5.426  12.028 -0.2031  0.1062  0.0824
18041TIP3    H175614   3.639   5.416  11.981  0.4279  2.1475  0.6456
18041TIP3    H275615   3.565   5.368  12.104  0.8642  0.5363  0.3049
18042TIP3   OH275616   2.851   1.320  15.372 -0.3948  0.0108  0.2229
18042TIP3    H175617   2.788   1.288  15.437 -1.5765  2.6862  0.5169
18042TIP3    H275618   2.799   1.333  15.293 -0.1874  1.9878  0.3855
18043TIP3   OH275619   4.198   1.191  16.948  0.0092  0.5793 -0.1396
18043TIP3    H175620   4.285   1.181  16.911  1.0675  1.3691  2.0031
18043TIP3    H275621   4.182   1.109  16.994  0.2819  0.9905  0.7156
18044TIP3   OH275622   0.637   6.475  14.022 -1.1490  0.5716  0.5028
18044TIP3    H175623   0.726   6.493  14.054 -1.6897  2.0040  1.3197
18044TIP3    H275624   0.614   6.391  14.061  0.5241 -0.7824 -1.2750
18045TIP3   OH275625   1.948   2.535  13.503 -0.1230  0.1258 -0.2480
18045TIP3    H175626   1.954   2.542  13.408 -0.0671 -0.8227 -0.3288
18045TIP3    H275627   1.864   2.491  13.519 -0.6925  1.3227  0.2129
18046TIP3   OH275628   6.471   5.502  13.891 -0.7030 -0.8930 -0.3089
18046TIP3    H175629   6.530   5.572  13.865 -0.1253 -1.3711 -0.3098
18046TIP3    H275630   6.385   5.530  13.860 -0.5007 -0.1344 -0.2013
18047TIP3   OH275631   6.163   4.653   1.538  0.2426 -0.7830 -0.4990
18047TIP3    H175632   6.088   4.637   1.480  1.0254 -1.2921 -1.4143
18047TIP3    H275633   6.125   4.691   1.617 -1.0660 -1.7724 -0.6129
18048TIP3   OH275634   2.814   1.546   1.635 -0.3296  0.4331  0.4259
18048TIP3    H175635   2.855   1.528   1.720 -0.5360  1.0678  0.6701
18048TIP3    H275636   2.883   1.530   1.571  0.0790  0.7599  0.7798
18049TIP3   OH275637   2.402   1.130  15.724  1.0141  0.4979  0.2011
18049TIP3    H175638   2.447   1.214  15.728 -0.0945  1.0837  0.9753
18049TIP3    H275639   2.377   1.112  15.815  0.5567 -0.2865 -0.0716
18050TIP3   OH275640   2.387   3.841   1.022 -0.2174  0.0878 -0.4703
18050TIP3    H175641   2.318   3.816   1.084 -1.4480  1.6699 -1.1240
18050TIP3    H275642   2.386   3.772   0.956  0.4042 -1.0787  0.7016
18051TIP3   OH275643   1.314   6.216   1.631  0.3983  0.0995 -0.1377
18051TIP3    H175644   1.391   6.227   1.576  0.3622 -0.5808 -0.3341
18051TIP3    H275645   1.251   6.168   1.576 -0.0628  0.4117  0.1087
18052TIP3   OH275646   5.635   2.536   4.451 -0.4098  0.6253 -0.2133
18052TIP3    H175647   5.667   2.624   4.465  1.9557  0.1929 -2.2275
18052TIP3    H275648   5.587   2.514   4.531  1.7173  2.5244  1.7073
18053TIP3   OH275649   4.623   3.522  13.152  0.2326  0.1437  0.1266
18053TIP3    H175650   4.646   3.579  13.078 -0.3538  1.0371  0.6186
18053TIP3    H275651   4.672   3.558  13.226 -1.0040  0.7005  0.6867
18054TIP3   OH275652   1.641   3.121   3.564 -1.1549 -0.2678 -0.1605
18054TIP3    H175653   1.638   3.060   3.638 -0.8444 -0.8669 -0.6327
18054TIP3    H275654   1.641   3.065   3.487 -0.0340  0.2934 -0.5894
18055TIP3   OH275655   0.831   2.745  13.996 -0.1373 -0.6415 -0.5754
18055TIP3    H175656   0.856   2.655  14.018 -0.2245 -0.5340 -0.0481
18055TIP3    H275657   0.855   2.753  13.903  0.0643 -1.1401 -0.5727
18056TIP3   OH275658   2.854   5.692  16.863 -0.2863  0.1317 -0.7004
18056TIP3    H175659   2.765   5.697  16.897 -0.1594  2.8737 -0.5578
18056TIP3    H275660   2.908   5.734  16.929  0.3994  2.7896 -2.7648
18057TIP3   OH275661   5.226   0.764   1.064  0.0557  0.1475 -0.1228
18057TIP3    H175662   5.179   0.713   0.998  1.4961 -1.1379 -0.1982
18057TIP3    H275663   5.248   0.846   1.019 -0.5693  0.0381 -0.6409
18058TIP3   OH275664   3.342   6.165  13.292  0.2716 -0.1706  0.1498
18058TIP3    H175665   3.392   6.108  13.233  1.0708 -0.2209  0.8540
18058TIP3    H275666   3.290   6.104  13.345  0.3432 -0.1850  0.2036
18059TIP3   OH275667   3.601   4.482   3.560 -0.0002 -0.6549  0.1406
18059TIP3    H175668   3.625   4.538   3.486 -0.4087 -0.1209  0.4013
18059TIP3    H275669   3.597   4.543   3.635  2.5195 -1.4842  1.0673
18060TIP3   OH275670   3.229   2.532   4.963  1.0744  0.2359 -0.5601
18060TIP3    H175671   3.263   2.443   4.963 -0.4207 -0.3566  0.4038
18060TIP3    H275672   3.197   2.546   5.052  0.3244  1.3680 -0.9847
18061TIP3   OH275673   1.742   3.870   4.109 -0.3342  0.3151 -0.7466
18061TIP3    H175674   1.789   3.806   4.163 -0.5648  1.4185  0.8240
18061TIP3    H275675   1.809   3.933   4.083 -0.8451  1.9058  1.5195
18062TIP3   OH275676   4.163   2.995   0.013  0.2551 -0.0724  0.5566
18062TIP3    H175677   4.115   2.937   0.073 -2.1547  0.7238 -0.4907
18062TIP3    H275678   4.249   2.954   0.003 -0.0654 -1.4283  2.7496
18063TIP3   OH275679   4.956   0.261  11.870 -0.1641 -0.1540  0.3684
18063TIP3    H175680   4.883   0.199  11.863 -1.3232  1.0883  0.9589
18063TIP3    H275681   4.923   0.330  11.927  1.4403  0.5239  0.5230
18064TIP3   OH275682   1.963   3.903   2.502 -0.6006  0.7044  0.0229
18064TIP3    H175683   1.990   3.986   2.540 -1.5891  0.5095  1.2127
18064TIP3    H275684   2.015   3.895   2.422  1.4251  1.2314  1.2250
18065TIP3   OH275685   4.244   1.910   3.936 -0.3004 -0.0460  0.6889
18065TIP3    H175686   4.174   1.880   3.878  0.3992 -0.7716  0.2061
18065TIP3    H275687   4.201   1.973   3.995 -1.4459 -0.8074  0.6907
18066TIP3   OH275688   3.498   6.695   5.038 -0.4221 -0.1866  0.2056
18066TIP3    H175689   3.566   6.631   5.020 -0.2944  0.1157 -0.4161
18066TIP3    H275690   3.462   6.717   4.952 -0.6477  0.3696  0.4371
18067TIP3   OH275691   4.134   2.846   2.378  0.4188 -0.4680 -0.3246
18067TIP3    H175692   4.046   2.823   2.348 -0.2782  1.1122  0.3984
18067TIP3    H275693   4.187   2.845   2.298 -0.4325 -0.6465 -0.9033
18068TIP3   OH275694   4.506   1.821   3.911 -0.0279  0.4009  0.3389
18068TIP3    H175695   4.564   1.875   3.963  0.0961  1.7852 -1.1683
18068TIP3    H275696   4.419   1.856   3.928 -0.2373 -0.4384  1.1098
18069TIP3   OH275697   3.283   3.818   2.491 -0.1071  0.0863  0.2611
18069TIP3    H175698   3.189   3.807   2.501  0.0191  0.4256  2.0172
18069TIP3    H275699   3.293   3.902   2.445 -0.6290  0.9830  1.7408
18070TIP3   OH275700   4.736   6.687  16.186  0.0678  0.4032  0.5138
18070TIP3    H175701   4.713   6.659  16.275  1.8328 -0.9083  0.6176
18070TIP3    H275702   4.827   6.660  16.175 -0.0272  0.7497 -1.6227
18071TIP3   OH275703   5.286   5.746   0.050 -0.2123  0.7352 -0.6983
18071TIP3    H175704   5.222   5.816   0.038 -0.2295  0.8422  0.0040
18071TIP3    H275705   5.358   5.787   0.098 -0.6685  0.0449  0.6277
18072TIP3   OH275706   4.002   0.311  13.138 -0.7394  0.0744 -0.3077
18072TIP3    H175707   3.913   0.308  13.174 -0.3602 -0.0915  0.6488
18072TIP3    H275708   4.004   0.242  13.072 -1.4131  0.2982 -0.5696
18073TIP3   OH275709   5.459   4.447   3.478 -0.6078 -0.4763  0.4823
18073TIP3    H175710   5.365   4.456   3.495 -0.9800  0.1918 -1.5292
18073TIP3    H275711   5.494   4.536   3.488 -0.7053 -0.2105 -1.1667
18074TIP3   OH275712   2.255   4.946   0.654 -0.4398  0.3936 -0.0641
18074TIP3    H175713   2.287   5.019   0.707 -1.4012  1.2806 -0.6653
18074TIP3    H275714   2.331   4.916   0.604  0.0223  0.7998  0.3994
18075TIP3   OH275715   1.461   0.392  14.936 -0.2495  0.0760 -0.4072
18075TIP3    H175716   1.407   0.409  14.859 -0.7778  1.4188  0.2263
18075TIP3    H275717   1.401   0.351  14.998 -0.3015  0.6703 -0.0578
18076TIP3   OH275718   5.855   6.539  11.721  0.3690  0.0042 -0.6427
18076TIP3    H175719   5.913   6.475  11.678  0.2275 -1.1982  0.8456
18076TIP3    H275720   5.784   6.552  11.659  1.1808 -0.0989 -1.6254
18077TIP3   OH275721   4.782   4.964  16.435  0.5266  0.1612 -0.6109
18077TIP3    H175722   4.751   4.927  16.517 -2.0034 -0.0983 -1.6142
18077TIP3    H275723   4.781   5.059  16.449  0.9032  0.0908 -0.0916
18078TIP3   OH275724   2.478   0.132   1.807  0.2006 -0.0745  0.1209
18078TIP3    H175725   2.473   0.105   1.899  0.7644  1.6372  0.6962
18078TIP3    H275726   2.389   0.158   1.785  0.1837  0.0770  0.3674
18079TIP3   OH275727   6.256   1.275  14.286 -0.1505  0.1702  0.1391
18079TIP3    H175728   6.338   1.310  14.320 -0.0476  1.9685 -1.7229
18079TIP3    H275729   6.201   1.352  14.270 -1.5147 -0.8446 -0.3477
18080TIP3   OH275730   4.356   0.477   3.850 -0.5106  0.5507  0.0232
18080TIP3    H175731   4.446   0.504   3.836 -0.5477  0.1396 -1.1597
18080TIP3    H275732   4.306   0.559   3.849 -0.1047  0.8368  1.2984
18081TIP3   OH275733   0.034   4.836  12.373 -0.5823  0.4345 -0.5010
18081TIP3    H175734   0.007   4.922  12.407 -3.3958 -0.8513  0.8266
18081TIP3    H275735   0.008   4.838  12.281  0.0149  1.2459 -0.6628
18082TIP3   OH275736   4.306   1.542   0.741 -0.3092 -0.1386 -0.0080
18082TIP3    H175737   4.361   1.543   0.819 -1.5304 -0.1078  0.8813
18082TIP3    H275738   4.312   1.631   0.706 -1.0013  0.3174  0.9829
18083TIP3   OH275739   4.004   5.742   3.848  0.2354 -0.2716 -0.1168
18083TIP3    H175740   4.090   5.782   3.864 -0.0433  0.0546  0.5988
18083TIP3    H275741   3.983   5.697   3.930 -1.7303  2.3388  0.9295
18084TIP3   OH275742   0.124   6.189  17.050 -0.0383 -0.4331 -0.1889
18084TIP3    H175743   0.153   6.122  17.111  1.9173  0.5117 -0.0053
18084TIP3    H275744   0.083   6.256  17.106 -1.1811 -1.0361 -0.2816
18085TIP3   OH275745   3.190   0.873   5.226  0.9008  0.1533  0.4529
18085TIP3    H175746   3.252   0.805   5.253  0.5932 -0.2537  0.1562
18085TIP3    H275747   3.192   0.937   5.298  1.5509  0.0753  0.5104
18086TIP3   OH275748   4.463   0.876  13.240  0.2811  0.1523 -0.3038
18086TIP3    H175749   4.402   0.897  13.169  0.6674  0.9134 -0.4226
18086TIP3    H275750   4.550   0.888  13.201  0.5972 -2.8622 -0.7430
18087TIP3   OH275751   1.700   4.069  13.485 -0.4333 -0.1919  0.0445
18087TIP3    H175752   1.660   3.983  13.475 -1.2082  0.0320  0.9348
18087TIP3    H275753   1.751   4.063  13.566  0.8017 -0.2695 -0.7272
18088TIP3   OH275754   5.348   5.477   0.063 -0.3547  0.4437 -0.0229
18088TIP3    H175755   5.312   5.565   0.070  0.3059  0.6410  1.3082
18088TIP3    H275756   5.442   5.489   0.066 -0.0601 -0.0768 -3.3847
18089TIP3   OH275757   3.150   2.361  15.176 -0.3944  0.4641 -0.3747
18089TIP3    H175758   3.207   2.340  15.102  0.6958 -0.5897  0.7150
18089TIP3    H275759   3.120   2.450  15.160 -0.4623  0.1324 -2.2428
18090TIP3   OH275760   0.605   4.819   0.782  0.2707  0.0400  0.8266
18090TIP3    H175761   0.628   4.861   0.699  1.5147 -1.7242  0.2243
18090TIP3    H275762   0.612   4.889   0.847 -0.4460  1.3875 -0.4769
18091TIP3   OH275763   4.769   2.544   0.077  0.5970  0.0070 -0.2618
18091TIP3    H175764   4.818   2.625   0.086  1.6168 -0.7052  1.0128
18091TIP3    H275765   4.694   2.555   0.135  0.5195  0.1935 -0.3973
18092TIP3   OH275766   4.362   2.427  13.654  0.3436  0.0059 -0.2394
18092TIP3    H175767   4.384   2.341  13.690  0.5453 -0.1921 -0.8214
18092TIP3    H275768   4.380   2.488  13.725 -0.7900 -0.5241  0.5374
18093TIP3   OH275769   3.010   1.707   4.044  0.3999  0.0611 -0.4814
18093TIP3    H175770   2.980   1.718   3.953  1.9764 -1.1202 -1.1913
18093TIP3    H275771   3.106   1.712   4.038  0.4864  1.6542  1.3910
18094TIP3   OH275772   0.045   1.935   4.993  0.1808  0.9683  0.3463
18094TIP3    H175773   0.076   1.962   4.907  1.2632  0.7511  0.6397
18094TIP3    H275774  -0.050   1.939   4.988  0.2234  3.9276  0.0934
18095TIP3   OH275775   4.907   5.690   0.088  1.1488  0.1163 -0.8462
18095TIP3    H175776   4.965   5.750   0.134  0.4345  0.0477  0.1833
18095TIP3    H275777   4.855   5.649   0.157  0.0037  0.0339 -1.7190
18096TIP3   OH275778   6.543   2.969  13.387 -0.1771  0.1234 -0.3194
18096TIP3    H175779   6.592   2.900  13.432 -1.7035 -0.3778  0.6207
18096TIP3    H275780   6.532   3.037  13.452  0.9539  1.1254 -1.1247
18097TIP3   OH275781   0.850   6.612  14.739 -0.0948 -0.1877 -0.0735
18097TIP3    H175782   0.929   6.608  14.685 -0.4753  0.2157 -0.6870
18097TIP3    H275783   0.787   6.661  14.685 -0.5448  0.0821  0.6724
18098TIP3   OH275784   1.692   1.120  12.118 -0.1299  0.5318  0.1504
18098TIP3    H175785   1.627   1.052  12.138  1.9932 -1.3329  1.1251
18098TIP3    H275786   1.720   1.100  12.029  1.9378 -1.2844  1.0997
18099TIP3   OH275787   0.759   2.872  11.664  0.0518  0.5647  0.0007
18099TIP3    H175788   0.733   2.877  11.572 -0.2282  0.3758  0.0718
18099TIP3    H275789   0.687   2.827  11.708  0.2142  0.5962  0.3024
18100TIP3   OH275790   3.962   1.328  12.789 -0.2285  0.1195 -0.7477
18100TIP3    H175791   4.019   1.371  12.725  0.9804 -0.1358  0.1149
18100TIP3    H275792   3.909   1.399  12.825 -0.3580  0.3919 -1.4528
18101TIP3   OH275793   1.638   3.671   5.208  0.7046  0.3343  0.7159
18101TIP3    H175794   1.666   3.605   5.144  0.6565 -0.6642  1.7016
18101TIP3    H275795   1.682   3.647   5.289 -0.3604  0.7208  1.4345
18102TIP3   OH275796   1.635   1.780  16.562  0.5866 -0.1856  0.0599
18102TIP3    H175797   1.608   1.703  16.613  0.4063  1.4090  2.5569
18102TIP3    H275798   1.660   1.745  16.477  1.3107 -3.1017  1.3546
18103TIP3   OH275799   1.026   2.585  12.471 -0.1261 -0.0493  0.0198
18103TIP3    H175800   1.086   2.607  12.399  0.8595  0.0457  0.8534
18103TIP3    H275801   0.943   2.626  12.445  0.8141  2.0021  0.0011
18104TIP3   OH275802   6.204   5.919  11.916 -0.0784 -0.2382 -0.2619
18104TIP3    H175803   6.266   5.848  11.897  0.5880  0.2280  0.1091
18104TIP3    H275804   6.190   5.962  11.832  0.0403 -0.3964 -0.3632
18105TIP3   OH275805   0.567   4.895  15.794  0.1233  0.7750 -0.0211
18105TIP3    H175806   0.658   4.896  15.765 -0.2945  0.7306 -1.4241
18105TIP3    H275807   0.537   4.985  15.783 -0.9366  0.1923 -2.9142
18106TIP3   OH275808   3.696   3.195   3.986 -0.0550  0.9101 -0.1075
18106TIP3    H175809   3.610   3.190   4.028  0.2567 -0.5816  0.4224
18106TIP3    H275810   3.709   3.288   3.970 -0.3425  1.5624  2.8099
18107TIP3   OH275811   5.491   0.902   3.455 -0.3679  0.4259  0.7034
18107TIP3    H175812   5.405   0.874   3.422 -0.5257  0.8181  0.7807
18107TIP3    H275813   5.496   0.995   3.434  0.1345  0.3590  0.4999
18108TIP3   OH275814   0.151   2.818  13.897  0.3976  0.5426  0.5111
18108TIP3    H175815   0.242   2.798  13.875  0.6157  0.8304  1.1498
18108TIP3    H275816   0.136   2.774  13.981 -0.4928 -0.7184 -0.2672
18109TIP3   OH275817   3.034   0.404  13.807  0.1427 -0.4203  0.0574
18109TIP3    H175818   2.949   0.400  13.764 -1.2189  0.1280  2.4777
18109TIP3    H275819   3.097   0.416  13.736 -1.8147 -0.4585 -1.7888
18110TIP3   OH275820   4.766   5.493   5.630  0.0440  0.7812 -0.1853
18110TIP3    H175821   4.794   5.568   5.683 -0.3913  1.2461 -0.6027
18110TIP3    H275822   4.787   5.417   5.684 -2.3982  1.2911  1.6747
18111TIP3   OH275823   0.127   4.912  15.153  0.5292  0.6890  0.4232
18111TIP3    H175824   0.055   4.849  15.163  1.3881 -0.1469  1.6197
18111TIP3    H275825   0.113   4.951  15.067 -1.1078  0.2388  0.4433
18112TIP3   OH275826   1.824   4.525   5.508 -0.3381  0.3263  0.0970
18112TIP3    H175827   1.891   4.569   5.560 -0.8314  0.4363  0.6573
18112TIP3    H275828   1.848   4.433   5.510  0.5770  0.5212 -0.8937
18113TIP3   OH275829   6.550   1.110  14.970  0.0828 -0.1219 -0.1582
18113TIP3    H175830   6.583   1.193  15.004 -0.1044 -0.6730  1.5015
18113TIP3    H275831   6.528   1.128  14.879  1.1167  1.3308 -0.1576
18114TIP3   OH275832   3.371   5.047  12.235  0.0073  0.5372  0.2642
18114TIP3    H175833   3.291   5.023  12.281  0.2754 -0.0472  0.4395
18114TIP3    H275834   3.341   5.083  12.151 -0.5552  3.0302  1.4522
18115TIP3   OH275835   5.267   2.849  12.500 -0.1605  0.3146  0.2680
18115TIP3    H175836   5.313   2.769  12.473  0.9710  0.1352  2.4617
18115TIP3    H275837   5.178   2.820  12.519 -0.3848  0.0469 -1.1068
18116TIP3   OH275838   2.340   5.077  16.524  0.2478 -0.2229  0.1210
18116TIP3    H175839   2.389   5.002  16.559  3.1555  1.2310 -0.4547
18116TIP3    H275840   2.274   5.096  16.590  0.2930 -2.4603  0.8941
18117TIP3   OH275841   2.369   2.123   0.063 -0.0275  0.1399  0.2005
18117TIP3    H175842   2.355   2.080  -0.022  0.8814 -0.6214  0.4248
18117TIP3    H275843   2.455   2.162   0.056 -0.5516  1.3418  0.2657
18118TIP3   OH275844   2.739   4.302   0.753 -0.1824 -0.4366  0.0524
18118TIP3    H175845   2.667   4.264   0.803 -1.4720  0.2057 -1.2473
18118TIP3    H275846   2.753   4.388   0.792  0.7444 -1.0186  1.0811
18119TIP3   OH275847   0.063   2.071   5.642  0.9578  0.3847  0.0700
18119TIP3    H175848   0.149   2.112   5.636  1.2419 -0.1274  0.5605
18119TIP3    H275849   0.040   2.076   5.735  0.1034  1.2241 -0.1700
18120TIP3   OH275850   6.580   5.897  13.284 -0.3145 -0.8503 -0.3981
18120TIP3    H175851   6.508   5.951  13.253  0.9224  0.8625 -0.3826
18120TIP3    H275852   6.631   5.876  13.206 -0.4773 -1.5378 -0.3262
18121TIP3   OH275853   3.724   1.074   4.601  0.1526 -0.7444  0.0419
18121TIP3    H175854   3.817   1.080   4.621 -0.0727  0.0588  0.9873
18121TIP3    H275855   3.717   1.090   4.507  0.9530 -0.7448 -0.0195
18122TIP3   OH275856   6.201   0.824  16.805  0.4088  0.0919  0.2915
18122TIP3    H175857   6.269   0.788  16.747 -0.5050 -0.1039 -0.6781
18122TIP3    H275858   6.239   0.907  16.835  1.1336 -0.0634 -0.1521
18123TIP3   OH275859   4.725   2.534   5.012 -0.1294  0.3498 -0.2076
18123TIP3    H175860   4.630   2.545   5.011  0.0932  2.6292 -0.5027
18123TIP3    H275861   4.746   2.510   4.922 -0.5034 -1.6489  0.1714
18124TIP3   OH275862   5.937   3.339  14.773  0.9908  0.7293  0.4665
18124TIP3    H175863   5.889   3.257  14.763 -0.5028  1.6093  0.0969
18124TIP3    H275864   5.929   3.382  14.688  0.6321  1.8210  1.0286
18125TIP3   OH275865   0.107   0.639   1.227  0.0906  0.6651  0.7273
18125TIP3    H175866   0.116   0.563   1.285  1.9266 -0.4377 -0.8721
18125TIP3    H275867   0.035   0.617   1.169  1.8928 -0.9324 -1.0821
18126TIP3   OH275868   1.658   4.470   1.575  0.0188 -0.4788 -0.3057
18126TIP3    H175869   1.651   4.380   1.609  0.0841 -0.0371  0.9490
18126TIP3    H275870   1.572   4.489   1.539 -0.3644 -0.6378  0.5131
18127TIP3   OH275871   6.790   3.607  12.175  0.7063 -0.2421 -0.1165
18127TIP3    H175872   6.818   3.518  12.198 -0.2960 -0.1500  1.6407
18127TIP3    H275873   6.851   3.635  12.107  1.6497 -1.9064 -0.0003
18128TIP3   OH275874   2.069   3.751   3.125 -0.1905  0.5971 -0.4799
18128TIP3    H175875   2.121   3.751   3.206 -1.1256 -1.4118  0.1846
18128TIP3    H275876   2.030   3.663   3.122 -1.3440  1.1281 -2.3738
18129TIP3   OH275877   0.714   5.305  12.282  0.3271  0.2194  0.0395
18129TIP3    H175878   0.750   5.376  12.335  0.3730 -0.5715  1.1064
18129TIP3    H275879   0.620   5.307  12.299  0.5040 -0.8949  1.2578
18130TIP3   OH275880   0.540   1.308   1.767 -0.2975  0.4602 -0.7073
18130TIP3    H175881   0.485   1.291   1.690 -0.8388  0.2217 -0.2758
18130TIP3    H275882   0.504   1.388   1.805  1.3251  1.8353 -1.8966
18131TIP3   OH275883   1.330   3.477   3.120 -0.2826  0.0848  0.2236
18131TIP3    H175884   1.357   3.563   3.151  0.8959  0.5043 -1.7547
18131TIP3    H275885   1.400   3.418   3.148 -0.6607 -0.0724  0.8400
18132TIP3   OH275886   3.495   5.511  13.366  0.6547  0.2093  0.4171
18132TIP3    H175887   3.517   5.421  13.341  0.6663  0.7848 -1.8221
18132TIP3    H275888   3.543   5.525  13.447  0.1088 -2.0191  1.2192
18133TIP3   OH275889   6.316   1.741  13.032 -0.6847  0.1370  0.0266
18133TIP3    H175890   6.249   1.788  12.982 -0.1048 -0.0813 -0.9979
18133TIP3    H275891   6.269   1.704  13.107 -1.8197 -0.3862 -0.9015
18134TIP3   OH275892   2.508   0.142   6.357 -0.3068  0.4141  0.6755
18134TIP3    H175893   2.553   0.175   6.280 -2.0002  1.0321 -0.1053
18134TIP3    H275894   2.426   0.191   6.359 -0.9967 -0.7260  1.9685
18135TIP3   OH275895   3.291   6.789   3.909 -0.0956 -0.8527 -0.1466
18135TIP3    H175896   3.325   6.756   3.826 -0.1115 -0.8785 -0.1430
18135TIP3    H275897   3.269   6.711   3.960  3.8470 -1.0507  1.5743
18136TIP3   OH275898   3.443   5.451  10.969  0.4402 -0.6203 -0.1924
18136TIP3    H175899   3.451   5.476  11.061  0.3963 -0.1761 -0.3071
18136TIP3    H275900   3.357   5.410  10.962 -1.1203  2.5175 -0.7382
18137TIP3   OH275901   0.440   2.466   1.952 -0.0323 -0.1784  0.3915
18137TIP3    H175902   0.535   2.477   1.954 -0.1420  0.8010  0.9529
18137TIP3    H275903   0.415   2.484   1.861  0.1515  1.2758  0.6038
18138TIP3   OH275904   1.030   6.541   4.806 -0.0114  0.1614 -0.1587
18138TIP3    H175905   0.948   6.491   4.814  0.4224 -0.4651  0.5575
18138TIP3    H275906   1.010   6.626   4.846 -0.2758 -0.0311  0.1207
18139TIP3   OH275907   4.240   2.842  12.603  0.0103 -0.4609  0.3345
18139TIP3    H175908   4.324   2.835  12.647  0.2160 -0.0449  0.0077
18139TIP3    H275909   4.207   2.928  12.628  0.5136  0.1409 -0.9948
18140TIP3   OH275910   5.850   1.132  14.375 -0.6778 -0.2790 -0.0074
18140TIP3    H175911   5.882   1.210  14.331 -0.0304 -0.5900 -0.0976
18140TIP3    H275912   5.758   1.126  14.350 -0.4530 -0.1492 -0.8775
18141TIP3   OH275913   1.357   3.024  17.136 -0.2329 -0.2666 -0.1466
18141TIP3    H175914   1.325   2.956  17.195 -1.6937 -0.0790 -0.6820
18141TIP3    H275915   1.347   3.105  17.186  0.1042 -0.2803 -0.0540
18142TIP3   OH275916   0.481   6.511  12.304 -0.2130  0.1761  0.6332
18142TIP3    H175917   0.447   6.484  12.218  0.1121  0.0776  0.5365
18142TIP3    H275918   0.404   6.547  12.349 -0.1065  1.4783 -0.1876
18143TIP3   OH275919   4.973   2.613  11.206 -0.0045  0.1218  0.0862
18143TIP3    H175920   5.014   2.557  11.272  1.9228 -0.6470 -1.6578
18143TIP3    H275921   4.889   2.638  11.245 -0.2798 -2.7086  1.5844
18144TIP3   OH275922   1.650   4.449   5.106  0.0091 -0.3347  0.4142
18144TIP3    H175923   1.741   4.470   5.085 -0.3332  0.0864 -0.6730
18144TIP3    H275924   1.654   4.361   5.145  1.0618  0.3421  1.9228
18145TIP3   OH275925   2.172   5.700   6.057 -0.7661 -0.2328 -0.6067
18145TIP3    H175926   2.135   5.621   6.097 -0.4912 -0.1611 -0.2118
18145TIP3    H275927   2.130   5.773   6.103  1.9932 -0.1008  1.9467
18146TIP3   OH275928   6.098   2.928  15.622  0.7340 -0.1058  0.2831
18146TIP3    H175929   6.173   2.984  15.643 -0.8911  1.2709  2.7924
18146TIP3    H275930   6.056   2.971  15.548  0.7407  0.7714  0.7874
18147TIP3   OH275931   0.338   1.784  14.689 -0.3284  0.0813 -0.0653
18147TIP3    H175932   0.375   1.804  14.775 -0.9913  0.6103  0.1114
18147TIP3    H275933   0.316   1.870  14.653  0.0250 -0.1325 -0.8050
18148TIP3   OH275934   1.631   1.634   0.516  0.1346  0.0351  0.1039
18148TIP3    H175935   1.686   1.683   0.577  1.2687 -1.0143 -0.0448
18148TIP3    H275936   1.555   1.608   0.569 -0.9269  2.5944 -0.0311
18149TIP3   OH275937   2.101   1.485  11.292  0.2833 -0.1082 -0.0424
18149TIP3    H175938   2.100   1.410  11.232  2.7590 -0.5759  0.3941
18149TIP3    H275939   2.194   1.508  11.300 -0.1135  0.9319  2.3706
18150TIP3   OH275940   4.325   6.690   2.544  0.6550  0.2839 -0.4237
18150TIP3    H175941   4.274   6.721   2.618  0.7056  2.5736 -1.2563
18150TIP3    H275942   4.349   6.600   2.566 -1.5417  0.0242  1.1188
18151TIP3   OH275943   2.280   3.426  12.914 -0.2619 -0.3878  0.3559
18151TIP3    H175944   2.294   3.343  12.868 -0.8591  0.7141 -2.0247
18151TIP3    H275945   2.312   3.411  13.002  4.0595 -1.7860 -1.1989
18152TIP3   OH275946   0.112   0.400   3.602 -0.0840 -0.2721 -0.0105
18152TIP3    H175947   0.091   0.490   3.576 -0.2511 -0.4326 -0.4351
18152TIP3    H275948   0.187   0.376   3.548  0.5478 -0.0805  0.7438
18153TIP3   OH275949   2.337   4.516  13.957  0.4370 -0.3049 -0.0423
18153TIP3    H175950   2.335   4.428  13.995 -0.2288  0.0148  0.7028
18153TIP3    H275951   2.327   4.575  14.032 -1.7628  0.3265 -0.7380
18154TIP3   OH275952   4.256   5.348   2.631  0.2077 -0.0079  0.5146
18154TIP3    H175953   4.298   5.425   2.668 -1.0002  0.4723  0.9378
18154TIP3    H275954   4.272   5.355   2.537  0.0704  0.7997  0.5449
18155TIP3   OH275955   5.556   4.954   1.167  0.4051  0.4023 -0.4934
18155TIP3    H175956   5.590   5.043   1.163 -0.9663  0.9847  0.3111
18155TIP3    H275957   5.461   4.963   1.160  0.1590 -0.9097  0.6087
18156TIP3   OH275958   4.348   0.623   0.349 -0.2425  0.0020  0.2335
18156TIP3    H175959   4.312   0.639   0.262 -1.5514  1.9279  1.0665
18156TIP3    H275960   4.373   0.531   0.348  1.3555  0.3684 -2.7072
18157TIP3   OH275961   5.076   4.911   2.497  0.5729  0.2081  0.2297
18157TIP3    H175962   5.081   4.833   2.443  0.6263 -0.7003  1.4986
18157TIP3    H275963   5.158   4.911   2.547  0.8732  1.4449 -0.2188
18158TIP3   OH275964   6.829   5.624  11.263  0.0144 -0.0048 -0.8401
18158TIP3    H175965   6.743   5.599  11.231 -0.0068 -1.1733  0.0656
18158TIP3    H275966   6.822   5.717  11.282 -1.6072 -0.4287  0.8798
18159TIP3   OH275967   1.992   0.822  12.860 -0.2877  0.6736 -0.2786
18159TIP3    H175968   1.933   0.893  12.883 -0.2178  1.3611 -2.0023
18159TIP3    H275969   1.936   0.745  12.850 -0.4789  0.6653  0.8202
18160TIP3   OH275970   6.777   0.416  14.768 -0.0027 -0.1490  0.1681
18160TIP3    H175971   6.837   0.369  14.824 -1.0966  0.4532  1.9285
18160TIP3    H275972   6.708   0.447  14.827 -0.2077  2.1795 -1.1737
18161TIP3   OH275973   6.745   0.606   5.048 -0.0510 -0.0630 -0.3173
18161TIP3    H175974   6.822   0.635   5.096 -1.3006  2.3662  0.4370
18161TIP3    H275975   6.690   0.563   5.113 -0.1794  0.0003 -0.3813
18162TIP3   OH275976   4.947   3.876   0.122 -0.3274 -0.0364  0.1827
18162TIP3    H175977   4.914   3.952   0.171 -2.3196 -1.1823  0.7299
18162TIP3    H275978   4.924   3.894   0.031 -2.5566 -0.7750  0.5421
18163TIP3   OH275979   1.065   2.377  11.492  0.0377  0.3436  0.9571
18163TIP3    H175980   1.145   2.339  11.455 -0.9342  1.3176 -2.4242
18163TIP3    H275981   1.095   2.458  11.533  0.8312  0.6696 -0.2133
18164TIP3   OH275982   2.643   4.943   2.798 -0.2147  0.2367  0.0457
18164TIP3    H175983   2.731   4.932   2.762 -0.5557  0.4578 -0.8685
18164TIP3    H275984   2.608   5.021   2.755 -1.0059 -0.0768  0.1021
18165TIP3   OH275985   2.822   4.350   1.876 -0.1572 -0.4520 -0.2223
18165TIP3    H175986   2.909   4.343   1.836  0.2197  1.8124  0.0305
18165TIP3    H275987   2.763   4.313   1.811  0.9088 -1.1793 -0.8053
18166TIP3   OH275988   1.576   2.431  15.684  0.0986  0.2945 -0.4218
18166TIP3    H175989   1.526   2.492  15.738  0.2534  0.7357 -0.7711
18166TIP3    H275990   1.574   2.470  15.596 -1.2419 -1.0495 -1.0333
18167TIP3   OH275991   0.802   1.581   1.610 -0.4657  0.0817  0.0638
18167TIP3    H175992   0.742   1.516   1.648 -1.1708  0.7640  0.1467
18167TIP3    H275993   0.877   1.582   1.669 -1.6769  1.3391  1.6839
18168TIP3   OH275994   0.394   6.253  13.619  0.0544 -0.1617 -0.2070
18168TIP3    H175995   0.331   6.308  13.571  1.2065  0.1651 -1.4183
18168TIP3    H275996   0.437   6.313  13.679 -0.2963 -0.2352  0.1190
18169TIP3   OH275997   5.381   3.507  15.815  0.8537 -0.2394 -0.1319
18169TIP3    H175998   5.327   3.522  15.737  0.1682 -1.7655  0.0187
18169TIP3    H275999   5.318   3.483  15.883  1.5300  0.2368  0.6804
18170TIP3   OH276000   6.607   2.989  12.641  0.6679 -0.5729 -0.6894
18170TIP3    H176001   6.660   3.064  12.666  0.1009  0.3153 -2.0577
18170TIP3    H276002   6.522   3.025  12.618  0.6621 -1.4876 -2.2847
18171TIP3   OH276003   2.295   2.339   3.156  0.2428  0.1223  0.2624
18171TIP3    H176004   2.288   2.285   3.235 -0.1695  1.8434  1.4735
18171TIP3    H276005   2.380   2.383   3.164  0.0210  0.6150 -0.0458
18172TIP3   OH276006   5.525   4.017  11.483  0.0323 -0.6475  0.1874
18172TIP3    H176007   5.559   4.102  11.510 -0.6269 -0.2324 -0.2608
18172TIP3    H276008   5.597   3.976  11.435  0.7758 -0.8722  1.4653
18173TIP3   OH276009   5.748   5.157   1.252 -0.8465  0.2033  0.4115
18173TIP3    H176010   5.835   5.117   1.260 -0.2274  0.9273 -1.8539
18173TIP3    H276011   5.731   5.195   1.338  0.5920 -0.8824  1.2312
18174TIP3   OH276012   3.016   2.066  15.510  0.1410  0.2782 -0.7790
18174TIP3    H176013   2.967   2.085  15.430  0.2273 -1.5724 -1.3237
18174TIP3    H276014   2.965   2.106  15.580 -0.4560  1.0932 -1.6540
18175TIP3   OH276015   6.579   1.872   3.271 -0.1054  0.1388  0.6207
18175TIP3    H176016   6.630   1.811   3.218 -0.6598  1.2361 -1.2716
18175TIP3    H276017   6.536   1.817   3.337 -0.2902 -1.4688 -0.7687
18176TIP3   OH276018   3.678   3.242  15.835  0.2816 -0.5622 -0.0690
18176TIP3    H176019   3.745   3.310  15.836  0.8671 -1.1205 -0.8652
18176TIP3    H276020   3.713   3.173  15.779 -1.2562 -0.5508 -1.1250
18177TIP3   OH276021   5.765   1.373   4.542 -0.2664  0.6182 -0.7050
18177TIP3    H176022   5.850   1.381   4.586 -0.1835 -1.5734 -0.3066
18177TIP3    H276023   5.702   1.406   4.605  0.0690 -0.3331  0.1642
18178TIP3   OH276024   4.126   5.100  13.926  0.4284 -0.1321 -0.1012
18178TIP3    H176025   4.157   5.014  13.895  1.9310  0.6697 -0.9213
18178TIP3    H276026   4.177   5.116  14.005 -0.7454 -0.5224  0.7568
18179TIP3   OH276027   1.049   3.649  16.666 -0.6225  0.4358  0.1882
18179TIP3    H176028   1.003   3.619  16.745 -2.2992 -0.1009 -0.9602
18179TIP3    H276029   0.996   3.721  16.633 -0.0451  0.5090 -0.5967
18180TIP3   OH276030   3.140   3.510   0.685  0.1513  0.3522 -0.2735
18180TIP3    H176031   3.049   3.537   0.675  0.5095  1.7020  0.0335
18180TIP3    H276032   3.174   3.563   0.757  1.7564  1.4090 -1.7241
18181TIP3   OH276033   2.822   4.065   2.346 -0.4688  0.6084 -0.2358
18181TIP3    H176034   2.796   4.106   2.263  1.3976  2.2940 -0.0641
18181TIP3    H276035   2.759   3.994   2.359 -0.5481  0.0086 -3.3038
18182TIP3   OH276036   4.780   4.270   4.132  0.0948 -0.2407  0.0654
18182TIP3    H176037   4.840   4.290   4.060 -0.7822 -1.9555 -1.2150
18182TIP3    H276038   4.755   4.356   4.166  2.9610  0.5459  0.4475
18183TIP3   OH276039   1.106   5.165  13.664 -0.1167  0.2863  0.3321
18183TIP3    H176040   1.154   5.205  13.736 -3.1615  2.9343  1.1115
18183TIP3    H276041   1.016   5.196  13.674 -2.2302 -4.4676 -0.8549
18184TIP3   OH276042   5.944   3.554  14.218  0.4655  0.3252 -0.9075
18184TIP3    H176043   6.003   3.624  14.244 -1.0018  1.8610 -1.5128
18184TIP3    H276044   5.867   3.599  14.183 -0.5256 -1.5961 -1.3561
18185TIP3   OH276045   4.239   4.190   3.798 -0.1877  0.2173  0.1508
18185TIP3    H176046   4.179   4.190   3.724  0.1726  0.8750 -0.1470
18185TIP3    H276047   4.314   4.240   3.768  0.0681  0.2803  0.8813
18186TIP3   OH276048   2.822   3.676  16.319 -0.1393  0.0764 -0.1448
18186TIP3    H176049   2.768   3.620  16.375  2.2346 -2.0025  0.2709
18186TIP3    H276050   2.834   3.624  16.239  0.5667  0.8187 -0.5322
18187TIP3   OH276051   2.511   2.711   0.753 -0.4757 -0.2652 -0.4310
18187TIP3    H176052   2.462   2.656   0.814  3.2799 -1.8573  1.4742
18187TIP3    H276053   2.585   2.743   0.804  1.3060  0.7649 -3.4198
18188TIP3   OH276054   1.301   1.872   0.638 -0.1084 -0.0820 -0.5246
18188TIP3    H176055   1.347   1.812   0.579  0.7309 -0.4902  0.5223
18188TIP3    H276056   1.211   1.873   0.605 -0.9303 -4.1462  0.9668
18189TIP3   OH276057   2.707   5.687   0.722 -0.1375 -0.0375  0.1345
18189TIP3    H176058   2.643   5.617   0.710  0.5736 -0.7680  0.5469
18189TIP3    H276059   2.788   5.653   0.685  1.2511 -1.0294  3.6807
18190TIP3   OH276060   4.483   5.810   0.985 -0.1908 -0.6083  0.6566
18190TIP3    H176061   4.475   5.730   0.932 -0.7717 -0.3496  0.3381
18190TIP3    H276062   4.506   5.878   0.921 -1.4343 -0.1880  0.6394
18191TIP3   OH276063   6.395   3.694  11.927 -0.1989 -0.5184 -0.0622
18191TIP3    H176064   6.472   3.665  11.879  1.2056  1.5104  0.8094
18191TIP3    H276065   6.361   3.767  11.876 -0.6787 -0.4655  0.3234
18192TIP3   OH276066   2.417   6.140   6.620 -0.3958  0.0734 -0.6714
18192TIP3    H176067   2.489   6.092   6.580 -0.6019 -0.8145 -0.0063
18192TIP3    H276068   2.348   6.075   6.632 -0.0804  0.0786  1.8006
18193TIP3   OH276069   3.669   3.945   0.689  0.2521 -0.2565  0.6763
18193TIP3    H176070   3.756   3.942   0.728  0.5054 -1.4210  0.0821
18193TIP3    H276071   3.614   3.895   0.750  0.0580  0.2544  0.9197
18194TIP3   OH276072   4.534   1.972   1.106 -0.3205  0.4496  0.1843
18194TIP3    H176073   4.460   1.986   1.165 -0.1566  1.3670  0.1804
18194TIP3    H276074   4.548   1.877   1.107 -1.5431  0.2591  0.1201
18195TIP3   OH276075   0.739   4.589   1.896 -0.0912 -0.1615  0.2781
18195TIP3    H176076   0.718   4.676   1.930 -1.2723 -0.4135  0.2244
18195TIP3    H276077   0.657   4.541   1.899  0.3010 -0.9421 -0.7259
18196TIP3   OH276078   3.745   3.343   1.756  0.0209  0.0014  0.5929
18196TIP3    H176079   3.779   3.255   1.774  3.3060  0.9102 -0.6090
18196TIP3    H276080   3.755   3.354   1.661 -0.0025  1.8078  0.7714
18197TIP3   OH276081   3.361   2.581  11.448 -0.0074  0.0799 -0.8465
18197TIP3    H176082   3.409   2.568  11.530 -0.5427 -0.4481 -0.6136
18197TIP3    H276083   3.413   2.533  11.383 -0.9812 -1.7581 -0.3239
18198TIP3   OH276084   6.190   0.004   1.507 -0.4760  0.2771 -0.5118
18198TIP3    H176085   6.178   0.099   1.499 -0.3833  0.4949  1.5741
18198TIP3    H276086   6.257  -0.017   1.442  1.6904  2.1341  0.9587
18199TIP3   OH276087   5.275   6.318  13.004  0.4824  0.5006  0.4479
18199TIP3    H176088   5.331   6.394  12.991  0.2449  0.5523 -0.2932
18199TIP3    H276089   5.189   6.345  12.972  0.5454 -0.2857 -0.4276
18200TIP3   OH276090   5.107   2.649  16.120  0.0922 -0.7002  0.0015
18200TIP3    H176091   5.183   2.621  16.069  0.0904 -1.3341  0.3359
18200TIP3    H276092   5.068   2.567  16.151  0.9375 -0.3134  2.2484
18201TIP3   OH276093   0.896   4.277   1.857  0.6567 -0.0904  0.2822
18201TIP3    H176094   0.916   4.369   1.874  0.4878  0.1166 -0.6030
18201TIP3    H276095   0.944   4.229   1.925  2.4495  0.5356 -0.4611
18202TIP3   OH276096   0.340   3.997   3.148 -0.2251  0.3964  0.0856
18202TIP3    H176097   0.301   3.914   3.176 -1.3171  0.2508 -1.7579
18202TIP3    H276098   0.411   4.012   3.211  0.2526 -2.1122  0.2393
18203TIP3   OH276099   5.939   0.577  11.144 -0.9399  0.3753 -0.5033
18203TIP3    H176100   5.871   0.565  11.077 -0.6660 -1.2705 -0.5331
18203TIP3    H276101   5.901   0.638  11.207 -1.4736  1.4073 -1.7852
18204TIP3   OH276102   2.523   0.028   2.359 -0.1663  0.2423 -0.3411
18204TIP3    H176103   2.508  -0.047   2.417  2.9349 -0.2187  0.0343
18204TIP3    H276104   2.613   0.054   2.376 -0.7000  3.2484 -1.4776
18205TIP3   OH276105   1.073   0.594  15.434 -0.7503  0.1885  0.0407
18205TIP3    H176106   1.052   0.657  15.365  0.2810 -1.5459 -1.9990
18205TIP3    H276107   0.996   0.538  15.441 -0.6286 -0.0114 -0.1796
18206TIP3   OH276108   2.884   1.174  12.199  0.2784  0.0458  0.1173
18206TIP3    H176109   2.872   1.266  12.225 -1.5704 -0.0739 -0.1454
18206TIP3    H276110   2.795   1.141  12.187  0.9172 -1.7338 -0.0243
18207TIP3   OH276111   1.910   0.419   5.865  0.3004  0.0878  0.4981
18207TIP3    H176112   1.877   0.395   5.952  0.7507  0.0715  0.6634
18207TIP3    H276113   1.879   0.509   5.852 -1.0955 -0.4337  0.0213
18208TIP3   OH276114   0.881   0.989  13.432 -0.4633  0.3482 -0.0993
18208TIP3    H176115   0.813   1.034  13.481 -0.2734 -0.0200  0.5220
18208TIP3    H276116   0.963   1.028  13.463 -0.4131  1.4207 -1.4956
18209TIP3   OH276117   5.874   4.605  13.280  0.0955 -0.2975  0.0927
18209TIP3    H176118   5.796   4.652  13.250  1.0541  0.3503 -1.5208
18209TIP3    H276119   5.947   4.646  13.233  1.2861 -1.6159  0.6949
18210TIP3   OH276120   6.617   2.381  12.489  0.1107  0.4175  0.6608
18210TIP3    H176121   6.707   2.355  12.470  0.4325  0.7529  1.6818
18210TIP3    H276122   6.604   2.360  12.582 -0.7092  0.8044  0.6500
18211TIP3   OH276123   6.756   5.573  12.092 -0.1586 -0.0708  0.5752
18211TIP3    H176124   6.679   5.601  12.041  0.8392  0.3192 -0.7926
18211TIP3    H276125   6.830   5.610  12.044  0.8963 -0.4581  1.8547
18212TIP3   OH276126   2.822   5.902  12.669  0.2893  0.4900  0.2684
18212TIP3    H176127   2.786   5.880  12.754 -0.1103  0.0567 -0.0067
18212TIP3    H276128   2.757   5.958  12.628  0.6284  0.9664  0.3726
18213TIP3   OH276129   2.383   1.590  13.289  0.4074  0.2308 -0.3897
18213TIP3    H176130   2.454   1.535  13.257  0.1382 -0.5088  0.2422
18213TIP3    H276131   2.397   1.675  13.247  2.0910  0.3281  0.2977
18214TIP3   OH276132   2.973   4.766   2.145 -0.1274  0.4695 -0.1404
18214TIP3    H176133   3.013   4.684   2.116  0.5866  1.1008 -0.9897
18214TIP3    H276134   2.884   4.741   2.172  0.8424 -0.9893  1.9692
18215TIP3   OH276135   3.575   5.050  11.989  0.4116  0.0144  0.3893
18215TIP3    H176136   3.587   5.039  11.895 -0.0104 -1.2594  0.4657
18215TIP3    H276137   3.489   5.092  11.998  1.1945  1.7204  0.1576
18216TIP3   OH276138   1.122   6.779   0.286 -0.0943  0.5187  0.1833
18216TIP3    H176139   1.153   6.868   0.298 -0.4214  0.5131  1.1032
18216TIP3    H276140   1.177   6.726   0.343 -1.5613  0.4708  1.6161
18217TIP3   OH276141   4.836   1.793   0.127 -0.2509 -0.1358  0.4247
18217TIP3    H176142   4.912   1.790   0.186 -0.8502  0.8329  1.2969
18217TIP3    H276143   4.873   1.814   0.041  0.6574 -1.7572  0.3909
18218TIP3   OH276144   6.679   1.696   1.863 -0.0112 -0.2827  0.0460
18218TIP3    H176145   6.601   1.678   1.811 -0.8687 -0.0118  1.2323
18218TIP3    H276146   6.699   1.613   1.906  0.3767 -0.3544 -0.2618
18219TIP3   OH276147   0.130   2.865  15.434 -0.3540 -0.4469  0.0128
18219TIP3    H176148   0.108   2.929  15.366 -1.0137  0.0056  0.6311
18219TIP3    H276149   0.190   2.913  15.492 -0.7646 -0.4137  0.4175
18220TIP3   OH276150   5.095   6.192  13.882  0.1555  0.0849 -0.1121
18220TIP3    H176151   5.109   6.098  13.895 -0.9471 -0.1902 -0.7828
18220TIP3    H276152   5.179   6.232  13.905  0.5597 -1.0352  0.4389
18221TIP3   OH276153   0.547   5.739   1.317 -0.1200  0.2728  0.3006
18221TIP3    H176154   0.498   5.659   1.337 -0.5583  0.9491  2.1368
18221TIP3    H276155   0.610   5.747   1.389  0.1046  1.4483 -0.0092
18222TIP3   OH276156   0.544   0.724   1.969 -0.2728 -0.2346 -0.5311
18222TIP3    H176157   0.474   0.784   1.944 -0.0182 -1.1509 -4.0390
18222TIP3    H276158   0.500   0.640   1.982 -0.0643 -0.3974 -0.8608
18223TIP3   OH276159   2.892   5.391   5.341 -0.6604  0.1887  0.0952
18223TIP3    H176160   2.874   5.463   5.401 -2.3212  0.3523 -0.5501
18223TIP3    H276161   2.810   5.379   5.293  0.3041 -0.6092 -1.4155
18224TIP3   OH276162   4.568   0.583  14.757 -0.3693  0.1755 -0.3332
18224TIP3    H176163   4.507   0.520  14.796  2.1248 -1.9794  0.4052
18224TIP3    H276164   4.617   0.532  14.693  2.0426  1.1751  0.5837
18225TIP3   OH276165   4.705   5.512  11.268  0.0675  0.0385 -0.2870
18225TIP3    H176166   4.687   5.590  11.216  2.6884  0.4151 -0.7585
18225TIP3    H276167   4.678   5.439  11.212  1.1734  0.4983 -1.4671
18226TIP3   OH276168   4.909   3.420   5.594  0.4548 -0.8182  0.0083
18226TIP3    H176169   4.817   3.445   5.586  0.9389  0.9419 -0.4939
18226TIP3    H276170   4.958   3.501   5.579  2.0329 -1.1125  2.7750
18227TIP3   OH276171   3.790   6.267  12.721 -0.2860  0.5778 -0.1279
18227TIP3    H176172   3.840   6.192  12.687 -0.0063  0.8403 -0.2994
18227TIP3    H276173   3.700   6.233  12.730 -0.7265  0.8861 -2.5428
18228TIP3   OH276174   4.420   3.182  15.643 -0.3913  0.2190 -0.3186
18228TIP3    H176175   4.449   3.133  15.720  1.0722  0.7759 -0.4926
18228TIP3    H276176   4.408   3.272  15.675 -0.7786  0.2454 -0.5257
18229TIP3   OH276177   0.766   1.154   5.176  0.0250 -0.5666 -0.3876
18229TIP3    H176178   0.790   1.063   5.158  1.3159 -0.5614  1.1201
18229TIP3    H276179   0.848   1.202   5.167 -0.2621  0.1469  0.6258
18230TIP3   OH276180   1.000   3.804   2.775  0.4603 -0.6209 -0.1924
18230TIP3    H176181   0.932   3.764   2.829 -1.5529  1.0388 -1.3558
18230TIP3    H276182   1.078   3.750   2.791 -0.5726 -1.4436  2.6795
18231TIP3   OH276183   1.926   1.504  11.850  0.0395  0.4064  0.3722
18231TIP3    H176184   1.842   1.484  11.808  0.6393  0.2909 -0.8317
18231TIP3    H276185   1.919   1.467  11.938 -0.3036 -1.7338 -0.4946
18232TIP3   OH276186   1.461   1.417   5.751  0.2055  0.2059  0.3812
18232TIP3    H176187   1.444   1.324   5.766  1.4450  0.3963  3.8421
18232TIP3    H276188   1.379   1.451   5.714 -0.2002 -2.2230 -1.1604
18233TIP3   OH276189   2.743   5.183   4.239 -0.4552  0.2019 -0.3234
18233TIP3    H176190   2.711   5.262   4.195  1.4947  0.7584 -0.8733
18233TIP3    H276191   2.754   5.209   4.330 -0.9193  0.1979 -0.2637
18234TIP3   OH276192   2.116   2.552  12.372 -0.3186  0.6392  0.3770
18234TIP3    H176193   2.021   2.557  12.361 -0.6279 -0.8284  2.0233
18234TIP3    H276194   2.142   2.476  12.319 -0.0658  0.9256  0.0798
18235TIP3   OH276195   3.271   2.984  12.332 -0.5812 -0.3372 -0.0609
18235TIP3    H176196   3.260   3.079  12.329  0.3448 -0.2400 -1.2554
18235TIP3    H276197   3.243   2.954  12.245  0.8523 -0.9193 -0.3572
18236TIP3   OH276198   4.507   6.617   4.775 -0.4556  0.1245 -0.0818
18236TIP3    H176199   4.460   6.663   4.705 -0.7681  0.5810  0.4252
18236TIP3    H276200   4.438   6.580   4.830 -0.3382  2.5264  1.8539
18237TIP3   OH276201   2.143   1.812  13.436 -0.0254  0.8828 -0.0672
18237TIP3    H176202   2.179   1.730  13.472  0.7300  1.3638  0.2894
18237TIP3    H276203   2.192   1.881  13.480 -1.4201  1.5694  0.4697
18238TIP3   OH276204   3.221   0.940  15.990 -0.2288 -0.2094 -0.0354
18238TIP3    H176205   3.251   1.010  15.932  0.1964 -0.4297 -0.0841
18238TIP3    H276206   3.226   0.860  15.937  1.5382 -0.6451  0.7068
18239TIP3   OH276207   6.227   5.672   0.074  0.2015  0.2089 -0.0914
18239TIP3    H176208   6.171   5.631   0.139  1.1394  0.7855  1.1144
18239TIP3    H276209   6.176   5.747   0.042 -0.6042 -0.5605 -0.6800
18240TIP3   OH276210   3.117   3.680  13.430  0.7857 -0.0072  0.0487
18240TIP3    H176211   3.132   3.752  13.491  1.1652 -0.6576  0.7527
18240TIP3    H276212   3.169   3.607  13.466 -0.7398 -1.0687  0.2078
18241TIP3   OH276213   3.312   0.961   2.575 -0.1521  0.3246 -0.0672
18241TIP3    H176214   3.383   1.011   2.535  0.9240  0.3083  1.7403
18241TIP3    H276215   3.355   0.894   2.627 -1.3316  1.7266  2.9565
18242TIP3   OH276216   1.474   4.416  15.161  0.1131  0.1651 -0.7190
18242TIP3    H176217   1.414   4.351  15.198 -1.2763  2.0272  0.4813
18242TIP3    H276218   1.448   4.424  15.069  1.2529 -1.9355 -1.2856
18243TIP3   OH276219   2.741   2.921   3.448  0.4234  0.1268 -0.1958
18243TIP3    H176220   2.776   2.877   3.370  2.1781  0.8833  0.1248
18243TIP3    H276221   2.681   2.987   3.414  1.0037  0.2994 -0.9056
18244TIP3   OH276222   4.310   3.020   1.378  0.3026  0.0005  0.0644
18244TIP3    H176223   4.359   3.001   1.298 -0.1519  2.2155 -0.8172
18244TIP3    H276224   4.222   3.044   1.347 -0.6477 -1.4635  1.4390
18245TIP3   OH276225   1.088   6.588   5.370 -0.3016  0.5249 -0.2955
18245TIP3    H176226   1.026   6.655   5.345  1.6401  1.9287 -1.6239
18245TIP3    H276227   1.169   6.636   5.389  0.6566 -1.2899  0.4702
18246TIP3   OH276228   4.818   5.752   0.690  0.2152  0.2752  0.0449
18246TIP3    H176229   4.821   5.704   0.773 -2.3123 -1.8108 -0.9312
18246TIP3    H276230   4.908   5.780   0.675  1.0939 -0.9402  2.5450
18247TIP3   OH276231   0.860   6.179  15.782  0.1928  0.3388  0.1668
18247TIP3    H176232   0.829   6.102  15.830 -2.2801  2.3682  2.1370
18247TIP3    H276233   0.789   6.198  15.720  0.6529  1.1413 -0.1245
18248TIP3   OH276234   5.933   5.911  12.355  0.1846  0.2565 -0.1996
18248TIP3    H176235   5.940   5.973  12.428  1.7589  0.5146 -0.5364
18248TIP3    H276236   5.848   5.868  12.369  0.5648  0.0606  1.9584
18249TIP3   OH276237   0.022   4.503  13.471  0.1074 -0.0593 -0.1691
18249TIP3    H176238  -0.044   4.520  13.539  1.3556  1.4739  0.7317
18249TIP3    H276239   0.041   4.410  13.480 -1.9053 -0.5571 -0.4643
18250TIP3   OH276240   3.995   4.483  15.235 -0.1670 -0.0332  0.2257
18250TIP3    H176241   4.039   4.532  15.305  0.4184 -1.0125  0.5701
18250TIP3    H276242   3.933   4.427  15.281  2.2469 -2.8725  0.3503
18251TIP3   OH276243   4.576   3.925  16.521 -0.4463 -0.4898 -0.1038
18251TIP3    H176244   4.504   3.870  16.491 -0.8745  1.1102 -2.2748
18251TIP3    H276245   4.651   3.896  16.469 -0.4083  0.1775 -0.4337
18252TIP3   OH276246   6.594   1.434   0.282 -0.0409 -0.0949  0.0917
18252TIP3    H176247   6.505   1.443   0.316 -0.0906  1.0506 -0.2898
18252TIP3    H276248   6.631   1.522   0.290  1.5501 -0.8246  1.5478
18253TIP3   OH276249   2.056   0.938   3.632 -0.5258  0.2609  0.4833
18253TIP3    H176250   2.133   0.995   3.633 -0.6044  0.3651  0.6580
18253TIP3    H276251   1.982   0.998   3.621 -0.5163  0.0843 -0.6417
18254TIP3   OH276252   5.333   4.118   0.835 -0.9492 -0.0950 -0.2129
18254TIP3    H176253   5.307   4.046   0.777 -1.8944 -1.3374  1.6497
18254TIP3    H276254   5.414   4.152   0.797 -1.3990 -1.0153 -2.0942
18255TIP3   OH276255   3.342   5.110  14.807 -0.0696 -0.4491  0.5159
18255TIP3    H176256   3.305   5.051  14.873 -0.7390 -0.4263  0.1757
18255TIP3    H276257   3.331   5.197  14.846  1.3129 -0.5607  1.2064
18256TIP3   OH276258   2.721   6.001   0.693  0.1651 -0.1339 -0.2556
18256TIP3    H176259   2.672   6.001   0.611  0.1113  0.4964 -0.2294
18256TIP3    H276260   2.697   5.919   0.736 -0.3725 -0.1269 -0.5361
18257TIP3   OH276261   6.358   1.083  11.991  0.3997  0.4456 -0.2246
18257TIP3    H176262   6.351   1.162  12.043 -0.3226 -0.2952  0.8220
18257TIP3    H276263   6.425   1.031  12.035 -0.1018 -0.1168 -0.1153
18258TIP3   OH276264   2.761   4.412   6.898 -0.2276  0.4615 -0.0957
18258TIP3    H176265   2.785   4.319   6.902 -0.2562  0.4346 -0.5753
18258TIP3    H276266   2.688   4.420   6.960 -0.1077  0.2024  0.0834
18259TIP3   OH276267   6.566   4.131  16.432  0.1338  0.5210  0.3169
18259TIP3    H176268   6.631   4.141  16.502  1.0758 -0.3335 -0.4136
18259TIP3    H276269   6.482   4.127  16.478  0.8325 -1.6456  1.5649
18260TIP3   OH276270   5.905   3.872  13.577 -0.4524  0.3385  0.4705
18260TIP3    H176271   5.852   3.836  13.505  0.7916  0.5258 -0.5708
18260TIP3    H276272   5.877   3.822  13.654 -0.4822 -1.1973 -0.4846
18261TIP3   OH276273   6.465   0.650  16.416 -0.0464 -0.2030 -0.2407
18261TIP3    H176274   6.410   0.670  16.340 -1.3748  2.7758  1.3156
18261TIP3    H276275   6.550   0.688  16.395 -0.6984  1.5476  0.0531
18262TIP3   OH276276   0.506   3.132  13.847  0.0637 -0.2836 -0.1254
18262TIP3    H176277   0.485   3.039  13.848 -1.1750 -0.0180  1.0871
18262TIP3    H276278   0.589   3.137  13.799 -0.1404 -1.9314 -0.7138
18263TIP3   OH276279   2.985   5.506  13.700 -0.2195  0.1047  0.2072
18263TIP3    H176280   2.909   5.533  13.648  0.2538  1.3338  0.1299
18263TIP3    H276281   3.017   5.428  13.655 -0.4289  0.5587 -0.7566
18264TIP3   OH276282   0.757   5.688  15.943  0.0752  0.2801  0.7915
18264TIP3    H176283   0.665   5.704  15.968 -0.0013  1.0600  0.0626
18264TIP3    H276284   0.753   5.610  15.888 -0.3814  1.1812 -0.5035
18265TIP3   OH276285   3.691   3.142  13.066  0.0076  0.0493  0.2806
18265TIP3    H176286   3.624   3.157  13.133  1.3193  1.0493  1.4424
18265TIP3    H276287   3.773   3.140  13.115  0.8819 -0.7186 -1.1479
18266TIP3   OH276288   5.677   1.779   3.633  0.3511  0.0156 -0.1053
18266TIP3    H176289   5.748   1.720   3.657 -0.9152 -1.9426 -0.8848
18266TIP3    H276290   5.664   1.765   3.539 -0.7979  0.6083 -0.0572
18267TIP3   OH276291   4.347   3.464   5.326  0.0803 -0.3879  0.2915
18267TIP3    H176292   4.367   3.462   5.420 -0.2904 -1.4002  0.3579
18267TIP3    H276293   4.427   3.434   5.284  0.8656  1.7332  0.1457
18268TIP3   OH276294   3.225   0.497  15.042  0.5975 -0.0763 -0.0311
18268TIP3    H176295   3.256   0.543  15.120  0.2863 -1.4873  0.9613
18268TIP3    H276296   3.204   0.409  15.073  0.7537 -0.7659 -1.7721
18269TIP3   OH276297   1.115   1.243  17.063  0.8559  0.5414 -0.0440
18269TIP3    H176298   1.098   1.192  16.984 -1.7961 -0.2103  0.8963
18269TIP3    H276299   1.098   1.333  17.038  0.3601  0.3470 -0.4275
18270TIP3   OH276300   3.075   2.987  15.850  0.8820 -1.2918  0.1164
18270TIP3    H176301   3.046   3.078  15.848 -1.5928 -1.9972 -1.9317
18270TIP3    H276302   3.046   2.954  15.935  0.7504 -0.4595  0.4025
18271TIP3   OH276303   6.600   2.979   5.067 -0.0075  0.6127  0.7071
18271TIP3    H176304   6.541   2.958   5.138 -0.6079  2.4223  0.7922
18271TIP3    H276305   6.658   3.046   5.103  0.9039  0.1945  0.0582
18272TIP3   OH276306   5.340   2.875  16.884  0.4818 -0.3898 -0.5993
18272TIP3    H176307   5.383   2.947  16.932 -0.2750 -1.3643  1.6910
18272TIP3    H276308   5.344   2.801  16.945 -3.3354 -0.8603 -0.7102
18273TIP3   OH276309   5.415   3.500   0.658  0.1988  0.1666  0.1435
18273TIP3    H176310   5.461   3.559   0.598 -0.7791  0.9219  0.1072
18273TIP3    H276311   5.483   3.471   0.719  0.8020  0.9716 -0.1233
18274TIP3   OH276312   2.356   1.385  16.659  0.0960 -0.2262 -0.3549
18274TIP3    H176313   2.299   1.382  16.583 -1.2301 -0.4037  0.6103
18274TIP3    H276314   2.299   1.362  16.733  1.4947 -0.7622  0.6009
18275TIP3   OH276315   1.725   2.967  13.651  0.2271 -0.1241 -0.1201
18275TIP3    H176316   1.710   2.935  13.562  2.5285 -0.9372 -0.2844
18275TIP3    H276317   1.659   2.921  13.704 -0.6073 -0.2931 -1.2626
18276TIP3   OH276318   6.522   2.218  16.623  0.3269 -0.0930 -0.1270
18276TIP3    H176319   6.511   2.156  16.551  1.4359  0.4167 -0.7673
18276TIP3    H276320   6.481   2.176  16.698  1.4889 -1.8273 -0.4207
18277TIP3   OH276321   4.830   6.246   6.566 -0.3321  0.7852 -0.1221
18277TIP3    H176322   4.861   6.335   6.545 -2.5315  1.4039 -1.0294
18277TIP3    H276323   4.823   6.203   6.481 -2.4251  0.8725 -0.0353
18278TIP3   OH276324   2.396   4.382  11.598  0.5422  0.6056  0.0894
18278TIP3    H176325   2.394   4.458  11.655  2.8905  1.3126 -0.6254
18278TIP3    H276326   2.326   4.397  11.535  0.6397  1.9397  0.2704
18279TIP3   OH276327   1.322   3.206  11.052  0.0512  0.3706 -0.5342
18279TIP3    H176328   1.375   3.130  11.028 -1.4850 -1.0473  0.3712
18279TIP3    H276329   1.301   3.247  10.968  2.5568  1.0262 -0.9231
18280TIP3   OH276330   5.612   0.841  14.847  0.2889 -0.4334  0.2540
18280TIP3    H176331   5.657   0.847  14.931  1.9079 -3.4710 -0.2537
18280TIP3    H276332   5.519   0.853  14.869  0.6449 -1.3199  2.5288
18281TIP3   OH276333   3.519   5.881   2.044  0.0716 -0.1424  0.1726
18281TIP3    H176334   3.444   5.891   2.103  0.2662  1.2743  0.2279
18281TIP3    H276335   3.484   5.838   1.967 -0.6029 -0.3252  0.5727
18282TIP3   OH276336   1.923   5.670  14.630  0.1875  0.2317 -0.0040
18282TIP3    H176337   1.996   5.686  14.691 -0.0838  0.1995  0.3294
18282TIP3    H276338   1.863   5.744  14.645 -0.3770 -0.3198  0.5073
18283TIP3   OH276339   3.197   1.754  15.519  0.0093  0.9085  0.2146
18283TIP3    H176340   3.145   1.679  15.549 -1.0856  0.4550 -2.4584
18283TIP3    H276341   3.134   1.825  15.512 -0.1530  0.6216 -2.1185
18284TIP3   OH276342   2.482   5.089  15.619  0.2915 -0.0623 -0.2011
18284TIP3    H176343   2.542   5.154  15.582 -0.8399  0.4734 -1.1591
18284TIP3    H276344   2.511   5.079  15.710  0.5501  1.7325 -0.0426
18285TIP3   OH276345   3.954   6.114   0.274 -0.3013  0.0383  0.0343
18285TIP3    H176346   3.934   6.025   0.245 -3.2303  0.9136 -0.9905
18285TIP3    H276347   3.976   6.162   0.193  0.7122  0.4090  0.5062
18286TIP3   OH276348   4.850   4.330   4.564  0.2019  0.1311  0.1895
18286TIP3    H176349   4.795   4.262   4.525 -1.5922  1.5540  0.1119
18286TIP3    H276350   4.805   4.354   4.645 -0.1580  2.3693 -0.6127
18287TIP3   OH276351   0.335   2.199  11.019 -0.2804 -0.0081 -0.0129
18287TIP3    H176352   0.250   2.228  11.053 -1.8258 -1.3993 -2.4145
18287TIP3    H276353   0.316   2.119  10.970  2.5917 -0.8772  0.0731
18288TIP3   OH276354   4.179   0.898  14.128 -0.5378  0.0630  0.0863
18288TIP3    H176355   4.100   0.875  14.079 -0.7953 -0.1029  0.5826
18288TIP3    H276356   4.239   0.933  14.061 -1.0628  0.2772 -0.2731
18289TIP3   OH276357   5.850   6.203   5.812 -0.6959 -0.0942 -0.5935
18289TIP3    H176358   5.784   6.256   5.858  0.4914 -0.3331  1.5220
18289TIP3    H276359   5.833   6.114   5.842  0.7861 -0.1061  0.3017
18290TIP3   OH276360   3.019   6.009   3.692 -0.0039  0.1082  0.1909
18290TIP3    H176361   3.044   5.925   3.654 -0.5588 -0.1578  0.4088
18290TIP3    H276362   2.940   6.035   3.645 -1.2096 -0.6473  1.7195
18291TIP3   OH276363   4.004   3.748  12.899  0.3184 -0.2850  0.2637
18291TIP3    H176364   3.994   3.653  12.894  0.0971 -0.2102 -1.1750
18291TIP3    H276365   3.981   3.779  12.812  2.3889  0.9207  0.0824
18292TIP3   OH276366   3.087   6.509   3.214  0.1651 -0.0056 -0.4978
18292TIP3    H176367   2.993   6.492   3.221  0.3564 -0.9814 -0.0877
18292TIP3    H276368   3.106   6.566   3.289  0.1501 -1.0272  0.3059
18293TIP3   OH276369   6.068   4.325  11.004  0.5694 -0.2673  0.7127
18293TIP3    H176370   6.002   4.269  10.965 -0.7312  0.3571  1.9133
18293TIP3    H276371   6.104   4.376  10.931 -3.0246  2.1723  0.3908
18294TIP3   OH276372   1.524   3.628   0.168  0.0450 -0.2221  0.7898
18294TIP3    H176373   1.601   3.683   0.181 -1.5522  2.0291  1.2081
18294TIP3    H276374   1.498   3.644   0.077 -1.6612  1.4776  1.5201
18295TIP3   OH276375   1.667   0.891  12.679  0.0139 -0.1512  0.5557
18295TIP3    H176376   1.631   0.955  12.618 -0.2929 -1.1204 -0.3025
18295TIP3    H276377   1.645   0.806  12.641  0.2446 -0.7803  1.7631
18296TIP3   OH276378   4.080   1.175  12.996 -0.7480  0.2256  1.1139
18296TIP3    H176379   4.048   1.249  12.944 -1.0380  0.4593  1.6180
18296TIP3    H276380   4.000   1.131  13.027 -0.5758  0.0196  1.2693
18297TIP3   OH276381   4.045   0.304   4.648 -0.0165  0.0110  0.1138
18297TIP3    H176382   4.006   0.390   4.662  1.0926  0.3864  1.0351
18297TIP3    H276383   4.009   0.275   4.564 -1.5305  0.7279  0.4678
18298TIP3   OH276384   2.325   6.131   0.316  0.0075 -0.1623  0.1679
18298TIP3    H176385   2.337   6.169   0.403 -0.1281  0.4464 -0.0745
18298TIP3    H276386   2.363   6.196   0.256  1.2377 -1.1223 -0.1561
18299TIP3   OH276387   2.417   5.477   5.993  0.4790 -0.4781  0.1875
18299TIP3    H176388   2.501   5.453   6.032 -0.7674 -4.1799  1.0342
18299TIP3    H276389   2.356   5.409   6.023 -2.4513  1.0659 -1.7325
18300TIP3   OH276390   0.287   3.076   3.364 -0.3154  0.4634 -0.3643
18300TIP3    H176391   0.297   3.165   3.330  1.5194  0.6222  0.4589
18300TIP3    H276392   0.246   3.087   3.450  2.0484  0.7938  0.7970
18301TIP3   OH276393   3.769   5.225   0.046  0.1029  0.1965 -0.1364
18301TIP3    H176394   3.745   5.186  -0.039 -1.6722  0.1120  0.3630
18301TIP3    H276395   3.715   5.304   0.052  0.1476  0.1528  0.9551
18302TIP3   OH276396   6.590   5.329   5.248  0.4852  0.1287  0.4828
18302TIP3    H176397   6.620   5.252   5.297  0.7482  0.4345  0.8060
18302TIP3    H276398   6.542   5.292   5.173  0.1471 -0.3481  0.9209
18303TIP3   OH276399   4.037   1.580  14.118 -0.6938 -0.7837 -0.3147
18303TIP3    H176400   4.057   1.500  14.166 -1.9564 -0.0575  1.5359
18303TIP3    H276401   4.092   1.647  14.159 -0.4708 -0.4666 -1.0975
18304TIP3   OH276402   4.659   1.786  16.435 -0.8376 -0.0411  0.1007
18304TIP3    H176403   4.701   1.853  16.380  0.1617  0.6042  1.5807
18304TIP3    H276404   4.597   1.835  16.489 -0.0731 -0.2860  1.2211
18305TIP3   OH276405   0.184   2.044  17.109  0.1775  0.4098  0.4363
18305TIP3    H176406   0.249   2.101  17.149 -0.4137  0.8917  0.7246
18305TIP3    H276407   0.216   2.029  17.020  1.1481 -0.1175  0.8578
18306TIP3   OH276408   6.119   4.428   4.545 -0.9206  0.1427 -0.3542
18306TIP3    H176409   6.206   4.453   4.575 -1.4134  1.9804 -0.3398
18306TIP3    H276410   6.107   4.476   4.463 -1.5145 -0.9477 -0.9372
18307TIP3   OH276411   4.846   4.568   2.454 -0.3737  0.0960 -0.2505
18307TIP3    H176412   4.905   4.568   2.529  0.7827  0.6312 -1.1259
18307TIP3    H276413   4.784   4.638   2.472  0.9716  1.4238 -0.5681
18308TIP3   OH276414   3.043   5.763  13.368 -0.1896 -0.0582 -0.0110
18308TIP3    H176415   2.984   5.769  13.293 -0.9663  0.1115  0.5994
18308TIP3    H276416   3.116   5.710  13.337 -0.7462 -0.4140 -0.7401
18309TIP3   OH276417   2.109   5.577  13.870  0.1803  0.1497  0.4571
18309TIP3    H176418   2.071   5.515  13.808 -0.9000  0.2664  0.9712
18309TIP3    H276419   2.047   5.650  13.872  0.6359  0.5287  1.0324
18310TIP3   OH276420   0.011   4.241   2.369 -0.1369 -0.2197 -0.6443
18310TIP3    H176421   0.043   4.161   2.327 -2.5067 -1.4574 -0.3048
18310TIP3    H276422  -0.017   4.296   2.296  0.7754 -0.0161 -0.8511
18311TIP3   OH276423   0.191   0.085  16.285 -0.1131  0.1643 -0.0897
18311TIP3    H176424   0.150   0.144  16.348  1.2402  0.8271  0.2051
18311TIP3    H276425   0.255   0.035  16.336 -0.6034 -0.9371 -0.5081
18312TIP3   OH276426   0.443   6.013   0.162 -0.1267  0.6168  0.1894
18312TIP3    H176427   0.447   6.066   0.083 -0.8772  1.7806  0.8995
18312TIP3    H276428   0.451   5.923   0.131  0.0773  1.0728 -1.1518
18313TIP3   OH276429   0.381   0.982   5.295  0.3342  0.0114 -0.1388
18313TIP3    H176430   0.449   0.935   5.248  0.9446  1.7291 -1.0553
18313TIP3    H276431   0.414   0.989   5.385  1.0062  0.1610 -0.3925
18314TIP3   OH276432   6.792   0.615  15.344  0.1046 -0.2648 -0.3048
18314TIP3    H176433   6.856   0.685  15.358  0.9633 -0.6911 -1.9017
18314TIP3    H276434   6.714   0.661  15.312  1.0541 -0.0724 -2.5291
18315TIP3   OH276435   2.178   3.291  12.137  0.6085  0.4647 -0.2316
18315TIP3    H176436   2.121   3.335  12.199  0.7542  0.9547 -0.4373
18315TIP3    H276437   2.180   3.200  12.166 -1.2516  0.1598 -0.9208
18316TIP3   OH276438   6.374   6.044  10.699 -0.1172 -0.2740 -0.4107
18316TIP3    H176439   6.360   5.984  10.772 -1.5130 -0.3835 -0.7236
18316TIP3    H276440   6.402   5.988  10.626  3.2553  0.0581  0.4794
18317TIP3   OH276441   3.012   3.845   0.287 -0.0483 -0.2947  0.0068
18317TIP3    H176442   3.010   3.923   0.231 -0.2840 -0.8805 -0.8291
18317TIP3    H276443   2.920   3.828   0.307  0.0599  0.1012  0.8500
18318TIP3   OH276444   1.702   6.242  14.210  0.3445  0.0343 -0.3360
18318TIP3    H176445   1.680   6.149  14.217 -2.5899  0.6493  0.0459
18318TIP3    H276446   1.651   6.273  14.135 -1.0592  1.8582  1.2782
18319TIP3   OH276447   2.397   2.823   3.455  0.0267  0.1393 -0.4736
18319TIP3    H176448   2.428   2.817   3.545  2.0215  1.2337 -1.0148
18319TIP3    H276449   2.364   2.913   3.448 -0.7259 -0.1523 -0.6596
18320TIP3   OH276450   4.690   5.937   2.173  0.5967 -0.5290  0.3101
18320TIP3    H176451   4.721   5.993   2.244  0.2055  0.8159 -0.5200
18320TIP3    H276452   4.732   5.973   2.095 -0.4053 -0.7950 -0.3761
18321TIP3   OH276453   2.099   3.270   3.287  0.4033 -0.1700 -0.0531
18321TIP3    H176454   2.021   3.292   3.338  1.3962  0.8770  1.0839
18321TIP3    H276455   2.142   3.355   3.273  2.2098 -0.8890  0.8230
18322TIP3   OH276456   2.013   2.511   3.745 -0.5512 -0.0054  0.6454
18322TIP3    H176457   2.050   2.581   3.799  2.5396 -2.1346  1.5600
18322TIP3    H276458   2.026   2.541   3.655  0.0927  0.8922  1.0133
18323TIP3   OH276459   1.546   3.608  11.961  1.3420 -0.3322 -0.3126
18323TIP3    H176460   1.557   3.514  11.971  1.0240 -0.4377 -0.9158
18323TIP3    H276461   1.526   3.640  12.049 -1.8722 -1.2687 -0.6084
18324TIP3   OH276462   4.751   6.213  10.519  0.1254  0.3896 -0.2587
18324TIP3    H176463   4.794   6.175  10.443 -0.0569 -0.9205  0.2624
18324TIP3    H276464   4.823   6.240  10.577  0.2830 -0.9357  0.1976
18325TIP3   OH276465   2.524   4.193   0.902  0.2407 -0.1570  0.2848
18325TIP3    H176466   2.517   4.281   0.938  0.8461  0.8775 -1.9309
18325TIP3    H276467   2.434   4.163   0.892  0.0421 -0.8104  3.1944
18326TIP3   OH276468   6.493   5.679   1.297 -0.2830  0.7502  0.0053
18326TIP3    H176469   6.425   5.617   1.272 -0.8614  0.8874  1.1801
18326TIP3    H276470   6.571   5.624   1.311 -0.7905  0.2650  1.0469
18327TIP3   OH276471   4.810   1.102  15.209  0.4124 -0.3338  0.4452
18327TIP3    H176472   4.801   1.088  15.304  0.5431  1.1000  0.7004
18327TIP3    H276473   4.724   1.079  15.173  0.4523 -1.1790  0.8643
18328TIP3   OH276474   5.083   0.197   0.855  0.0563 -0.1376 -0.2700
18328TIP3    H176475   5.154   0.171   0.797  0.5134 -0.8056  0.5665
18328TIP3    H276476   5.126   0.237   0.930 -0.4058 -0.9439  0.4495
18329TIP3   OH276477   3.325   3.482   4.437  0.0514 -0.3083  0.1042
18329TIP3    H176478   3.308   3.408   4.379 -1.7232 -1.2426  1.7230
18329TIP3    H276479   3.396   3.451   4.494  0.5844 -0.0373 -0.3952
18330TIP3   OH276480   2.504   2.736  16.631  0.0635 -0.4132 -0.0155
18330TIP3    H176481   2.539   2.728  16.542  0.0721 -1.8236  0.0960
18330TIP3    H276482   2.521   2.651  16.672  1.3527  0.6581  1.8192
18331TIP3   OH276483   4.516   5.343  14.733  0.0452  0.0037  0.0072
18331TIP3    H176484   4.466   5.424  14.725  2.6994  1.8434  0.4745
18331TIP3    H276485   4.561   5.335  14.649 -0.1774 -1.0007 -0.0254
18332TIP3   OH276486   1.410   3.880   0.367  0.2849 -0.5295  0.4183
18332TIP3    H176487   1.505   3.895   0.368  0.5212 -1.8684  0.0905
18332TIP3    H276488   1.391   3.843   0.454  0.1708 -0.8531  0.2555
18333TIP3   OH276489   1.922   3.430  13.471  0.3494 -0.1434  0.3382
18333TIP3    H176490   1.913   3.440  13.565  2.3220  1.8210  0.4016
18333TIP3    H276491   1.991   3.365  13.460  2.4095  1.9106  0.4029
18334TIP3   OH276492   6.199   6.566  16.255  0.2902 -1.0953  0.2994
18334TIP3    H176493   6.213   6.661  16.263 -2.2193 -0.7965  2.7174
18334TIP3    H276494   6.277   6.527  16.294  1.6379 -0.1217 -1.2692
18335TIP3   OH276495   5.944   0.210   1.636  0.1484  0.5757  0.1490
18335TIP3    H176496   5.878   0.161   1.685  0.2817 -0.7939 -0.9867
18335TIP3    H276497   6.028   0.177   1.669  0.2464  0.7720  0.0963
18336TIP3   OH276498   5.168   3.066   5.530  0.2139 -0.1497 -0.6384
18336TIP3    H176499   5.175   3.157   5.499  0.0105  0.6882  1.5720
18336TIP3    H276500   5.075   3.045   5.521  0.1335  0.1395 -0.5312
18337TIP3   OH276501   4.860   5.029   5.542 -0.0730  0.1712 -0.2530
18337TIP3    H176502   4.801   5.095   5.506 -2.1033 -1.3071  0.1735
18337TIP3    H276503   4.840   5.026   5.636  0.5470 -0.4957 -0.1272
18338TIP3   OH276504   5.253   2.302   0.417 -0.0117  0.5741  0.2301
18338TIP3    H176505   5.251   2.383   0.367 -1.2860  0.8909  0.7669
18338TIP3    H276506   5.275   2.235   0.352 -0.0407  1.1917 -0.4322
18339TIP3   OH276507   6.619   2.593   1.473 -0.7319 -0.5802 -0.4216
18339TIP3    H176508   6.683   2.642   1.421  0.4290 -0.5811  0.9437
18339TIP3    H276509   6.534   2.630   1.450 -0.1266  0.2191 -1.4072
18340TIP3   OH276510   1.261   4.242  12.842  0.5345 -0.4245 -0.0883
18340TIP3    H176511   1.309   4.209  12.766  2.9990  0.2240  1.0938
18340TIP3    H276512   1.283   4.335  12.846  0.4221 -0.4375  1.3943
18341TIP3   OH276513   4.696   6.634  15.919  0.4526  0.3284  0.0095
18341TIP3    H176514   4.686   6.540  15.927 -1.3665  0.4594 -0.3575
18341TIP3    H276515   4.699   6.666  16.009 -2.2563  0.1730  0.2442
18342TIP3   OH276516   1.751   5.981  13.862  0.2340  0.2863  0.2531
18342TIP3    H176517   1.758   6.073  13.837  1.2436 -0.5942 -3.3537
18342TIP3    H276518   1.685   5.945  13.803  0.3310 -1.4411  1.1379
18343TIP3   OH276519   5.114   6.480  15.200  0.0863 -0.1353  0.3204
18343TIP3    H176520   5.174   6.540  15.156 -0.5749  0.3388  0.0527
18343TIP3    H276521   5.170   6.408  15.230  0.7754  0.2684  0.0266
18344TIP3   OH276522   3.076   1.668   5.628 -0.7882 -0.5754 -0.2312
18344TIP3    H176523   3.100   1.576   5.645  2.4761  0.3232  0.7254
18344TIP3    H276524   3.114   1.687   5.543 -2.1454 -0.2573 -0.7947
18345TIP3   OH276525   0.750   3.565  14.804  0.1540  0.2616 -0.1672
18345TIP3    H176526   0.666   3.559  14.759  0.7172  0.9020 -1.3680
18345TIP3    H276527   0.733   3.532  14.892 -1.4363  0.7219 -0.2734
18346TIP3   OH276528   4.023   0.258   1.233 -0.1544 -0.0474 -0.5900
18346TIP3    H176529   4.006   0.301   1.149  0.3876  1.3173 -0.0242
18346TIP3    H276530   4.118   0.246   1.235 -0.2338 -0.6615 -0.4518
18347TIP3   OH276531   1.491   6.267  11.521 -0.6514 -0.2591  0.2163
18347TIP3    H176532   1.461   6.177  11.509 -0.6284 -0.3931  1.1278
18347TIP3    H276533   1.414   6.321  11.503 -1.3206 -0.5742  1.9484
18348TIP3   OH276534   3.299   5.657   2.399  0.3812  0.1642 -0.3426
18348TIP3    H176535   3.228   5.657   2.335  2.1129  3.1356 -2.5446
18348TIP3    H276536   3.360   5.591   2.366 -0.5828 -1.3113  0.7093
18349TIP3   OH276537   2.806   4.867   5.368  0.2510  0.5516  0.3055
18349TIP3    H176538   2.754   4.903   5.440  0.6305  1.3252  0.1942
18349TIP3    H276539   2.839   4.943   5.321  1.7269  0.0965  0.5432
18350TIP3   OH276540   6.718   3.054  15.575 -0.0311  0.1589 -0.5864
18350TIP3    H176541   6.797   3.062  15.628  0.0262  0.9996 -0.7752
18350TIP3    H276542   6.715   2.963  15.548 -0.0575 -0.2882  0.8522
18351TIP3   OH276543   6.575   4.202  11.554  0.2116 -0.3509  0.2425
18351TIP3    H176544   6.563   4.297  11.547  0.9404 -0.2935 -0.4370
18351TIP3    H276545   6.491   4.165  11.527 -0.1082  0.1015  0.6014
18352TIP3   OH276546   3.367   3.542   3.101  0.8136  0.2902  0.8181
18352TIP3    H176547   3.421   3.550   3.022 -1.1914  0.3129 -0.6190
18352TIP3    H276548   3.354   3.632   3.130  1.8806  0.2614  1.4582
18353TIP3   OH276549   5.613   2.526   1.171 -0.6893  0.2328 -0.1432
18353TIP3    H176550   5.566   2.605   1.145 -2.8823 -0.1650  2.1908
18353TIP3    H276551   5.669   2.555   1.243 -1.2628 -0.2401  0.5058
18354TIP3   OH276552   6.564   6.570   6.153  0.0306  0.2561 -0.0782
18354TIP3    H176553   6.548   6.583   6.247 -1.2739  1.2775 -0.4116
18354TIP3    H276554   6.580   6.476   6.144  0.8294  0.2369  1.2486
18355TIP3   OH276555   4.825   3.906   5.175 -1.0861 -0.0275 -0.5931
18355TIP3    H176556   4.890   3.914   5.244 -0.9340 -1.9360 -0.4655
18355TIP3    H276557   4.782   3.992   5.172  0.3506  0.7660  0.3791
18356TIP3   OH276558   0.925   0.443  14.368  0.2142  0.3034 -0.1597
18356TIP3    H176559   0.954   0.392  14.292 -0.2855  2.2164 -1.6835
18356TIP3    H276560   1.006   0.458  14.418  0.8221  0.3166 -1.1134
18357TIP3   OH276561   4.819   1.493  11.253  0.1681 -0.2262  0.1613
18357TIP3    H176562   4.735   1.525  11.288  0.9404  0.5710  1.3581
18357TIP3    H276563   4.806   1.489  11.159 -0.2138  3.0206 -0.0399
18358TIP3   OH276564   2.198   0.545   4.908 -0.4069 -0.0908  0.9887
18358TIP3    H176565   2.169   0.459   4.877  1.4521 -1.0648  1.8036
18358TIP3    H276566   2.290   0.533   4.931  0.4727  2.6098 -0.6389
18359TIP3   OH276567   5.563   3.693   1.847  0.8994  0.4529 -0.5444
18359TIP3    H176568   5.490   3.693   1.909  1.1751 -2.2387 -0.1205
18359TIP3    H276569   5.626   3.755   1.885  0.0244  0.6961  0.5709
18360TIP3   OH276570   3.704   5.225   0.345  0.1776 -0.1044  0.0834
18360TIP3    H176571   3.757   5.154   0.308  1.2766 -0.0328  1.4320
18360TIP3    H276572   3.724   5.301   0.290  0.3029 -0.4378 -0.3370
18361TIP3   OH276573   3.196   1.753  10.634  0.2252  0.6391  0.1183
18361TIP3    H176574   3.252   1.762  10.557  0.9058 -2.5823  0.0947
18361TIP3    H276575   3.244   1.799  10.704 -0.3327  3.4681 -1.1976
18362TIP3   OH276576   6.832   5.735   1.028  0.6811 -0.4873 -0.3731
18362TIP3    H176577   6.871   5.668   0.972  0.9073 -1.5760  1.0245
18362TIP3    H276578   6.878   5.726   1.112 -0.0174  0.7165  0.1730
18363TIP3   OH276579   6.288   5.682  12.501 -0.0452  0.1557 -0.0004
18363TIP3    H176580   6.362   5.726  12.457 -0.3451  0.3079 -0.3634
18363TIP3    H276581   6.302   5.699  12.594  0.1752  0.5021 -0.0943
18364TIP3   OH276582   3.412   2.010  10.455  0.5721  0.0159 -0.5982
18364TIP3    H176583   3.329   2.057  10.464  0.5514  0.4368 -2.5683
18364TIP3    H276584   3.462   2.035  10.532 -0.4986  1.0589 -0.2135
18365TIP3   OH276585   5.758   4.716  14.104  0.5113 -0.5560  0.5577
18365TIP3    H176586   5.773   4.636  14.154 -0.1036  0.3312  2.2245
18365TIP3    H276587   5.825   4.777  14.135  0.1132  0.0205  0.3041
18366TIP3   OH276588   0.893   2.055  14.844 -0.2158 -0.0280  0.9809
18366TIP3    H176589   0.927   2.144  14.854  1.7200 -0.6511  0.4076
18366TIP3    H276590   0.925   2.008  14.921 -2.4185  0.0581  2.0183
18367TIP3   OH276591   5.849   3.672  14.883  0.2666 -0.1332  0.4677
18367TIP3    H176592   5.886   3.597  14.930 -0.0058  0.4097  1.5988
18367TIP3    H276593   5.794   3.633  14.815  1.5973 -0.9403 -0.1767
18368TIP3   OH276594   3.557   5.913  12.513 -0.1179 -0.5946  0.1116
18368TIP3    H176595   3.601   5.852  12.454 -0.9747 -0.5135 -0.6197
18368TIP3    H276596   3.616   5.920  12.589  2.4199  1.3793 -1.8435
18369TIP3   OH276597   3.929   3.864  12.498  0.2504  0.2757  0.1266
18369TIP3    H176598   3.869   3.795  12.468 -1.1922  0.8320  1.5618
18369TIP3    H276599   3.901   3.942  12.450 -1.8039  1.0763  2.4006
18370TIP3   OH276600   2.553   4.451  13.276 -0.0229 -0.2608  0.2372
18370TIP3    H176601   2.590   4.370  13.240 -0.2620  0.0488 -0.7392
18370TIP3    H276602   2.497   4.421  13.348  1.1082 -0.8244  0.9105
18371TIP3   OH276603   4.461   2.835  14.237 -0.4701  0.1609  0.0006
18371TIP3    H176604   4.482   2.768  14.173 -0.0501 -0.2543  0.5658
18371TIP3    H276605   4.388   2.883  14.198 -0.8429 -0.6842 -0.3701
18372TIP3   OH276606   3.103   6.407   5.463 -0.2586 -0.6911  0.1274
18372TIP3    H176607   3.034   6.415   5.529 -0.3349  1.1543 -0.1141
18372TIP3    H276608   3.154   6.330   5.491 -0.8649 -0.5389  1.7817
18373TIP3   OH276609   6.396   1.170   5.825 -0.1909  0.3189  0.5029
18373TIP3    H176610   6.405   1.129   5.739  1.2087  1.8571 -0.1358
18373TIP3    H276611   6.302   1.180   5.837 -0.6970 -3.4437  0.9577
18374TIP3   OH276612   1.679   4.409  11.458  0.0323  0.0013 -0.2589
18374TIP3    H176613   1.612   4.367  11.513  0.2434 -1.4672 -1.0750
18374TIP3    H276614   1.761   4.370  11.487 -0.0431 -2.6814 -3.1000
18375TIP3   OH276615   5.301   2.809  17.197  0.1733 -0.0471 -0.6331
18375TIP3    H176616   5.238   2.879  17.182 -0.7685 -0.9470 -1.0018
18375TIP3    H276617   5.254   2.744  17.249  1.0842 -0.3406 -0.1475
18376TIP3   OH276618   2.356   6.118  16.139 -0.0128  0.0090 -0.0458
18376TIP3    H176619   2.444   6.147  16.165  1.1633 -3.5855  0.5201
18376TIP3    H276620   2.334   6.050  16.202 -1.4098 -2.0187 -2.5501
18377TIP3   OH276621   2.827   6.441  15.265 -0.3428 -0.6182 -0.4487
18377TIP3    H176622   2.869   6.494  15.332  0.5085 -1.8605  0.0317
18377TIP3    H276623   2.768   6.383  15.314 -0.2767 -1.0170 -0.8352
18378TIP3   OH276624   4.688   6.526   5.378  0.0759 -0.2333  0.2877
18378TIP3    H176625   4.702   6.574   5.296 -0.2903  0.5350  0.6710
18378TIP3    H276626   4.633   6.451   5.352  2.7366 -1.9645 -0.7845
18379TIP3   OH276627   4.220   2.013   5.327 -0.4543  0.0376 -0.0696
18379TIP3    H176628   4.157   2.005   5.256  0.4602  3.0175 -1.3636
18379TIP3    H276629   4.231   2.107   5.340  1.1283 -0.3970  2.4887
18380TIP3   OH276630   3.217   3.218  14.481  0.4532  0.2018 -0.4830
18380TIP3    H176631   3.282   3.208  14.551 -0.7085 -0.7709  0.5098
18380TIP3    H276632   3.211   3.130  14.442 -0.8264  0.0455 -0.0049
18381TIP3   OH276633   4.030   4.130   5.888 -0.5484  0.4425  0.3918
18381TIP3    H176634   4.113   4.174   5.870 -2.0651  2.4795 -2.3896
18381TIP3    H276635   3.966   4.178   5.836 -3.1707 -2.2625  0.8823
18382TIP3   OH276636   4.271   6.086   4.635  0.2060 -0.3796  0.0887
18382TIP3    H176637   4.224   6.048   4.709 -1.0108 -0.7498 -0.8649
18382TIP3    H276638   4.356   6.041   4.635  0.4734  0.0368  1.5872
18383TIP3   OH276639   1.134   0.752   4.475 -0.5189 -0.3119 -0.2419
18383TIP3    H176640   1.088   0.834   4.492 -1.0910 -0.4548 -1.0149
18383TIP3    H276641   1.073   0.684   4.505 -0.0787 -0.4545  0.3266
18384TIP3   OH276642   2.642   5.941  14.414 -0.1844  0.1616  0.0071
18384TIP3    H176643   2.570   5.891  14.453 -0.4303 -0.1617 -0.8239
18384TIP3    H276644   2.705   5.874  14.387 -0.6882  0.2409 -1.4621
18385TIP3   OH276645   5.152   2.483  16.704 -0.0690  0.6491  0.0011
18385TIP3    H176646   5.118   2.509  16.619 -0.1307  0.2209 -0.1089
18385TIP3    H276647   5.245   2.467  16.689 -0.0587  0.6751  0.0357
18386TIP3   OH276648   2.359   3.352   5.615  0.1674 -0.3249 -0.6637
18386TIP3    H176649   2.409   3.396   5.684 -0.1231 -0.6516 -0.2433
18386TIP3    H276650   2.330   3.423   5.558  0.3331 -0.0436 -0.4030
18387TIP3   OH276651   3.878   0.978  13.207  0.5487  0.2646  0.2750
18387TIP3    H176652   3.792   0.976  13.247  0.4157  0.0340 -0.0207
18387TIP3    H276653   3.925   1.048  13.253  0.5055 -0.2163  1.0520
18388TIP3   OH276654   0.902   3.544   4.761 -0.0668 -0.6856 -0.0126
18388TIP3    H176655   0.902   3.640   4.759 -0.8744 -0.6416  1.1138
18388TIP3    H276656   0.974   3.519   4.703  0.4314  0.6103  0.0037
18389TIP3   OH276657   2.413   6.606  10.986  0.0306 -0.0532 -0.0459
18389TIP3    H176658   2.348   6.556  10.934  1.0792 -0.4777 -0.9937
18389TIP3    H276659   2.492   6.552  10.983  0.6439  0.8016  0.4904
18390TIP3   OH276660   0.109   5.676   5.753 -1.0152 -1.3820 -0.0130
18390TIP3    H176661   0.032   5.719   5.789 -0.1379  0.4144 -0.1774
18390TIP3    H276662   0.126   5.603   5.813 -0.7045  0.3982  2.1983
18391TIP3   OH276663   0.864   3.181   6.363 -0.0619 -0.4519 -0.3816
18391TIP3    H176664   0.785   3.227   6.335 -1.2579 -0.0739  3.0632
18391TIP3    H276665   0.914   3.248   6.411  0.5666 -1.5567  0.5489
18392TIP3   OH276666   3.384   4.898   3.601  0.1463  0.4830 -0.4958
18392TIP3    H176667   3.451   4.831   3.614  1.1455  1.2808 -1.3680
18392TIP3    H276668   3.312   4.852   3.558 -0.1031 -0.4928  0.9052
18393TIP3   OH276669   5.022   3.290   2.513 -0.5551  0.3981  0.5366
18393TIP3    H176670   5.023   3.285   2.608  0.8035 -1.9272  0.4706
18393TIP3    H276671   5.042   3.201   2.484 -3.5083  0.3741 -1.9779
18394TIP3   OH276672   0.351   5.541   2.808 -0.3117 -0.0066  0.0113
18394TIP3    H176673   0.266   5.559   2.849 -0.4489 -0.3303 -0.1306
18394TIP3    H276674   0.335   5.549   2.714  0.4665  2.8463  0.0185
18395TIP3   OH276675   0.959   4.454  16.788 -0.4642 -0.0606 -0.1596
18395TIP3    H176676   0.964   4.527  16.850  1.3522 -0.3808  0.1255
18395TIP3    H276677   1.049   4.440  16.761  0.2066 -5.1172  3.3173
18396TIP3   OH276678   1.240   4.756   6.163 -0.0958 -0.3645  0.2357
18396TIP3    H176679   1.204   4.840   6.192  0.1187 -0.1276 -0.1755
18396TIP3    H276680   1.306   4.734   6.229  0.0962 -0.0381  0.1501
18397TIP3   OH276681   3.704   4.519   1.166  0.1440 -0.6878  0.6054
18397TIP3    H176682   3.657   4.596   1.136  1.2737  0.1226  0.8837
18397TIP3    H276683   3.729   4.473   1.086 -0.0405 -0.4800  0.4257
18398TIP3   OH276684   1.209   1.739   1.205 -0.0497  0.1162 -0.4147
18398TIP3    H176685   1.141   1.708   1.265  0.1648  1.1843  0.3934
18398TIP3    H276686   1.185   1.829   1.185  0.3538  0.0453 -1.2648
18399TIP3   OH276687   1.335   4.831   5.220  0.2789 -0.2721 -0.3126
18399TIP3    H176688   1.314   4.888   5.294 -0.1598 -0.5459 -0.2211
18399TIP3    H276689   1.380   4.756   5.260  0.2695 -0.2998 -0.3543
18400TIP3   OH276690   0.059   1.795   4.183 -0.6143  0.2271  0.0298
18400TIP3    H176691   0.062   1.767   4.092 -0.7891  1.7657 -0.4868
18400TIP3    H276692   0.109   1.877   4.184 -2.3271  1.3089  0.8740
18401TIP3   OH276693   5.622   5.287   2.833  0.6192  0.3753  0.1743
18401TIP3    H176694   5.605   5.375   2.797  2.7149  1.2958  1.2177
18401TIP3    H276695   5.713   5.269   2.808  0.1731 -1.6376 -0.1820
18402TIP3   OH276696   5.572   4.692   3.449  0.0792  0.3463 -0.5442
18402TIP3    H176697   5.567   4.733   3.363  2.6772 -0.3626 -1.0985
18402TIP3    H276698   5.549   4.763   3.510  0.0334  1.3662 -1.7048
18403TIP3   OH276699   5.796   0.838   5.078 -0.3176  0.1624  0.0094
18403TIP3    H176700   5.876   0.801   5.042 -0.0323  0.7797 -0.0125
18403TIP3    H276701   5.821   0.926   5.107 -1.1031  0.5711 -0.5076
18404TIP3   OH276702   4.438   0.432  15.999 -0.4547 -0.3580  0.2525
18404TIP3    H176703   4.447   0.473  16.085  0.1527  1.4045 -0.5861
18404TIP3    H276704   4.361   0.474  15.960  0.0905 -0.0749 -0.5703
18405TIP3   OH276705   6.088   3.678   4.162  0.8379 -0.2983 -0.2947
18405TIP3    H176706   6.018   3.719   4.111 -1.1381 -0.4039  2.1005
18405TIP3    H276707   6.150   3.749   4.179  0.4217  0.2562 -1.0105
18406TIP3   OH276708   4.663   4.038  16.252 -0.8109 -0.7163  0.1554
18406TIP3    H176709   4.664   4.001  16.164 -0.2269 -2.9734  1.0511
18406TIP3    H276710   4.583   4.003  16.293 -0.2009 -1.1057  1.0580
18407TIP3   OH276711   1.119   2.065   3.209 -0.5970 -0.2241 -0.2138
18407TIP3    H176712   1.033   2.092   3.242 -0.8610 -0.2614 -0.8592
18407TIP3    H276713   1.155   2.144   3.168  0.2645  0.1703  1.2063
18408TIP3   OH276714   3.333   5.664  11.757 -0.0144  0.6156  0.2169
18408TIP3    H176715   3.424   5.692  11.755  0.8918 -1.9397  1.5828
18408TIP3    H276716   3.323   5.608  11.680 -0.3882  0.7470  0.1667
18409TIP3   OH276717   4.045   3.818   3.972 -0.0728 -0.4516 -0.1881
18409TIP3    H176718   4.027   3.868   3.892  1.4965 -0.9591 -0.8940
18409TIP3    H276719   3.984   3.745   3.969 -0.1214 -0.3931 -0.8696
18410TIP3   OH276720   0.389   3.961   2.295  0.0964 -0.0208  0.2980
18410TIP3    H176721   0.472   4.002   2.269 -0.5561  0.9617 -0.3195
18410TIP3    H276722   0.373   3.995   2.383  0.4556 -0.3924  0.5109
18411TIP3   OH276723   5.255   0.403  17.013  0.1108 -0.3781 -0.1758
18411TIP3    H176724   5.341   0.424  17.050 -0.0434  0.2645 -0.1760
18411TIP3    H276725   5.194   0.461  17.058 -0.0935  0.3480 -1.3471
18412TIP3   OH276726   5.115   5.328   4.554 -0.1664 -0.3729 -0.7733
18412TIP3    H176727   5.126   5.249   4.501 -3.6909 -1.5022 -0.1178
18412TIP3    H276728   5.032   5.314   4.600  0.6635  2.3572  1.8644
18413TIP3   OH276729   3.120   3.548   4.618 -0.0404  0.3559  1.2003
18413TIP3    H176730   3.179   3.518   4.549  0.4612 -0.4028  1.9405
18413TIP3    H276731   3.123   3.643   4.613 -1.4443  0.3394 -1.0120
18414TIP3   OH276732   0.022   2.546   1.779  0.3123 -0.1042 -0.1358
18414TIP3    H176733   0.083   2.535   1.852 -0.7603  0.2305  0.8287
18414TIP3    H276734   0.050   2.481   1.715  2.3224  0.6912 -0.1740
18415TIP3   OH276735   1.606   0.241   1.789 -0.7416  0.0201 -0.2965
18415TIP3    H176736   1.596   0.235   1.694  1.2922 -1.4760 -0.4949
18415TIP3    H276737   1.517   0.239   1.823 -1.5835  1.8844 -2.1884
18416TIP3   OH276738   2.169   2.667   1.631  0.5121  0.0905 -0.3522
18416TIP3    H176739   2.178   2.608   1.705  1.1294  0.0868 -0.4230
18416TIP3    H276740   2.098   2.726   1.656  0.8952  0.2646  0.3595
18417TIP3   OH276741   1.261   4.163  16.237 -0.7401 -0.1671 -0.4299
18417TIP3    H176742   1.174   4.152  16.275 -0.7982 -1.4323 -0.8816
18417TIP3    H276743   1.321   4.157  16.312 -0.9914  0.0142 -0.2113
18418TIP3   OH276744   0.235   0.355  12.632  0.4010 -0.3574 -0.8106
18418TIP3    H176745   0.268   0.365  12.543  1.8493  0.0993 -0.2527
18418TIP3    H276746   0.307   0.385  12.688 -0.1282 -1.5056  0.5508
18419TIP3   OH276747   3.566   3.564  11.252 -0.3295  0.0309 -0.6474
18419TIP3    H176748   3.603   3.651  11.236  2.5821 -1.2117 -1.3011
18419TIP3    H276749   3.551   3.528  11.165  1.2970 -1.1769 -0.4654
18420TIP3   OH276750   4.847   2.415   1.014  0.3467  0.1375 -0.2497
18420TIP3    H176751   4.830   2.447   0.925  0.2622  0.1875 -0.2151
18420TIP3    H276752   4.832   2.321   1.009  0.7780  0.0748 -0.3978
18421TIP3   OH276753   2.562   0.857   1.189 -0.9094  0.1545  0.0171
18421TIP3    H176754   2.601   0.794   1.250 -0.7158  0.7217  0.4869
18421TIP3    H276755   2.494   0.900   1.240 -0.9584  0.4149 -0.2689
18422TIP3   OH276756   5.130   0.819  11.428  0.0150  0.3763 -0.1198
18422TIP3    H176757   5.142   0.805  11.522 -0.7881  0.0078 -0.0689
18422TIP3    H276758   5.159   0.737  11.388 -0.2307  0.3015 -0.1468
18423TIP3   OH276759   4.568   2.218  13.194 -0.0517  0.0496 -0.4700
18423TIP3    H176760   4.518   2.185  13.119 -0.7609 -0.5881  0.2544
18423TIP3    H276761   4.566   2.313  13.185  1.1699 -0.0415 -2.0614
18424TIP3   OH276762   6.460   5.535   0.068 -0.0698 -0.4311 -0.4557
18424TIP3    H176763   6.374   5.577   0.057  0.0998 -0.3166 -1.4157
18424TIP3    H276764   6.491   5.567   0.152 -1.0725 -0.6591  0.0211
18425TIP3   OH276765   0.411   1.532  15.742 -1.1692  0.7968 -0.4636
18425TIP3    H176766   0.340   1.552  15.680 -0.9661  1.4826 -0.4912
18425TIP3    H276767   0.486   1.511  15.686 -0.9964  1.3773 -0.4583
18426TIP3   OH276768   0.920   3.377   4.988 -0.1445  0.0178 -0.0843
18426TIP3    H176769   0.915   3.426   4.906  0.1960  0.9187  0.4249
18426TIP3    H276770   0.985   3.309   4.971  2.0694  1.9039  0.2759
18427TIP3   OH276771   4.082   5.249  14.801 -0.4644  0.5106 -0.0891
18427TIP3    H176772   4.139   5.210  14.734 -0.6513  0.4429 -0.2072
18427TIP3    H276773   4.014   5.294  14.752 -0.0568  1.2924  0.0389
18428TIP3   OH276774   5.115   3.227  14.849  0.1227  0.4750  0.0998
18428TIP3    H176775   5.125   3.186  14.935 -0.6600 -1.0388 -0.4929
18428TIP3    H276776   5.195   3.204  14.802  0.3181  0.8587  0.2409
18429TIP3   OH276777   1.811   6.292  12.313 -0.0182  0.1313 -0.2218
18429TIP3    H176778   1.801   6.341  12.232 -0.3985  2.5695  1.1917
18429TIP3    H276779   1.893   6.325  12.351  0.0476 -0.8007  0.4836
18430TIP3   OH276780   4.089   5.412  11.588 -0.5382  0.4968  0.5474
18430TIP3    H176781   4.043   5.338  11.548 -0.8899  1.2222 -0.4402
18430TIP3    H276782   4.020   5.473  11.612 -0.3788 -0.1379  2.8104
18431TIP3   OH276783   2.251   3.892   1.883  0.0171 -0.5061 -0.5907
18431TIP3    H176784   2.314   3.872   1.952 -1.6066  1.4098  1.6153
18431TIP3    H276785   2.184   3.824   1.891 -0.0488 -0.4236 -0.4345
18432TIP3   OH276786   6.565   2.152   2.499 -0.1344 -0.1857  0.2520
18432TIP3    H176787   6.657   2.176   2.503  0.1726 -1.2524  0.0074
18432TIP3    H276788   6.557   2.101   2.418 -0.5431 -1.6199  1.1519
18433TIP3   OH276789   2.275   6.437  15.062  0.0739 -0.0557  0.3463
18433TIP3    H176790   2.352   6.397  15.102  0.9143  0.8190 -0.3660
18433TIP3    H276791   2.205   6.373  15.077  0.7816 -0.5971  1.5227
18434TIP3   OH276792   1.088   4.819   0.327 -0.2590  0.4778  0.3771
18434TIP3    H176793   1.182   4.833   0.327 -0.1496 -0.2285 -0.6617
18434TIP3    H276794   1.057   4.871   0.402  0.9658  0.5239  0.8792
18435TIP3   OH276795   5.167   3.231   2.983 -0.5916  0.3422 -0.3202
18435TIP3    H176796   5.254   3.256   2.949 -0.6602  1.1090  0.0529
18435TIP3    H276797   5.178   3.229   3.078 -0.9661  0.3581 -0.2753
18436TIP3   OH276798   4.666   3.749   5.323 -0.2320  0.1947 -0.1106
18436TIP3    H176799   4.731   3.786   5.263  0.5291 -1.5344 -0.4014
18436TIP3    H276800   4.588   3.737   5.270 -0.1202  0.2919 -0.2993
18437TIP3   OH276801   0.839   1.118  12.888  0.7820  0.3376  0.0325
18437TIP3    H176802   0.882   1.048  12.838 -0.7050 -1.8970  1.7161
18437TIP3    H276803   0.852   1.094  12.979 -2.5718  0.4197  0.6429
18438TIP3   OH276804   3.746   5.709   1.749  0.3195  0.1723  0.0968
18438TIP3    H176805   3.749   5.657   1.669  2.1476 -2.3861  1.6992
18438TIP3    H276806   3.783   5.794   1.724  2.8910 -1.2637 -1.3383
18439TIP3   OH276807   1.127   5.059  13.420  0.7048 -0.6696  0.3715
18439TIP3    H176808   1.133   5.087  13.511  0.8993  0.8450 -0.0726
18439TIP3    H276809   1.182   4.981  13.414  0.1634 -1.1779  1.6771
18440TIP3   OH276810   1.667   2.211  16.092  0.0793 -0.1070 -0.1012
18440TIP3    H176811   1.691   2.259  16.012 -0.5455 -1.7516 -1.3301
18440TIP3    H276812   1.698   2.122  16.077  0.4210 -0.3518  1.7558
18441TIP3   OH276813   0.809   5.165  11.281 -0.2044 -0.2534 -0.5264
18441TIP3    H176814   0.872   5.231  11.250 -2.6107  1.8530 -1.3072
18441TIP3    H276815   0.804   5.180  11.376 -2.1724  2.2377 -0.9083
18442TIP3   OH276816   5.385   2.073   5.670 -0.1180 -0.4210  0.3123
18442TIP3    H176817   5.460   2.105   5.721 -1.7847  1.9734  1.4625
18442TIP3    H276818   5.334   2.022   5.732  0.1698 -1.4501 -0.2802
18443TIP3   OH276819   6.435   0.611  14.519  0.3917 -0.3037 -0.1632
18443TIP3    H176820   6.476   0.686  14.563 -2.2400  1.6014 -0.6658
18443TIP3    H276821   6.503   0.545  14.515  2.0458  1.0233  2.8211
18444TIP3   OH276822   1.485   2.653  14.019 -0.0721 -0.3328  0.1928
18444TIP3    H176823   1.484   2.747  14.040  0.4607  0.3545 -2.5035
18444TIP3    H276824   1.395   2.635  13.990 -0.7159 -1.1920  2.5009
18445TIP3   OH276825   6.644   5.644  14.975 -0.5560 -0.4277  0.2249
18445TIP3    H176826   6.702   5.627  15.050 -0.7908  0.1044  0.5373
18445TIP3    H276827   6.681   5.593  14.904  2.0593  2.0515 -0.4135
18446TIP3   OH276828   5.036   4.571  12.046 -0.0215  0.6180 -0.6860
18446TIP3    H176829   5.051   4.649  11.992  1.4890  0.6296 -0.2945
18446TIP3    H276830   4.942   4.570  12.060  0.0396  3.3613  0.7099
18447TIP3   OH276831   3.342   0.692  14.107 -0.4836  0.0141  0.7218
18447TIP3    H176832   3.405   0.623  14.085  0.1479  0.1734  1.9293
18447TIP3    H276833   3.361   0.763  14.045 -2.0508 -1.3645 -1.4530
18448TIP3   OH276834   6.193   6.189   2.581 -0.2765  0.0535 -0.4252
18448TIP3    H176835   6.203   6.156   2.670  3.1235 -0.6234 -0.9167
18448TIP3    H276836   6.117   6.142   2.547 -0.7523 -0.8029  1.6232
18449TIP3   OH276837   4.642   3.021  16.959 -0.1775  0.2517 -0.1334
18449TIP3    H176838   4.566   3.062  16.917 -1.0881 -0.1593  1.0670
18449TIP3    H276839   4.648   2.935  16.917 -0.7762  0.0382  0.2070
18450TIP3   OH276840   5.185   5.680   1.542 -0.0469 -0.2736  0.1735
18450TIP3    H176841   5.278   5.661   1.538 -0.1196 -0.4182 -2.5475
18450TIP3    H276842   5.180   5.775   1.529 -0.2869 -0.4940 -1.6930
18451TIP3   OH276843   3.382   1.805   3.160  0.5566 -0.2503 -0.3281
18451TIP3    H176844   3.363   1.851   3.242 -0.9784 -0.7404 -0.3895
18451TIP3    H276845   3.473   1.830   3.140  1.1507 -0.5319  1.7732
18452TIP3   OH276846   0.656   2.340   4.416  0.3722 -0.2053 -0.2715
18452TIP3    H176847   0.751   2.345   4.422  0.5117 -2.7904  0.9756
18452TIP3    H276848   0.635   2.369   4.327  2.0987  2.0783 -0.0346
18453TIP3   OH276849   2.100   6.160   2.828 -0.3063 -0.1775 -0.1713
18453TIP3    H176850   2.036   6.090   2.839 -1.2749  0.7087 -0.0552
18453TIP3    H276851   2.091   6.187   2.737 -0.4091  0.2513 -0.0339
18454TIP3   OH276852   6.114   1.079  15.775 -0.0872  0.0140 -0.2994
18454TIP3    H176853   6.143   1.144  15.839  0.0061  0.6811 -0.9982
18454TIP3    H276854   6.187   1.071  15.714 -0.4527 -0.0662 -0.7342
18455TIP3   OH276855   2.254   0.793   0.882  0.3925 -0.3393  0.1314
18455TIP3    H176856   2.223   0.832   0.801  0.4341 -1.0476 -0.2302
18455TIP3    H276857   2.294   0.866   0.930  0.4420  0.0647 -0.5139
18456TIP3   OH276858   1.982   3.954   6.999  0.2957 -0.8029 -0.0973
18456TIP3    H176859   1.950   3.895   7.068  2.2087 -0.5669  1.0692
18456TIP3    H276860   1.924   4.031   7.005 -1.2131 -1.8559 -0.5638
18457TIP3   OH276861   3.777   0.160  12.747  0.6281  0.3079  0.2914
18457TIP3    H176862   3.711   0.206  12.799 -0.0666 -2.6928  2.3068
18457TIP3    H276863   3.728   0.094  12.699  1.8918 -0.2557 -0.2517
18458TIP3   OH276864   4.806   1.494   2.091  0.6694  0.1604 -0.2320
18458TIP3    H176865   4.794   1.543   2.173 -0.2065 -1.3328  0.5652
18458TIP3    H276866   4.768   1.408   2.108 -0.1075  0.0032 -2.4220
18459TIP3   OH276867   4.082   1.633  12.716  0.3808 -0.0357  0.2154
18459TIP3    H176868   4.158   1.686  12.688  1.7057 -0.5646  2.5375
18459TIP3    H276869   4.094   1.624  12.810 -2.2190 -0.8047  0.5200
18460TIP3   OH276870   4.154   6.810   4.659  0.6261 -0.0952 -0.8394
18460TIP3    H176871   4.065   6.845   4.657  0.1239 -1.2046  0.7342
18460TIP3    H276872   4.144   6.716   4.646  1.5993 -0.1974 -0.9302
18461TIP3   OH276873   3.075   1.921   5.228  0.0001 -0.0114 -0.2735
18461TIP3    H176874   3.092   1.948   5.138  0.2773  1.7501  0.2745
18461TIP3    H276875   3.013   1.848   5.219 -1.8920  1.6416 -1.8484
18462TIP3   OH276876   5.768   2.674  13.228  0.2255  0.4584  0.0557
18462TIP3    H176877   5.679   2.685  13.194  0.4802  3.0356  0.0293
18462TIP3    H276878   5.825   2.685  13.152  0.6332 -0.5590  0.1870
18463TIP3   OH276879   4.491   0.582  12.332  0.4263  0.4181 -0.7591
18463TIP3    H176880   4.565   0.556  12.388  0.7423  0.3684 -1.1938
18463TIP3    H276881   4.417   0.590  12.392  0.5338 -0.5836 -0.4725
18464TIP3   OH276882   3.353   6.383  16.591 -0.1041  0.6186  0.1849
18464TIP3    H176883   3.381   6.370  16.500  0.1229 -0.2739  0.3702
18464TIP3    H276884   3.407   6.322  16.642 -0.4340  0.8977  0.8839
18465TIP3   OH276885   6.296   5.121  16.978  0.2967  0.1025  0.2758
18465TIP3    H176886   6.307   5.136  17.072  0.8662  1.1438  0.0495
18465TIP3    H276887   6.372   5.161  16.938  0.3474 -0.8325 -0.6046
18466TIP3   OH276888   3.363   3.307  13.708  0.1161  0.4748 -0.6731
18466TIP3    H176889   3.404   3.222  13.726 -1.1214  0.2908  1.6843
18466TIP3    H276890   3.284   3.307  13.761 -1.2256  2.1540 -2.5323
18467TIP3   OH276891   5.090   5.899  12.611  0.6586 -0.4433  0.4008
18467TIP3    H176892   5.153   5.947  12.558  0.0576 -0.9437 -0.8134
18467TIP3    H276893   5.084   5.948  12.693  1.7156  0.2723  0.0616
18468TIP3   OH276894   1.510   4.627   5.266  0.2491 -0.4212  0.3315
18468TIP3    H176895   1.547   4.556   5.214  1.3965 -1.5169  2.5135
18468TIP3    H276896   1.568   4.702   5.249 -0.7690 -0.0480 -1.7152
18469TIP3   OH276897   4.635   4.291  14.515 -0.2600 -0.3905 -0.3443
18469TIP3    H176898   4.618   4.313  14.606 -0.3109 -0.5564 -0.3140
18469TIP3    H276899   4.550   4.265  14.480 -0.0545 -1.3930 -0.1426
18470TIP3   OH276900   2.189   2.039  12.594  0.7885 -0.7624 -0.2027
18470TIP3    H176901   2.132   1.990  12.535  1.0093 -0.9797 -0.2362
18470TIP3    H276902   2.255   2.079  12.537 -0.9550  1.8897 -0.5614
18471TIP3   OH276903   1.865   0.396  16.772 -0.5882  0.2942  0.3208
18471TIP3    H176904   1.823   0.422  16.854  1.9849 -0.1266  1.8829
18471TIP3    H276905   1.859   0.300  16.770 -1.6961  0.3559 -0.6440
18472TIP3   OH276906   6.023   3.579  12.417 -0.4967  0.1356 -0.0224
18472TIP3    H176907   6.063   3.579  12.504  1.0871  0.9717 -0.7104
18472TIP3    H276908   6.097   3.570  12.357 -1.4557  0.6300 -1.3235
18473TIP3   OH276909   4.163   2.396   1.140 -0.3644  0.5900  0.2102
18473TIP3    H176910   4.176   2.394   1.235 -2.4095  2.9541  0.6620
18473TIP3    H276911   4.248   2.374   1.103  0.3671 -0.8876  2.5567
18474TIP3   OH276912   5.568   1.578  15.064  0.1763  0.0349  0.0651
18474TIP3    H176913   5.505   1.601  14.995 -0.7258  0.5272  1.0214
18474TIP3    H276914   5.647   1.628  15.043  0.3455 -0.7442 -1.2682
18475TIP3   OH276915   4.146   1.722   1.250 -0.7097 -0.3065  0.2028
18475TIP3    H176916   4.218   1.679   1.203 -0.0643  0.7837  0.1656
18475TIP3    H276917   4.122   1.797   1.194 -0.6506  0.3868  1.0879
18476TIP3   OH276918   0.715   2.729  12.038 -0.3890  0.5590 -0.1507
18476TIP3    H176919   0.698   2.803  12.096 -1.0193 -0.2129  0.6754
18476TIP3    H276920   0.629   2.696  12.014 -0.1251  0.5935 -1.1843
18477TIP3   OH276921   5.594   0.072   4.370  0.4531 -0.1137 -0.4903
18477TIP3    H176922   5.678   0.059   4.325  0.3127 -1.6773 -0.3556
18477TIP3    H276923   5.533   0.014   4.324 -0.5029  0.7702 -0.3857
18478TIP3   OH276924   0.348   5.837   6.219 -0.3244  0.5873  0.5824
18478TIP3    H176925   0.279   5.771   6.223 -0.4864  0.6332 -0.8899
18478TIP3    H276926   0.429   5.786   6.216 -0.4038  0.4703  0.3444
18479TIP3   OH276927   5.893   5.609  14.452 -0.2028 -0.1179  0.3399
18479TIP3    H176928   5.895   5.682  14.391 -1.4802  0.4676  0.9695
18479TIP3    H276929   5.975   5.562  14.435  0.6296  1.4210 -0.1110
18480TIP3   OH276930   4.567   4.185   2.898  0.7808 -0.7817 -0.0264
18480TIP3    H176931   4.610   4.237   2.967 -4.1384  0.6989  2.3785
18480TIP3    H276932   4.610   4.100   2.902  1.6791 -0.3478  4.0290
18481TIP3   OH276933   0.460   3.635  15.597  0.2304  0.1901 -0.1070
18481TIP3    H176934   0.410   3.676  15.668  2.0885  1.4255  0.5463
18481TIP3    H276935   0.393   3.601  15.537 -1.4694  3.1604 -0.1021
18482TIP3   OH276936   4.996   3.113  12.954  0.3911  0.1013 -0.3435
18482TIP3    H176937   5.053   3.162  13.012 -0.5086 -1.0086  1.5950
18482TIP3    H276938   4.940   3.179  12.914 -0.6980  0.7731  2.0745
18483TIP3   OH276939   4.252   2.425  12.278 -0.3386 -0.0469 -0.2648
18483TIP3    H176940   4.321   2.438  12.214  0.4530 -3.0163 -0.1511
18483TIP3    H276941   4.287   2.460  12.360  0.3342 -0.0078 -0.5680
18484TIP3   OH276942   0.459   3.349   4.537  0.4142  0.4945 -0.0211
18484TIP3    H176943   0.468   3.377   4.628  1.2567  3.3127 -0.8694
18484TIP3    H276944   0.376   3.388   4.509  0.2507 -0.1982 -0.5106
18485TIP3   OH276945   3.256   1.105   1.521  0.2620 -0.4015  0.3955
18485TIP3    H176946   3.253   1.042   1.593 -0.1502  0.4888  1.1739
18485TIP3    H276947   3.335   1.157   1.537  0.6526 -0.7573 -0.2964
18486TIP3   OH276948   2.164   2.538  14.739 -0.3656 -0.1037  0.4663
18486TIP3    H176949   2.163   2.568  14.830 -2.5384 -0.6003  0.6679
18486TIP3    H276950   2.157   2.618  14.687  0.3266  0.1443  0.7468
18487TIP3   OH276951   3.798   0.612  16.870 -0.3563  0.1920  0.2929
18487TIP3    H176952   3.773   0.584  16.958 -2.1401  0.7925  0.0176
18487TIP3    H276953   3.715   0.634  16.827  0.6731  2.6576 -0.5957
18488TIP3   OH276954   6.482   4.231  16.187  0.3372 -0.0235  0.2427
18488TIP3    H176955   6.398   4.189  16.203 -0.1890  0.8071 -0.2969
18488TIP3    H276956   6.543   4.186  16.246 -0.0085 -2.1331 -0.8909
18489TIP3   OH276957   2.103   4.110  14.460 -0.0849 -0.0585  0.3342
18489TIP3    H176958   2.172   4.144  14.403  0.9735 -3.1368 -0.3880
18489TIP3    H276959   2.098   4.174  14.532  2.7919  0.8150 -0.1116
18490TIP3   OH276960   5.613   0.063  13.252 -0.5263 -0.1519 -0.2654
18490TIP3    H176961   5.582   0.153  13.256  2.0720  0.8616 -0.9597
18490TIP3    H276962   5.547   0.017  13.200 -1.6846  1.4523 -0.2791
18491TIP3   OH276963   2.586   1.599   2.563  0.9804  0.0227  0.3905
18491TIP3    H176964   2.598   1.519   2.511  0.2984  1.4201 -2.0879
18491TIP3    H276965   2.497   1.593   2.596 -0.7517  1.5940 -3.4728
18492TIP3   OH276966   1.233   5.659   6.420 -0.5527  0.4529  0.0012
18492TIP3    H176967   1.139   5.644   6.427 -0.5021 -0.3200 -0.8577
18492TIP3    H276968   1.265   5.651   6.511 -0.9485 -2.0024 -0.0148
18493TIP3   OH276969   0.173   2.561  16.718 -0.8201  0.3045 -0.3684
18493TIP3    H176970   0.258   2.598  16.742 -1.6333  2.1921 -0.2160
18493TIP3    H276971   0.160   2.586  16.627 -1.2982  0.2040 -0.3317
18494TIP3   OH276972   6.369   3.394   3.889  0.5431  0.0282 -0.3068
18494TIP3    H176973   6.352   3.376   3.982  1.9344  1.9421  0.3761
18494TIP3    H276974   6.343   3.313   3.844 -0.1194 -0.9660  1.7347
18495TIP3   OH276975   1.534   6.758   4.997 -0.0440 -0.0853 -0.6484
18495TIP3    H176976   1.442   6.743   5.019 -0.0409 -0.7454 -1.0627
18495TIP3    H276977   1.572   6.793   5.078 -0.1017 -2.1336  0.3404
18496TIP3   OH276978   3.214   1.754   2.367 -0.2704 -0.1723  0.0558
18496TIP3    H176979   3.131   1.742   2.413  0.1675  0.8633  1.1781
18496TIP3    H276980   3.280   1.729   2.432  0.4043  2.2642  0.4096
18497TIP3   OH276981   3.465   1.089   5.065  0.4609 -0.1909  0.0094
18497TIP3    H176982   3.425   1.009   5.098  2.6105 -0.3444  2.6511
18497TIP3    H276983   3.471   1.076   4.971 -2.1541 -1.6871 -0.0566
18498TIP3   OH276984   1.110   6.569  13.056  0.3336 -0.4480  0.2469
18498TIP3    H176985   1.146   6.525  12.978 -0.2973 -2.2616  0.9090
18498TIP3    H276986   1.068   6.647  13.022  0.1195 -1.1703 -1.2453
18499TIP3   OH276987   2.536   6.569  13.282  0.1792  0.2156  0.4448
18499TIP3    H176988   2.596   6.643  13.276  0.9783 -0.2634  2.0405
18499TIP3    H276989   2.572   6.505  13.221 -0.1509  0.8684 -0.4609
18500TIP3   OH276990   4.402   3.227  15.265  0.5392 -0.4986 -0.0545
18500TIP3    H176991   4.348   3.228  15.186 -0.1521 -1.6559  0.3666
18500TIP3    H276992   4.415   3.319  15.287  0.0596 -0.1764 -1.0610
18501TIP3   OH276993   2.543   6.528   2.315  0.0522  0.0427  0.4486
18501TIP3    H176994   2.622   6.572   2.347  0.8543 -0.4906 -0.7170
18501TIP3    H276995   2.479   6.540   2.385  0.6350  1.9278  0.7283
18502TIP3   OH276996   6.160   5.863   5.615 -0.4883 -0.2860 -0.3750
18502TIP3    H176997   6.251   5.888   5.630 -0.3340  0.1412 -1.8445
18502TIP3    H276998   6.123   5.850   5.703  0.7915  0.2096  0.2546
18503TIP3   OH276999   5.518   3.258   3.804  0.2084 -0.2731  0.0242
18503TIP3    H177000   5.462   3.184   3.780  1.9092 -0.5558 -3.8136
18503TIP3    H277001   5.508   3.320   3.731  3.1836  0.5848  0.2084
18504TIP3   OH277002   0.502   5.642  12.794 -0.2832  0.6788  0.2931
18504TIP3    H177003   0.495   5.737  12.791 -0.1062  0.6879 -1.9608
18504TIP3    H277004   0.525   5.622  12.885  0.0175  2.7990  0.7392
18505TIP3   OH277005   5.367   5.376  12.428  0.5634 -0.1286  0.2091
18505TIP3    H177006   5.449   5.361  12.381  0.7243  0.0388  0.4381
18505TIP3    H277007   5.355   5.296  12.479  0.2769 -0.4021 -0.2768
18506TIP3   OH277008   5.495   3.685  10.920 -0.3431 -0.1638  0.0181
18506TIP3    H177009   5.562   3.742  10.958 -0.5550  1.3679 -1.7945
18506TIP3    H277010   5.425   3.744  10.893 -2.9915 -1.7719  2.7159
18507TIP3   OH277011   6.003   0.546  13.732 -0.0715  0.1476 -0.3872
18507TIP3    H177012   6.011   0.497  13.650  2.5758  0.1013 -0.1819
18507TIP3    H277013   5.921   0.594  13.723 -1.3751 -2.1460 -1.7534
18508TIP3   OH277014   0.498   4.499   5.830 -0.6248 -0.1178 -0.3661
18508TIP3    H177015   0.502   4.584   5.786  2.8685 -0.0129 -0.1095
18508TIP3    H277016   0.544   4.511   5.913  0.7384 -2.3708 -0.6807
18509TIP3   OH277017   0.856   0.799   1.173  0.6305 -0.2478 -0.1156
18509TIP3    H177018   0.944   0.778   1.141  1.4292  0.6734  1.3452
18509TIP3    H277019   0.799   0.735   1.131  2.2000 -1.7983  0.0000
18510TIP3   OH277020   5.840   5.816   1.142 -0.7303  0.5325 -0.2076
18510TIP3    H177021   5.884   5.756   1.082 -2.7730 -1.3116  0.0104
18510TIP3    H277022   5.790   5.874   1.085 -0.3331  0.7324 -0.3568
18511TIP3   OH277023   5.295   2.121  16.191  0.3134 -0.4853  0.8102
18511TIP3    H177024   5.379   2.139  16.148  0.7726  0.2326  1.9411
18511TIP3    H277025   5.282   2.196  16.250  1.3261 -2.7744  4.2738
18512TIP3   OH277026   3.304   4.734   0.102 -0.4222 -0.3354  1.1772
18512TIP3    H177027   3.384   4.769   0.063 -0.9593  0.1431  0.4827
18512TIP3    H277028   3.270   4.806   0.155 -2.4135  0.9125 -1.5480
18513TIP3   OH277029   2.126   2.279  13.048 -0.0995 -0.2036 -0.2193
18513TIP3    H177030   2.113   2.366  13.010  0.0710  0.4559  1.1806
18513TIP3    H277031   2.094   2.218  12.981  1.0057  0.8608 -1.7811
18514TIP3   OH277032   5.908   5.393  16.070  0.2693 -0.2682  0.2011
18514TIP3    H177033   5.964   5.316  16.080  0.0855 -0.3773  0.3820
18514TIP3    H277034   5.823   5.366  16.105  0.1470 -0.0512  0.0702
18515TIP3   OH277035   0.427   3.969   4.207  0.8371  0.0078  0.2510
18515TIP3    H177036   0.424   3.935   4.117 -1.5017 -0.0395  0.2855
18515TIP3    H277037   0.450   3.894   4.261 -2.3481 -1.1971  0.1162
18516TIP3   OH277038   3.900   4.473  13.540 -0.0953 -0.3345 -0.6525
18516TIP3    H177039   3.890   4.432  13.454 -1.2024  1.8272 -1.6393
18516TIP3    H277040   3.822   4.444  13.589  0.6916 -1.8176 -0.2039
18517TIP3   OH277041   4.480   3.513   1.781 -0.1040 -0.2209 -0.3681
18517TIP3    H177042   4.528   3.431   1.766  1.0040  0.6040 -1.6016
18517TIP3    H277043   4.390   3.485   1.798  0.5945 -1.7736  1.1002
18518TIP3   OH277044   0.094   6.291  14.766  0.3070 -0.1388 -0.4423
18518TIP3    H177045   0.075   6.283  14.860 -1.6111 -1.7320 -0.9054
18518TIP3    H277046   0.041   6.365  14.737 -3.1246 -2.5821 -1.0882
18519TIP3   OH277047   4.956   2.127   4.780  0.5710 -0.3809 -0.4182
18519TIP3    H177048   5.035   2.089   4.817 -0.0539 -0.8154  0.5151
18519TIP3    H277049   4.885   2.096   4.837 -0.2881 -0.1004 -1.2935
18520TIP3   OH277050   3.165   4.486   3.368  0.1901  0.0737 -0.9470
18520TIP3    H177051   3.115   4.419   3.323  0.3938 -1.1550  0.5604
18520TIP3    H277052   3.241   4.440   3.404  1.0944  1.4008 -1.0726
18521TIP3   OH277053   1.966   5.263  16.226 -0.5241 -0.7669  0.4154
18521TIP3    H177054   2.004   5.284  16.141  0.1223 -0.7337  0.7108
18521TIP3    H277055   2.026   5.200  16.265 -0.5362 -0.3852  1.0726
18522TIP3   OH277056   6.536   4.752   0.724 -0.0386  0.7683 -0.1840
18522TIP3    H177057   6.500   4.770   0.811 -0.8725 -1.8634  0.0787
18522TIP3    H277058   6.631   4.758   0.736 -0.1605  0.9443  0.7684
18523TIP3   OH277059   6.600   1.632  11.418 -0.3252 -0.3374  0.8889
18523TIP3    H177060   6.559   1.690  11.482  0.3719  0.3059  0.7603
18523TIP3    H277061   6.619   1.688  11.343 -1.3532 -1.1272 -0.0095
18524TIP3   OH277062   1.965   1.098  14.502  0.2084  0.0416  0.6214
18524TIP3    H177063   1.929   1.106  14.590 -3.1950  0.1105 -0.6243
18524TIP3    H277064   1.946   1.182  14.460  1.5715 -0.0565 -0.2558
18525TIP3   OH277065   0.348   2.961  16.647 -0.5796  0.4183 -0.1443
18525TIP3    H177066   0.338   2.882  16.594 -1.7155  1.6437 -1.9064
18525TIP3    H277067   0.261   2.976  16.684 -0.4034  0.8664  0.0984
18526TIP3   OH277068   0.590   2.730   2.601  0.3417  0.4040  0.1033
18526TIP3    H177069   0.535   2.740   2.679 -1.5457 -0.4187 -1.0589
18526TIP3    H277070   0.533   2.754   2.528  2.0096  0.9995 -1.0699
18527TIP3   OH277071   3.622   3.302   6.340 -0.3254 -0.1786  0.3517
18527TIP3    H177072   3.668   3.385   6.350 -0.4779 -0.2510  1.8646
18527TIP3    H277073   3.531   3.323   6.360 -0.0411 -1.0751  3.1323
18528TIP3   OH277074   5.692   0.281  12.639  0.5780  0.5507 -0.1442
18528TIP3    H177075   5.627   0.263  12.572  1.2818 -1.8812 -0.2704
18528TIP3    H277076   5.772   0.237  12.608  0.9799 -0.4987  2.1424
18529TIP3   OH277077   5.521   6.560   5.821 -0.1546  0.0107  0.3174
18529TIP3    H177078   5.427   6.580   5.812 -0.0979  1.0083  1.7673
18529TIP3    H277079   5.559   6.587   5.737 -1.0545  0.1599 -0.0547
18530TIP3   OH277080   3.827   6.712   1.812  0.1726 -0.0112 -0.3626
18530TIP3    H177081   3.805   6.742   1.900 -1.2598 -2.0308  0.0142
18530TIP3    H277082   3.746   6.721   1.762  0.3749 -0.9129 -0.8804
18531TIP3   OH277083   5.502   3.659  12.840 -0.6753 -0.1394  0.0578
18531TIP3    H177084   5.550   3.679  12.759 -1.1165 -2.7135 -0.9393
18531TIP3    H277085   5.570   3.636  12.903 -0.3044  2.1899  0.5928
18532TIP3   OH277086   4.526   6.068   1.545 -0.2160 -0.2293 -0.3479
18532TIP3    H177087   4.439   6.045   1.513 -0.0257  0.4188 -1.3829
18532TIP3    H277088   4.583   6.001   1.509 -0.5952 -2.3198  2.6115
18533TIP3   OH277089   0.082   1.511  16.629  0.5015  0.2998  0.0702
18533TIP3    H177090   0.152   1.502  16.565  1.2412 -0.4216  0.9726
18533TIP3    H277091   0.120   1.565  16.699  0.7635 -1.4978  1.3780
18534TIP3   OH277092   1.565   2.648  16.885  0.2637  0.2512  1.0810
18534TIP3    H177093   1.520   2.725  16.848 -0.1237 -2.0393 -3.9624
18534TIP3    H277094   1.658   2.665  16.870  0.1221 -0.5607 -0.9587
18535TIP3   OH277095   4.817   0.044  11.902 -0.1400 -0.2246  0.3832
18535TIP3    H177096   4.816   0.015  11.811 -0.9874  2.1235 -0.4275
18535TIP3    H277097   4.730   0.022  11.936  0.0295 -0.7096  0.5176
18536TIP3   OH277098   1.421   4.563   1.441 -0.5029  0.0325 -0.3461
18536TIP3    H177099   1.335   4.524   1.427  0.6541 -2.6007 -0.8144
18536TIP3    H277100   1.412   4.654   1.414 -2.7694 -0.5379 -1.7194
18537TIP3   OH277101   0.386   0.083   0.289 -0.2559 -0.4111  0.5004
18537TIP3    H177102   0.445   0.079   0.364  1.1677 -0.9270 -0.5987
18537TIP3    H277103   0.366   0.176   0.278  1.2137 -0.1031  0.2627
18538TIP3   OH277104   0.293   6.038   4.385  0.4470  0.5678 -0.0359
18538TIP3    H177105   0.281   6.082   4.469 -0.4101  0.4267 -0.0783
18538TIP3    H277106   0.234   6.083   4.325 -0.2203 -0.4289 -0.1556
18539TIP3   OH277107   3.394   6.293   4.522 -0.0696  0.1505  0.2646
18539TIP3    H177108   3.333   6.320   4.453  1.1105 -0.0649 -0.9061
18539TIP3    H277109   3.404   6.371   4.576 -2.6040 -0.2595  1.4744
18540TIP3   OH277110   0.593   2.738  16.508  0.6393  0.0856 -0.0303
18540TIP3    H177111   0.673   2.689  16.487 -0.3392 -0.6686 -2.2981
18540TIP3    H277112   0.557   2.762  16.422 -1.0412  1.3055  0.9651
18541TIP3   OH277113   6.455   1.755   6.861 -0.4563 -0.4502 -0.2141
18541TIP3    H177114   6.362   1.773   6.849 -0.4566  1.9943  2.4139
18541TIP3    H277115   6.499   1.816   6.802 -0.5034 -0.7592 -0.5711
18542TIP3   OH277116   5.253   0.780   1.333 -0.1059  0.1395 -0.3768
18542TIP3    H177117   5.169   0.780   1.378 -0.4800 -4.0301 -0.6167
18542TIP3    H277118   5.230   0.769   1.240  0.4742 -3.2973 -0.2626
18543TIP3   OH277119   3.591   6.003  16.277 -0.4297 -0.2576  0.1289
18543TIP3    H177120   3.566   5.936  16.340 -0.4860  0.1493  0.5465
18543TIP3    H277121   3.580   6.086  16.325  0.2197  0.0133 -0.1786
18544TIP3   OH277122   4.583   1.417  13.633  0.5187 -0.3458 -0.0539
18544TIP3    H177123   4.577   1.466  13.551  1.5827  0.0108  0.0653
18544TIP3    H277124   4.659   1.454  13.677 -2.5588  2.7339  3.2881
18545TIP3   OH277125   2.012   3.140   2.033 -0.5113  0.3477  0.6517
18545TIP3    H177126   1.938   3.098   1.989 -0.5611  1.0028  0.1076
18545TIP3    H277127   1.991   3.233   2.034  0.3701  0.5651  0.3608
18546TIP3   OH277128   1.180   0.876  13.912  0.3973  0.5785  0.7766
18546TIP3    H177129   1.231   0.866  13.992  0.2309 -0.4735  0.7713
18546TIP3    H277130   1.133   0.793  13.904  0.2220  0.7713 -0.2795
18547TIP3   OH277131   3.700   5.558  10.907 -0.3525  0.6417 -0.1273
18547TIP3    H177132   3.692   5.494  10.837 -1.9082 -0.4183  0.9446
18547TIP3    H277133   3.612   5.561  10.947 -0.1076  2.8461  0.3789
18548TIP3   OH277134   1.040   3.110   5.775  0.1089  0.8662 -0.3034
18548TIP3    H177135   1.038   3.104   5.870 -1.7813  2.5216 -0.1784
18548TIP3    H277136   0.956   3.076   5.746 -0.0769  2.0081 -1.2215
18549TIP3   OH277137   1.844   4.698  13.614  0.5199 -0.1208 -0.0811
18549TIP3    H177138   1.775   4.671  13.675  0.2930 -1.4772 -0.8921
18549TIP3    H277139   1.905   4.624  13.613  0.5328 -0.1254 -1.4499
18550TIP3   OH277140   2.382   0.851  15.986  0.3151  0.0479  0.3577
18550TIP3    H177141   2.399   0.848  15.892  2.8230 -0.7505  0.7680
18550TIP3    H277142   2.444   0.915  16.020  0.5401 -0.8194  1.6624
18551TIP3   OH277143   5.753   4.630  16.821 -0.1769 -0.5664 -0.3235
18551TIP3    H177144   5.707   4.677  16.891  1.1249 -0.8945  0.8029
18551TIP3    H277145   5.828   4.590  16.865  1.2637  0.0524 -2.1094
18552TIP3   OH277146   0.713   5.117   4.264 -0.6232 -0.2255 -0.3522
18552TIP3    H177147   0.656   5.104   4.341 -1.3835  1.5978 -0.5603
18552TIP3    H277148   0.800   5.094   4.295 -1.1320 -0.8983  0.6426
18553TIP3   OH277149   4.625   3.748   6.075 -0.8738 -0.6703  0.5544
18553TIP3    H177150   4.664   3.748   5.988  1.1676  2.7109  1.2683
18553TIP3    H277151   4.679   3.687   6.126  1.7289  1.5730  0.7221
18554TIP3   OH277152   5.351   1.835  11.709 -0.2303 -0.1965  0.3576
18554TIP3    H177153   5.446   1.831  11.705 -0.2438  0.0120 -0.1803
18554TIP3    H277154   5.321   1.779  11.638 -0.5257 -1.2286  1.2750
18555TIP3   OH277155   1.469   2.709   6.017  0.4742  0.8602 -0.2367
18555TIP3    H177156   1.416   2.631   5.999  0.0836  0.4822  2.2064
18555TIP3    H277157   1.555   2.674   6.041  0.4686  1.2246  0.3174
18556TIP3   OH277158   1.922   0.255   1.905  0.7184  0.1878 -0.2873
18556TIP3    H177159   1.884   0.252   1.993  0.6316  1.0909 -0.2797
18556TIP3    H277160   1.874   0.325   1.861  1.0649  0.0393 -0.9101
18557TIP3   OH277161   2.603   2.761  14.998  0.1912  0.1370 -0.3203
18557TIP3    H177162   2.692   2.789  15.018 -0.1828  1.3226 -0.2130
18557TIP3    H277163   2.589   2.684  15.054  1.4008 -0.5583 -0.9274
18558TIP3   OH277164   0.504   4.098   5.887 -0.1568  0.2863 -0.1246
18558TIP3    H177165   0.555   4.034   5.837  0.9480 -0.2334  1.5742
18558TIP3    H277166   0.506   4.177   5.833  0.0521 -0.5495 -1.3921
18559TIP3   OH277167   6.289   2.261  11.175  0.4897  0.1986 -0.6889
18559TIP3    H177168   6.330   2.191  11.124 -0.9392 -0.9460 -0.3283
18559TIP3    H277169   6.331   2.257  11.261  0.1084 -0.4976 -0.5371
18560TIP3   OH277170   1.782   5.052  12.622 -0.6042  0.2744  0.2518
18560TIP3    H177171   1.863   5.100  12.638 -1.0669  1.2646 -0.3074
18560TIP3    H277172   1.811   4.971  12.581  0.1042  0.6373  0.0106
18561TIP3   OH277173   0.381   1.351   6.326  0.6946  0.6692 -0.8971
18561TIP3    H177174   0.317   1.280   6.318  0.6947  0.6478 -0.6900
18561TIP3    H277175   0.328   1.430   6.334  0.6913  0.7477 -1.6142
18562TIP3   OH277176   3.419   3.771  13.086 -0.8029  0.3497  0.0880
18562TIP3    H177177   3.347   3.749  13.026  0.1061  0.3667 -1.0475
18562TIP3    H277178   3.435   3.864  13.071  0.1312  0.1173 -0.4464
18563TIP3   OH277179   2.267   4.494  13.146 -0.5019 -0.6459 -0.6720
18563TIP3    H177180   2.356   4.464  13.164 -0.3693 -0.4581 -1.0175
18563TIP3    H277181   2.261   4.496  13.051  0.3247  2.8596 -0.7702
18564TIP3   OH277182   0.394   6.248  15.283  0.2616  0.1315  0.0740
18564TIP3    H177183   0.307   6.274  15.314 -0.9171 -1.8825 -1.3322
18564TIP3    H277184   0.387   6.253  15.188  1.6538 -0.2197 -0.0550
18565TIP3   OH277185   1.438   5.865  14.641  0.1499 -0.2091 -0.2251
18565TIP3    H177186   1.446   5.818  14.558  0.7079  0.7918 -0.7650
18565TIP3    H277187   1.499   5.938  14.632 -1.2486  1.0559  0.2658
18566TIP3   OH277188   1.435   3.759  11.695 -0.2858  0.0127  0.4934
18566TIP3    H177189   1.444   3.700  11.770  0.4321  0.8522  1.0911
18566TIP3    H277190   1.400   3.704  11.625 -1.0278 -0.7776  1.4556
18567TIP3   OH277191   3.470   6.205  16.737 -0.3555 -0.2458 -0.5103
18567TIP3    H177192   3.421   6.130  16.704 -0.3152 -0.5703  0.1501
18567TIP3    H277193   3.538   6.167  16.793  2.3245 -0.0092 -3.3399
18568TIP3   OH277194   3.411   4.367   0.322 -0.3291 -0.1313  0.3393
18568TIP3    H177195   3.390   4.460   0.334 -0.0626  0.0341 -0.4070
18568TIP3    H277196   3.326   4.323   0.320 -0.4318 -0.0427  1.6439
18569TIP3   OH277197   1.491   3.430   6.570  0.2204 -0.1232  0.1697
18569TIP3    H177198   1.422   3.365   6.582 -0.5043  0.6824  0.4260
18569TIP3    H277199   1.557   3.407   6.636 -0.5081  0.0056  0.9718
18570TIP3   OH277200   2.150   2.402   0.214  0.3584 -0.5269 -0.6250
18570TIP3    H177201   2.178   2.311   0.214  1.0989 -0.4143  2.2749
18570TIP3    H277202   2.206   2.445   0.149  1.3625 -1.7855 -0.6383
18571TIP3   OH277203   4.524   1.630  13.090  0.0736  0.4418  0.4972
18571TIP3    H177204   4.528   1.586  13.175 -0.0366  0.6118  0.5901
18571TIP3    H277205   4.436   1.668  13.087  0.2930  0.9551  0.5613
18572TIP3   OH277206   1.208   3.865   4.944  0.1523 -0.5187  0.0669
18572TIP3    H177207   1.171   3.780   4.968 -0.8314  0.1252  0.8888
18572TIP3    H277208   1.297   3.863   4.981 -0.0575 -0.9822  0.5572
18573TIP3   OH277209   0.957   2.399  11.045  0.0521  0.3477  0.0394
18573TIP3    H177210   0.919   2.350  10.972  0.5802  0.8711 -0.6003
18573TIP3    H277211   0.902   2.477  11.051  1.6514  1.7327 -1.6981
18574TIP3   OH277212   4.150   1.364  15.336  0.2834  0.0911 -0.0571
18574TIP3    H177213   4.129   1.337  15.246 -0.4096 -0.0022  0.1277
18574TIP3    H277214   4.065   1.371  15.379  0.6884 -2.5984  1.3951
18575TIP3   OH277215   5.349   5.064  17.122  0.7707  0.5523  0.3003
18575TIP3    H177216   5.332   5.105  17.207 -0.8276 -0.0098  0.2955
18575TIP3    H277217   5.330   5.132  17.058 -0.6781  0.2216  0.3360
18576TIP3   OH277218   1.070   0.748   5.785 -0.5175  0.2459 -0.2122
18576TIP3    H177219   1.114   0.673   5.744 -1.7735  0.1508 -1.4262
18576TIP3    H277220   0.981   0.718   5.801 -0.6691  1.0536  0.5350
18577TIP3   OH277221   6.649   4.346  14.030 -0.0271  0.1740 -0.5094
18577TIP3    H177222   6.601   4.263  14.024  0.0470  0.1794 -1.1776
18577TIP3    H277223   6.583   4.410  14.055 -0.2870  0.1000 -0.9954
18578TIP3   OH277224   4.913   1.209   2.721  1.0667 -0.8687 -0.0231
18578TIP3    H177225   4.908   1.296   2.760 -0.3626 -1.1459  0.4561
18578TIP3    H277226   4.873   1.218   2.635  2.3470 -0.7217 -0.6235
18579TIP3   OH277227   6.597   2.145   0.182 -0.1777 -0.0698 -0.1699
18579TIP3    H177228   6.540   2.214   0.217  0.0213 -0.9908  2.1391
18579TIP3    H277229   6.685   2.181   0.191 -0.2368  0.7405 -2.3130
18580TIP3   OH277230   4.632   2.266  14.055 -0.0091  0.4374  0.7857
18580TIP3    H177231   4.668   2.326  14.120 -0.9586  0.6232  1.1576
18580TIP3    H277232   4.706   2.243  14.000  0.1107  3.2207 -0.3759
18581TIP3   OH277233   4.342   4.056  13.829  0.1846 -0.0655 -0.1182
18581TIP3    H177234   4.312   3.976  13.787 -1.3031  1.2965 -1.7842
18581TIP3    H277235   4.372   4.028  13.916 -2.0343 -2.1567  0.0613
18582TIP3   OH277236   3.666   0.170  11.998  0.6026 -0.0357 -0.6613
18582TIP3    H177237   3.705   0.252  12.029 -0.6282  0.6312 -0.8160
18582TIP3    H277238   3.741   0.115  11.976  1.5157  0.2355  1.4863
18583TIP3   OH277239   6.804   4.424  15.368  0.1439  0.4681 -0.2049
18583TIP3    H177240   6.762   4.443  15.284 -0.1598  0.1021 -0.1409
18583TIP3    H277241   6.874   4.362  15.347 -1.0685 -1.0500  0.0253
18584TIP3   OH277242   0.191   4.441  12.612  0.4238  0.0185  0.1085
18584TIP3    H177243   0.236   4.512  12.566  1.9747 -0.8250  0.2604
18584TIP3    H277244   0.226   4.445  12.701 -2.7996  1.8682  1.4580
18585TIP3   OH277245   0.882   4.105  15.856 -0.5153  0.6228  0.0329
18585TIP3    H177246   0.807   4.060  15.894  0.4072 -2.0190 -1.0489
18585TIP3    H277247   0.861   4.115  15.763  0.2569  0.2836 -0.1923
18586TIP3   OH277248   0.530   5.065  11.127 -0.0735  0.3068  0.1729
18586TIP3    H177249   0.622   5.044  11.139  0.0083  1.0138  0.8346
18586TIP3    H277250   0.529   5.138  11.064 -0.0767  1.3164  1.3165
18587TIP3   OH277251   4.565   4.981   2.117  0.0794 -0.6889 -0.1886
18587TIP3    H177252   4.644   4.969   2.170 -0.2135 -0.3924  0.3227
18587TIP3    H277253   4.566   4.907   2.057  0.8483 -0.5814 -0.3236
18588TIP3   OH277254   4.471   0.296   3.023  0.3292 -0.2045 -0.2054
18588TIP3    H177255   4.498   0.207   3.043 -1.1622 -0.7530 -0.5426
18588TIP3    H277256   4.548   0.336   2.981  1.0845 -1.2394  0.1625
18589TIP3   OH277257   3.329   1.922  14.485 -0.3249 -0.0850 -0.0987
18589TIP3    H177258   3.400   1.910  14.548 -0.4425  1.5353  0.3988
18589TIP3    H277259   3.307   1.834  14.457  2.2583 -0.6340 -0.7012
18590TIP3   OH277260   3.559   3.837  10.728  0.6688  0.1034  0.1079
18590TIP3    H177261   3.497   3.867  10.661  1.1146  0.2179 -0.2619
18590TIP3    H277262   3.504   3.810  10.801  0.1996  0.6492 -0.0316
18591TIP3   OH277263   4.316   2.527  16.812 -0.5427 -0.6631  0.3776
18591TIP3    H177264   4.316   2.621  16.831  0.8413 -0.7966  1.1563
18591TIP3    H277265   4.408   2.503  16.811 -0.9037 -2.1742  0.9528
18592TIP3   OH277266   2.638   0.441   1.076  0.1152 -0.0025 -0.1186
18592TIP3    H177267   2.588   0.453   1.157  1.4470 -1.2476  0.9285
18592TIP3    H277268   2.636   0.347   1.060  1.5546  0.0050 -0.4159
18593TIP3   OH277269   3.006   3.830   2.405 -0.2692 -0.3671 -0.2328
18593TIP3    H177270   2.964   3.910   2.435 -0.3097 -0.1889 -0.7638
18593TIP3    H277271   3.033   3.848   2.315  0.2044 -0.7633 -0.1789
18594TIP3   OH277272   2.650   2.997  14.020 -0.1082 -1.0823  0.4837
18594TIP3    H177273   2.563   3.035  14.023  0.4254  0.1245  2.2530
18594TIP3    H277274   2.678   3.007  13.929 -0.3392  2.1001  0.6405
18595TIP3   OH277275   3.783   1.724  11.900  0.3903 -0.1061 -0.5199
18595TIP3    H177276   3.726   1.754  11.971 -1.2379 -0.0713 -1.7722
18595TIP3    H277277   3.851   1.792  11.894 -0.0097  0.3884  0.3533
18596TIP3   OH277278   3.948   0.543  16.076 -0.4697  0.1704 -0.3906
18596TIP3    H177279   4.041   0.533  16.096 -0.0420 -0.9391 -2.6174
18596TIP3    H277280   3.946   0.585  15.990 -1.9219 -1.7864 -1.3922
18597TIP3   OH277281   0.636   1.175  11.457 -0.2049 -0.3506 -0.0982
18597TIP3    H177282   0.650   1.261  11.417 -1.2555  0.9537  2.1490
18597TIP3    H277283   0.548   1.180  11.494  0.7293 -1.3377  2.4895
18598TIP3   OH277284   6.599   2.621  13.338  0.1130  0.1333  0.0875
18598TIP3    H177285   6.664   2.581  13.281 -0.3778 -0.7655  0.1529
18598TIP3    H277286   6.650   2.663  13.407  0.5961 -2.4098  1.3776
18599TIP3   OH277287   6.406   0.868  15.047 -0.2968 -0.0528 -0.3634
18599TIP3    H177288   6.467   0.941  15.036  0.8265 -1.0239 -0.7148
18599TIP3    H277289   6.322   0.902  15.015  0.6144  0.4959 -2.2975
18600TIP3   OH277290   5.406   1.678   1.196  0.1434  0.1532 -0.0992
18600TIP3    H177291   5.378   1.587   1.206 -2.5527  0.8031 -1.0717
18600TIP3    H277292   5.389   1.719   1.281  2.6876 -0.4664  0.8154
18601TIP3   OH277293   5.014   5.892   1.898 -0.7375 -0.2287  0.1515
18601TIP3    H177294   5.107   5.912   1.900 -0.5875 -0.9807  1.4944
18601TIP3    H277295   5.002   5.842   1.817 -0.0008 -0.0221 -0.0916
18602TIP3   OH277296   3.443   2.902  11.547  0.3286 -0.9143  0.0123
18602TIP3    H177297   3.513   2.967  11.541  0.4110 -0.9992  0.0472
18602TIP3    H277298   3.485   2.826  11.587 -0.1799 -0.3666  1.6757
18603TIP3   OH277299   0.386   4.408   0.553  0.2408  0.3271  0.1116
18603TIP3    H177300   0.447   4.350   0.509  0.3371  1.5641 -1.4950
18603TIP3    H277301   0.437   4.446   0.626  1.0077  0.4063 -0.4550
18604TIP3   OH277302   6.246   2.325  12.100  0.2901 -0.0794  0.0933
18604TIP3    H177303   6.168   2.378  12.118  1.7653  1.5216  2.3557
18604TIP3    H277304   6.217   2.235  12.113 -0.9665  0.5425  2.0104
18605TIP3   OH277305   2.505   5.202  11.068 -0.2207  0.0901  0.2829
18605TIP3    H177306   2.446   5.217  10.994 -1.2430 -2.4954  0.4585
18605TIP3    H277307   2.578   5.152  11.031  0.2521  0.4923  0.6597
18606TIP3   OH277308   2.155   5.956  11.497 -0.2859 -0.1698  0.2584
18606TIP3    H177309   2.222   5.891  11.477 -0.7733 -0.2588 -1.1841
18606TIP3    H277310   2.192   6.039  11.468 -1.5347 -0.4765 -2.5270
18607TIP3   OH277311   3.108   2.589   6.121  0.7186 -0.3836  0.3354
18607TIP3    H177312   3.152   2.511   6.157  1.3161 -0.6377 -0.9059
18607TIP3    H277313   3.175   2.657   6.121  0.3651 -0.0286  0.8550
18608TIP3   OH277314   4.339   0.319   4.743  0.7646  0.0430 -0.3103
18608TIP3    H177315   4.337   0.228   4.773  0.5035  0.0362 -0.3546
18608TIP3    H277316   4.248   0.341   4.727  0.6844  0.7263  0.9537
18609TIP3   OH277317   2.496   0.928   2.656  0.1341 -0.2041 -0.0391
18609TIP3    H177318   2.418   0.877   2.677 -0.2462  0.5209  0.3107
18609TIP3    H277319   2.509   0.985   2.731  1.6151 -1.0375  0.3856
18610TIP3   OH277320   1.373   0.182  15.464 -0.3004 -0.7765  0.4542
18610TIP3    H177321   1.455   0.223  15.490 -1.2002  2.8647 -1.7475
18610TIP3    H277322   1.394   0.130  15.387 -0.0416  0.4973 -0.3680
18611TIP3   OH277323   0.106   0.794   5.433 -0.1346 -0.2798 -0.1064
18611TIP3    H177324   0.149   0.752   5.508  1.0454  0.3311 -0.4195
18611TIP3    H277325   0.033   0.842   5.472 -1.4101 -2.3995  0.2807
18612TIP3   OH277326   3.392   0.504  13.843 -0.5270 -0.2366  0.7141
18612TIP3    H177327   3.328   0.575  13.845 -0.1341  0.1344  0.3002
18612TIP3    H277328   3.351   0.437  13.789  0.3941  0.9736 -1.6322
18613TIP3   OH277329   3.232   5.352  14.101 -0.3924  0.2095 -0.4217
18613TIP3    H177330   3.315   5.352  14.149 -0.3046  0.6636 -0.5621
18613TIP3    H277331   3.244   5.418  14.033 -0.7285 -0.0082 -0.6966
18614TIP3   OH277332   2.381   6.250   4.906  0.2868  0.0784  0.7179
18614TIP3    H177333   2.364   6.236   4.813  0.0953  1.0483  0.5936
18614TIP3    H277334   2.346   6.337   4.924 -0.0510 -0.2618  1.7980
18615TIP3   OH277335   2.318   4.146  13.816  0.3017  0.3134  0.4509
18615TIP3    H177336   2.376   4.087  13.864  0.2158 -0.1748 -0.0363
18615TIP3    H277337   2.361   4.232  13.821  2.3098 -0.4379 -1.8478
18616TIP3   OH277338   4.963   0.178  12.566 -0.3107 -0.0552  0.0885
18616TIP3    H177339   4.868   0.184  12.578 -0.7812 -0.6724 -2.5014
18616TIP3    H277340   4.975   0.093  12.522  1.0953  1.1571 -2.0224
18617TIP3   OH277341   6.068   0.093   1.256  0.1057  0.1133  0.3967
18617TIP3    H177342   5.998   0.147   1.293 -0.0029 -0.6217  1.2979
18617TIP3    H277343   6.136   0.155   1.232 -1.4583  1.0680 -2.0722
18618TIP3   OH277344   2.046   5.123  10.781 -0.2980  0.5211 -0.6101
18618TIP3    H177345   1.973   5.180  10.759 -1.2729 -0.7790 -0.8716
18618TIP3    H277346   2.056   5.066  10.705 -0.1509 -0.4428  0.1070
18619TIP3   OH277347   3.504   0.475   5.782 -0.0646  0.0990  0.5419
18619TIP3    H177348   3.491   0.406   5.717 -0.3600 -0.0884  0.7940
18619TIP3    H277349   3.462   0.441   5.861 -0.5040  0.7066  0.5767
18620TIP3   OH277350   2.680   4.873  13.354 -0.4651 -0.7802  0.0323
18620TIP3    H177351   2.744   4.932  13.313 -3.6962  5.2066  2.2746
18620TIP3    H277352   2.732   4.820  13.414  2.7167  1.4529 -0.4433
18621TIP3   OH277353   1.072   6.087  14.045  0.0684 -0.4083  0.0075
18621TIP3    H177354   1.037   6.048  13.964  1.1350  0.7839 -1.0778
18621TIP3    H277355   1.047   6.179  14.040 -0.2867 -0.4130  1.3151
18622TIP3   OH277356   3.791   6.692   3.204  0.2411  0.2637  0.1351
18622TIP3    H177357   3.801   6.669   3.112 -1.3529  0.4201 -0.1096
18622TIP3    H277358   3.795   6.609   3.250 -0.0010  0.0647 -0.1929
18623TIP3   OH277359   6.428   3.260  12.763 -0.3096 -0.1833 -0.3898
18623TIP3    H177360   6.482   3.269  12.842 -0.0454  1.6868 -0.7293
18623TIP3    H277361   6.339   3.247  12.796 -0.1889  0.4680  0.2307
18624TIP3   OH277362   5.842   6.298   2.815 -1.0288  0.2747  0.0888
18624TIP3    H177363   5.876   6.221   2.768  1.4609  1.4821 -0.2468
18624TIP3    H277364   5.872   6.286   2.905  0.3543  1.3350 -0.1986
18625TIP3   OH277365   5.683   1.352  15.877  0.4974  0.3346 -0.6416
18625TIP3    H177366   5.636   1.433  15.854  0.5146 -0.2639 -3.0333
18625TIP3    H277367   5.637   1.283  15.828  0.8037 -1.0544  0.9485
18626TIP3   OH277368   1.820   2.384   1.806 -0.4426 -0.5041  0.5639
18626TIP3    H177369   1.790   2.303   1.765 -0.2241 -0.2713 -0.0767
18626TIP3    H277370   1.741   2.436   1.818 -0.5686 -0.7699  0.8736
18627TIP3   OH277371   3.683   4.920   3.153  0.4888 -0.2280 -0.5042
18627TIP3    H177372   3.646   4.839   3.187  1.4854 -0.5959 -0.2807
18627TIP3    H277373   3.771   4.924   3.189  0.4312  1.0058 -0.4399
18628TIP3   OH277374   2.035   3.688  16.194 -0.0428  0.3243  0.0875
18628TIP3    H177375   2.006   3.704  16.284  1.2588 -0.6325  0.6984
18628TIP3    H277376   1.958   3.708  16.141 -0.9058  0.6893  1.4167
18629TIP3   OH277377   0.166   5.707   3.656  0.8158  0.3173  0.0928
18629TIP3    H177378   0.166   5.612   3.663  0.7496  0.2212 -0.9941
18629TIP3    H277379   0.160   5.738   3.746 -0.6501 -0.7141  0.3856
18630TIP3   OH277380   5.722   6.824   3.921  1.0446 -0.2330 -0.2444
18630TIP3    H177381   5.752   6.801   3.833  1.2298 -0.0272 -0.2347
18630TIP3    H277382   5.724   6.919   3.923 -0.3861 -0.1775 -0.5155
18631TIP3   OH277383   6.738   4.617   6.155 -0.1418  0.0653 -0.0048
18631TIP3    H177384   6.708   4.549   6.095 -0.1416 -0.6261  0.7597
18631TIP3    H277385   6.659   4.648   6.199  0.1336 -1.4076  1.6470
18632TIP3   OH277386   5.527   6.711   2.736  0.0257 -0.1966  0.0659
18632TIP3    H177387   5.561   6.719   2.647 -0.4323 -1.5938 -0.2713
18632TIP3    H277388   5.526   6.616   2.752  0.2523  0.0359  1.6256
18633TIP3   OH277389   4.174   4.244   5.026  0.4616  0.0160 -0.0077
18633TIP3    H177390   4.081   4.262   5.011  0.2028  1.9365  2.9188
18633TIP3    H277391   4.220   4.299   4.963 -0.3006 -1.5366 -2.0154
18634TIP3   OH277392   4.217   6.719  11.482 -0.3933  0.0658 -0.0382
18634TIP3    H177393   4.250   6.636  11.450 -1.4105  0.4695 -2.3363
18634TIP3    H277394   4.296   6.770  11.504  0.3193 -0.6924 -0.7846
18635TIP3   OH277395   3.759   5.312   4.762 -0.5069  0.1205  0.7211
18635TIP3    H177396   3.706   5.371   4.710  0.3579  1.1661  0.9847
18635TIP3    H277397   3.844   5.312   4.718 -0.2275 -0.1956  1.2509
18636TIP3   OH277398   2.026   6.539   4.955  0.3606 -0.2395  0.5644
18636TIP3    H177399   2.027   6.444   4.949  1.8808 -0.1605 -2.9394
18636TIP3    H277400   1.939   6.564   4.924 -1.3254 -0.4213  4.6571
18637TIP3   OH277401   3.914   4.361  15.602  0.7030 -0.8901 -0.6854
18637TIP3    H177402   3.867   4.325  15.526 -0.4702  0.2174 -0.5243
18637TIP3    H277403   3.878   4.313  15.677  1.1870 -1.3366 -0.7368
18638TIP3   OH277404   1.157   3.281   5.592  0.2248  0.3650 -0.3137
18638TIP3    H177405   1.156   3.220   5.666  1.0012  0.2515 -0.3943
18638TIP3    H277406   1.117   3.360   5.627 -1.3982 -0.3731 -0.3865
18639TIP3   OH277407   5.224   0.252   5.138  0.0733  0.2277 -0.2840
18639TIP3    H177408   5.298   0.308   5.116 -0.3961  1.4551  1.0711
18639TIP3    H277409   5.164   0.261   5.064 -1.0303  3.4630  0.8123
18640TIP3   OH277410   2.382   3.009  14.002  0.2070  0.1517  0.1458
18640TIP3    H177411   2.356   3.095  13.969 -1.5813 -0.0245  0.9813
18640TIP3    H277412   2.380   2.952  13.926 -1.3572  0.2784  0.0649
18641TIP3   OH277413   2.646   3.723   5.344 -0.3574 -0.3369 -0.1144
18641TIP3    H177414   2.681   3.640   5.376  1.8243 -0.0759 -1.6390
18641TIP3    H277415   2.618   3.705   5.254 -0.7107  0.3868 -0.1603
18642TIP3   OH277416   1.390   0.718   2.281  0.3819  0.1758  0.1345
18642TIP3    H177417   1.387   0.790   2.218  0.4867  0.6272  0.6332
18642TIP3    H277418   1.406   0.640   2.228  0.0218  0.4818 -0.4407
18643TIP3   OH277419   1.926   5.636  16.133  0.1522 -0.2523  0.0563
18643TIP3    H177420   1.862   5.564  16.138 -0.3019  0.2373  2.2396
18643TIP3    H277421   2.011   5.592  16.137 -0.1041 -0.7566  0.0529
18644TIP3   OH277422   4.933   1.702  12.805 -0.3432  0.2891 -0.0783
18644TIP3    H177423   4.926   1.795  12.825  1.4660  0.4667 -0.0731
18644TIP3    H277424   5.005   1.697  12.742 -0.7790 -1.0591 -0.4988
18645TIP3   OH277425   6.156   5.152   1.913  0.1133  0.1806 -0.4019
18645TIP3    H177426   6.216   5.197   1.854 -2.2257 -0.9682 -3.9479
18645TIP3    H277427   6.202   5.071   1.937  1.6494  1.3057  0.6311
18646TIP3   OH277428   3.346   6.297  10.951  0.5852  0.5389  0.2415
18646TIP3    H177429   3.258   6.259  10.955  0.5828  0.5304  0.1070
18646TIP3    H277430   3.379   6.273  10.865 -0.5314  3.2276 -1.0768
18647TIP3   OH277431   5.755   0.161   3.202  0.8227  0.5118 -0.3917
18647TIP3    H177432   5.765   0.068   3.186 -1.8335  0.2356 -0.8387
18647TIP3    H277433   5.818   0.202   3.143  1.9920 -0.9682 -0.2192
18648TIP3   OH277434   5.042   0.819   1.621 -0.4181  0.0722 -0.0801
18648TIP3    H177435   5.093   0.864   1.688  1.3381  1.1930 -2.0590
18648TIP3    H277436   4.972   0.881   1.599  0.2804  0.6438 -0.7564
18649TIP3   OH277437   6.406   6.640   0.755  0.3259  0.3110  0.1166
18649TIP3    H177438   6.379   6.556   0.791  0.3051 -0.7912 -2.2873
18649TIP3    H277439   6.502   6.634   0.750  0.5159  1.2759  1.7595
18650TIP3   OH277440   1.934   1.634  16.697  0.1102  0.3412  0.9437
18650TIP3    H177441   1.925   1.540  16.685  1.7029 -0.0135  2.2812
18650TIP3    H277442   1.853   1.660  16.742 -0.0001 -0.5198  1.2624
18651TIP3   OH277443   1.588   2.366   2.150  0.0109 -0.4185 -0.0473
18651TIP3    H177444   1.626   2.453   2.139  1.3434 -0.7053  1.6948
18651TIP3    H277445   1.652   2.307   2.111 -0.6519 -0.6624 -0.7813
18652TIP3   OH277446   6.025   2.456  12.276 -0.4118  0.2911  0.2489
18652TIP3    H177447   5.992   2.372  12.308 -0.4002 -0.5373 -1.7365
18652TIP3    H277448   6.032   2.511  12.354 -1.5146 -1.1805  1.4423
18653TIP3   OH277449   2.935   0.716  11.697 -0.6772 -0.2017  0.6437
18653TIP3    H177450   2.982   0.797  11.677 -2.3394  0.6870  0.1465
18653TIP3    H277451   2.997   0.664  11.748  0.8781  0.8425 -0.1081
18654TIP3   OH277452   3.290   5.407   2.046 -0.0596 -0.2180 -0.4724
18654TIP3    H177453   3.201   5.388   2.016 -1.0230  0.7733  1.5353
18654TIP3    H277454   3.317   5.484   1.996 -1.7507  1.6036  1.2467
18655TIP3   OH277455   0.494   5.952  16.679  0.4490  0.3709 -0.8892
18655TIP3    H177456   0.417   5.977  16.729 -0.9764  1.0483 -3.2509
18655TIP3    H277457   0.515   5.864  16.709 -1.7464 -0.1512 -0.7242
18656TIP3   OH277458   4.242   6.061  13.317  0.2479 -0.1602 -0.4825
18656TIP3    H177459   4.330   6.036  13.343  0.5025  0.5247 -0.6726
18656TIP3    H277460   4.217   5.995  13.252  1.5468  0.9450 -2.1984
18657TIP3   OH277461   3.288   2.688   3.381 -0.2023 -0.2595  0.1460
18657TIP3    H177462   3.207   2.642   3.363 -0.9280  0.7513  0.7273
18657TIP3    H277463   3.263   2.780   3.388  0.8694 -0.0014  1.0089
18658TIP3   OH277464   6.205   2.519  13.660 -0.3343 -0.0994  0.4596
18658TIP3    H177465   6.147   2.445  13.644 -1.9596  0.6497  2.3698
18658TIP3    H277466   6.234   2.507  13.751  0.8811  0.6573  0.2003
18659TIP3   OH277467   0.153   4.097   5.024  0.0596  0.3738  0.1609
18659TIP3    H177468   0.214   4.063   4.958 -0.8475  1.9605 -1.6009
18659TIP3    H277469   0.171   4.191   5.028 -0.3685  0.4195  1.7122
18660TIP3   OH277470   2.370   5.633  12.797 -0.0875 -0.0945  0.0012
18660TIP3    H177471   2.329   5.640  12.884  0.7356  0.8468  0.3354
18660TIP3    H277472   2.452   5.585  12.813  0.1875  0.3013 -0.2031
18661TIP3   OH277473   1.106   1.205  15.491  0.0014  0.5530  0.5543
18661TIP3    H177474   1.121   1.125  15.442 -0.0092  0.5873  0.4947
18661TIP3    H277475   1.015   1.198  15.520  0.4653 -0.1894  1.8946
18662TIP3   OH277476   3.894   2.009  14.143  0.0675 -0.0297  0.5154
18662TIP3    H177477   3.924   1.976  14.059 -2.2929 -1.6323  0.2348
18662TIP3    H277478   3.829   1.946  14.173 -0.9378  1.7627  2.4021
18663TIP3   OH277479   3.927   5.754  15.105  0.2310 -0.2231  0.0633
18663TIP3    H177480   3.899   5.768  15.014 -1.4093  1.1899  0.7307
18663TIP3    H277481   3.883   5.674  15.132  0.0525 -0.1905 -0.1303
18664TIP3   OH277482   2.216   3.486   3.789  0.2610  0.0066  0.1873
18664TIP3    H177483   2.170   3.553   3.738  0.6574 -0.1351 -0.3608
18664TIP3    H277484   2.302   3.480   3.748 -0.5466 -2.5562 -1.3383
18665TIP3   OH277485   0.915   6.523  11.014  0.0247 -0.1904  0.3291
18665TIP3    H177486   0.841   6.497  10.959  1.6660  0.2023 -2.2881
18665TIP3    H277487   0.886   6.603  11.056 -0.9923  0.0761 -0.8011
18666TIP3   OH277488   4.666   2.116  17.135 -0.1879  0.0307 -0.5767
18666TIP3    H177489   4.657   2.089  17.044 -1.5889  0.0339 -0.4516
18666TIP3    H277490   4.617   2.198  17.141 -0.3835 -0.1362  0.2521
18667TIP3   OH277491   2.020   6.659  17.202  0.0564  0.1774 -0.0358
18667TIP3    H177492   1.964   6.667  17.279 -0.0759  1.9843 -0.2718
18667TIP3    H277493   2.037   6.749  17.176  1.3825 -0.3776 -1.2066
18668TIP3   OH277494   4.522   0.338   0.143 -0.1084 -0.0458  0.0214
18668TIP3    H177495   4.573   0.415   0.168 -0.6710  0.5763 -0.7029
18668TIP3    H277496   4.445   0.341   0.199 -0.9499  0.8740 -1.1279
18669TIP3   OH277497   4.652   0.790   0.206  0.5188 -0.4645  0.3637
18669TIP3    H177498   4.736   0.835   0.213  0.3160  0.2923 -1.5930
18669TIP3    H277499   4.601   0.822   0.281  2.2217 -1.6489  2.1450
18670TIP3   OH277500   0.929   4.554   4.456 -0.1938 -0.6003 -0.4579
18670TIP3    H177501   0.940   4.549   4.551 -0.3027  1.2403 -0.3163
18670TIP3    H277502   0.875   4.632   4.442  0.3675 -0.4648 -2.0726
18671TIP3   OH277503   6.131   6.364   4.009  0.1308  0.2484 -0.6668
18671TIP3    H177504   6.202   6.393   3.952  0.3421  0.8887 -0.0779
18671TIP3    H277505   6.069   6.322   3.949  0.0586  1.4508 -1.4654
18672TIP3   OH277506   4.403   6.231  15.976  0.4029 -0.6424 -0.1469
18672TIP3    H177507   4.402   6.235  15.880  2.2266  0.5420 -0.1608
18672TIP3    H277508   4.333   6.290  16.003  2.3427  2.1419 -0.7962
18673TIP3   OH277509   4.417   2.543   0.596  0.5821  0.3358  0.1011
18673TIP3    H177510   4.446   2.623   0.641 -1.9458  0.1810  2.2987
18673TIP3    H277511   4.323   2.555   0.586  0.1670 -2.2497  0.3100
18674TIP3   OH277512   3.272   0.494  12.887 -0.5588 -0.2011 -0.3116
18674TIP3    H177513   3.223   0.454  12.959  0.8281 -0.1671  0.6906
18674TIP3    H277514   3.278   0.426  12.821 -1.7656 -0.2688 -0.3756
18675TIP3   OH277515   5.759   1.209  11.448 -0.3172 -0.2360 -0.1803
18675TIP3    H177516   5.822   1.144  11.477 -0.2482  0.5428  1.5359
18675TIP3    H277517   5.674   1.174  11.474 -0.3757 -0.1180 -0.2113
18676TIP3   OH277518   3.038   5.188   6.729 -0.1197 -0.0162 -0.2905
18676TIP3    H177519   3.009   5.220   6.644  2.1232  4.2061  0.2480
18676TIP3    H277520   3.127   5.156   6.714 -0.9343 -2.6565 -0.0276
18677TIP3   OH277521   1.666   0.533   3.587 -0.1076  0.7623 -0.1459
18677TIP3    H177522   1.643   0.600   3.651  0.4120  0.1623  0.6930
18677TIP3    H277523   1.583   0.490   3.567 -0.1714  0.4607  0.7111
18678TIP3   OH277524   3.262   0.036   6.310  0.5148  0.1023 -0.1853
18678TIP3    H177525   3.251   0.118   6.262 -1.3973 -0.2631 -0.4465
18678TIP3    H277526   3.356   0.018   6.305  0.7436  1.4378 -1.4893
18679TIP3   OH277527   0.839   4.154  12.054  0.2064  0.4350 -0.0636
18679TIP3    H177528   0.854   4.248  12.067  1.0405  0.2181  0.7026
18679TIP3    H277529   0.744   4.145  12.053  0.0995  1.3883 -1.0093
18680TIP3   OH277530   5.615   6.464   3.398  0.1944  0.1252 -0.1936
18680TIP3    H177531   5.546   6.493   3.458  0.0765 -0.3343 -0.0983
18680TIP3    H277532   5.568   6.422   3.326  0.3978 -2.8410  1.2548
18681TIP3   OH277533   0.926   5.115   0.145  0.2507 -0.3135 -0.6418
18681TIP3    H177534   0.944   5.032   0.102 -0.7336 -1.0740  0.3559
18681TIP3    H277535   0.862   5.158   0.088 -1.4849 -1.5666  0.2806
18682TIP3   OH277536   2.486   4.327   2.207  0.4150 -0.2763 -0.6991
18682TIP3    H177537   2.413   4.326   2.269 -0.0803 -0.6393 -1.2775
18682TIP3    H277538   2.445   4.342   2.122  0.8507 -1.8999 -1.2306
18683TIP3   OH277539   5.748   0.955  15.936 -0.4861  0.0814 -0.3059
18683TIP3    H177540   5.805   0.996  16.002 -0.3368  0.9995 -0.9829
18683TIP3    H277541   5.666   1.003  15.944 -0.6075 -0.0991 -0.4892
18684TIP3   OH277542   4.998   2.772  13.484 -0.1428 -0.0651  0.3863
18684TIP3    H177543   4.941   2.695  13.487  0.9282 -0.9727 -1.0465
18684TIP3    H277544   5.035   2.778  13.572 -1.6659 -0.0527  1.0463
18685TIP3   OH277545   1.443   1.188   2.729  0.3716  0.6696 -0.0886
18685TIP3    H177546   1.483   1.132   2.662  0.2228  1.8577 -1.2270
18685TIP3    H277547   1.517   1.222   2.779  0.4051 -1.3520  1.3444
18686TIP3   OH277548   2.668   1.637   0.239 -0.2967  0.3274 -0.0977
18686TIP3    H177549   2.712   1.562   0.279 -0.8095  0.2872  0.3958
18686TIP3    H277550   2.609   1.599   0.174 -1.2982  0.2223  0.8459
18687TIP3   OH277551   6.397   4.104  16.845 -0.3041 -0.1218 -0.2221
18687TIP3    H177552   6.353   4.189  16.851 -0.8594 -0.3971 -0.3380
18687TIP3    H277553   6.335   4.042  16.884 -0.1872 -0.5724 -0.7395
18688TIP3   OH277554   2.103   3.910   2.253  0.1510 -0.0638  0.1116
18688TIP3    H177555   2.121   3.968   2.179 -0.7393 -1.1909 -1.0340
18688TIP3    H277556   2.177   3.848   2.252 -0.0814 -0.3427 -0.1263
18689TIP3   OH277557   5.521   0.724   6.571  0.0609 -0.2077  0.0831
18689TIP3    H177558   5.609   0.712   6.606  0.3068 -0.4634 -0.6061
18689TIP3    H277559   5.478   0.639   6.585  0.2727 -0.4222 -0.5366
18690TIP3   OH277560   1.246   1.578   3.126 -0.1600 -0.0704 -0.1834
18690TIP3    H177561   1.310   1.550   3.191 -1.7938 -0.7852  1.2150
18690TIP3    H277562   1.206   1.496   3.095 -1.0899  0.3973 -0.2685
18691TIP3   OH277563   3.954   0.924  16.357 -0.0932 -0.2867 -0.0445
18691TIP3    H177564   3.881   0.865  16.375 -0.4986  0.5374  1.2167
18691TIP3    H277565   3.924   1.009  16.391  1.0932  0.2750 -0.3520
18692TIP3   OH277566   5.698   3.093  16.302  0.2352  0.4813  0.6982
18692TIP3    H177567   5.681   3.131  16.388 -1.2523 -1.7589  1.4962
18692TIP3    H277568   5.612   3.064  16.271  1.2501 -2.7117  0.4786
18693TIP3   OH277569   5.862   4.721   5.455  0.0282  0.7738  0.3476
18693TIP3    H177570   5.845   4.746   5.364 -1.4662  0.2161  0.4408
18693TIP3    H277571   5.956   4.705   5.458  0.0565  0.4406 -1.1993
18694TIP3   OH277572   3.260   6.080   5.852  0.3252  0.5326  0.4936
18694TIP3    H177573   3.221   6.041   5.931  0.4486  0.5436  0.5616
18694TIP3    H277574   3.276   6.005   5.794  0.8887  0.4314  0.7659
18695TIP3   OH277575   1.618   2.917   3.399  0.3675  0.1802  0.1627
18695TIP3    H177576   1.586   2.893   3.486  0.6602 -1.5820 -0.1812
18695TIP3    H277577   1.677   2.845   3.375  0.8546  1.0058 -1.1964
18696TIP3   OH277578   2.674   6.671  12.936  0.0785  0.1689  0.1078
18696TIP3    H177579   2.680   6.720  13.018  0.3044 -0.7298  0.6512
18696TIP3    H277580   2.602   6.609  12.951  0.8218 -0.7321  0.0469
18697TIP3   OH277581   1.900   6.206   1.108 -0.1410  0.4670 -0.5738
18697TIP3    H177582   1.982   6.242   1.141  0.6594 -2.0769  0.4377
18697TIP3    H277583   1.843   6.200   1.185 -0.4306  0.0561 -0.8107
18698TIP3   OH277584   5.457   2.671   3.184 -0.1477 -1.2351  0.3482
18698TIP3    H177585   5.483   2.686   3.275 -0.0838 -2.8795  0.6346
18698TIP3    H277586   5.451   2.576   3.177 -2.4887 -1.0678 -0.7210
18699TIP3   OH277587   3.675   1.290   3.500  0.1706 -0.2984  0.4722
18699TIP3    H177588   3.707   1.297   3.590 -2.2969 -0.4854  1.4525
18699TIP3    H277589   3.689   1.377   3.463  3.6179 -0.9048  0.0771
18700TIP3   OH277590   3.963   4.651   0.297  0.1981 -0.2169  0.7013
18700TIP3    H177591   3.985   4.600   0.219 -0.7362 -1.1593  1.0220
18700TIP3    H277592   4.024   4.621   0.364  3.2666  2.9196 -0.3954
18701TIP3   OH277593   1.887   4.156   2.219 -0.0631 -0.4323 -0.1569
18701TIP3    H177594   1.839   4.094   2.165 -0.7011 -0.1962  0.1244
18701TIP3    H277595   1.979   4.140   2.199 -0.2461 -1.1008 -0.4796
18702TIP3   OH277596   5.338   3.436  12.407 -0.0193  0.0452  0.0091
18702TIP3    H177597   5.398   3.365  12.385  0.4858  0.6768 -0.6875
18702TIP3    H277598   5.282   3.445  12.330  0.4966  0.9834 -0.2700
18703TIP3   OH277599   3.423   6.462   4.738  0.5209 -0.1911  0.0566
18703TIP3    H177600   3.440   6.553   4.764 -0.0586 -0.2383  0.6165
18703TIP3    H277601   3.332   6.446   4.762  1.4209 -1.8769  2.9683
18704TIP3   OH277602   2.533   0.384   5.241  0.2290  0.0053 -0.0705
18704TIP3    H177603   2.490   0.467   5.262 -0.0679 -0.3411  0.6953
18704TIP3    H277604   2.616   0.411   5.201  0.5260  0.6912  0.9555
18705TIP3   OH277605   1.960   6.328  17.127  0.2220 -0.4051  0.6355
18705TIP3    H177606   1.950   6.367  17.214 -0.7763  0.7282  0.0440
18705TIP3    H277607   1.878   6.282  17.111  0.8048 -1.5057  0.6941
18706TIP3   OH277608   3.746   0.949  11.928  0.3924 -0.5350 -0.0998
18706TIP3    H177609   3.808   1.022  11.935  0.7308 -0.7546 -0.6921
18706TIP3    H277610   3.679   0.980  11.868  1.5244 -1.3559 -1.8639
18707TIP3   OH277611   5.301   1.670  17.209 -0.5573  0.3457 -0.1243
18707TIP3    H177612   5.349   1.683  17.291  0.2983 -1.7423 -0.2251
18707TIP3    H277613   5.213   1.705  17.227 -0.1230  0.7668  1.3535
18708TIP3   OH277614   2.883   4.994   4.635  0.7289 -0.2928  0.2626
18708TIP3    H177615   2.941   5.025   4.705  1.5064 -0.4470 -0.3041
18708TIP3    H277616   2.890   4.899   4.639  0.9989 -0.2942 -0.2084
18709TIP3   OH277617   3.392   0.405  11.094  0.4052  0.6100 -0.6584
18709TIP3    H177618   3.438   0.454  11.162 -1.2174 -1.0013  1.7623
18709TIP3    H277619   3.360   0.473  11.034  0.3668  2.3315  1.1828
18710TIP3   OH277620   2.506   6.379   5.929  0.1968 -0.0893 -0.1397
18710TIP3    H177621   2.557   6.340   6.000 -1.5436 -0.9491  0.7045
18710TIP3    H277622   2.569   6.433   5.881  1.5818 -0.0507  1.6183
18711TIP3   OH277623   5.835   0.812  15.450 -0.0750  0.6222  0.1521
18711TIP3    H177624   5.824   0.855  15.535 -1.5267 -0.3896  0.4964
18711TIP3    H277625   5.910   0.753  15.463 -0.8611 -0.2165  1.0335
18712TIP3   OH277626   3.403   4.551   3.187  0.2364 -0.0218 -0.0228
18712TIP3    H177627   3.349   4.564   3.265 -0.8485  1.0189 -0.9212
18712TIP3    H277628   3.391   4.459   3.164 -1.0642  0.1656 -0.1338
18713TIP3   OH277629   5.397   4.506  14.371 -0.0331  0.0061  0.3018
18713TIP3    H177630   5.304   4.507  14.348 -0.3971 -0.2630  1.6373
18713TIP3    H277631   5.428   4.594  14.351  0.4954 -0.9325 -4.0107
18714TIP3   OH277632   0.359   0.338  15.074  0.4607  0.4675 -0.3966
18714TIP3    H177633   0.317   0.392  15.141 -0.4372  0.1518 -0.6934
18714TIP3    H277634   0.294   0.331  15.004  0.9113 -0.2503 -0.7526
18715TIP3   OH277635   2.842   0.482   1.525 -0.2750  0.2240  0.5910
18715TIP3    H177636   2.807   0.395   1.508 -1.6859  0.8027  0.4043
18715TIP3    H277637   2.864   0.517   1.439 -1.2187  0.6341  0.4948
18716TIP3   OH277638   1.307   2.966  13.990 -0.3628  0.3857 -0.0653
18716TIP3    H177639   1.286   2.955  14.083 -2.2028  0.2146 -0.4489
18716TIP3    H277640   1.277   3.055  13.970 -1.2172 -0.0354 -0.7581
18717TIP3   OH277641   3.147   1.419  16.093 -0.4818 -0.2308 -0.1326
18717TIP3    H177642   3.215   1.417  16.161  0.9855  0.3833 -1.5362
18717TIP3    H277643   3.065   1.414  16.142  0.4024  2.4994  1.8903
18718TIP3   OH277644   0.040   0.795  11.385 -0.0264 -0.4723  0.4481
18718TIP3    H177645   0.038   0.795  11.289  0.5938 -1.3148  0.4285
18718TIP3    H277646   0.111   0.855  11.407 -1.4598  1.3320  0.4515
18719TIP3   OH277647   1.973   1.044  14.758 -0.1041 -0.6670 -0.5430
18719TIP3    H177648   2.067   1.062  14.762  0.0504 -0.9047 -2.3431
18719TIP3    H277649   1.947   1.031  14.850  2.0709 -2.9315 -0.1435
18720TIP3   OH277650   5.065   0.541   1.264  0.4772 -0.4295 -0.6332
18720TIP3    H177651   5.008   0.495   1.202  0.1326 -1.1428  0.1954
18720TIP3    H277652   5.025   0.627   1.275 -1.1131 -1.3014  0.7906
18721TIP3   OH277653   6.011   1.406  11.601 -0.8477 -0.0726 -0.5067
18721TIP3    H177654   6.019   1.421  11.507 -0.4130  1.1818 -0.2923
18721TIP3    H277655   6.043   1.487  11.641 -0.5088 -0.7875  0.7323
18722TIP3   OH277656   0.927   5.515   2.207  0.4170 -0.1066 -0.0622
18722TIP3    H177657   0.983   5.453   2.254 -0.4446 -0.3239  0.7036
18722TIP3    H277658   0.844   5.469   2.195 -0.7458  1.3392  1.7927
18723TIP3   OH277659   3.458   0.643   1.853  0.0774  0.2665  0.5119
18723TIP3    H177660   3.502   0.569   1.812 -1.9440 -0.9058  0.3111
18723TIP3    H277661   3.493   0.646   1.942  0.0559 -1.0719  0.5827
18724TIP3   OH277662   4.335   6.138   1.058 -0.0536 -0.2972 -0.2508
18724TIP3    H177663   4.334   6.108   0.967  0.2800 -1.1776  0.0190
18724TIP3    H277664   4.387   6.072   1.104  1.0352  0.9173  0.3190
18725TIP3   OH277665   1.198   4.878   5.863 -0.0505  0.2037 -0.1706
18725TIP3    H177666   1.135   4.908   5.929  2.3369 -0.4897  2.6162
18725TIP3    H277667   1.185   4.783   5.859  1.7186 -0.1763  1.5980
18726TIP3   OH277668   3.491   4.691  14.035 -0.0066 -0.3113 -0.2163
18726TIP3    H177669   3.491   4.776  14.078 -1.5469 -0.1258 -0.5300
18726TIP3    H277670   3.483   4.628  14.106 -3.6231  0.0293 -0.1399
18727TIP3   OH277671   5.638   5.118  15.032  0.4751 -0.0950 -0.2006
18727TIP3    H177672   5.561   5.097  14.979  0.2114  1.1713 -0.3605
18727TIP3    H277673   5.608   5.111  15.122  0.6194 -1.1544 -0.2228
18728TIP3   OH277674   4.689   3.172   4.175  0.5167 -0.4049  0.1298
18728TIP3    H177675   4.703   3.239   4.242 -0.0598 -0.7150  0.5738
18728TIP3    H277676   4.765   3.114   4.183  0.4450 -0.4477  0.5327
18729TIP3   OH277677   1.848   0.719   2.368  0.5425  0.1374  0.4180
18729TIP3    H177678   1.901   0.764   2.302 -0.2881  0.0586 -0.3113
18729TIP3    H277679   1.835   0.785   2.437  1.1212  0.3270  0.3558
18730TIP3   OH277680   2.181   3.867   1.608  0.7141  0.5726  0.0215
18730TIP3    H177681   2.128   3.790   1.627  2.7050 -0.9489 -0.3077
18730TIP3    H277682   2.190   3.911   1.693 -2.7392  2.1371 -0.2234
18731TIP3   OH277683   3.726   0.472   0.984 -0.7032  0.3619  0.1989
18731TIP3    H177684   3.732   0.436   1.072  3.9868 -0.4078 -0.1726
18731TIP3    H277685   3.739   0.566   0.996 -0.3748  0.2988  0.3369
18732TIP3   OH277686   6.457   2.281  11.929 -0.2557  0.6901  0.2058
18732TIP3    H177687   6.386   2.306  11.988 -0.0682 -0.6931  1.0944
18732TIP3    H277688   6.425   2.302  11.842 -1.1229  1.5012  0.6952
18733TIP3   OH277689   5.203   6.623   0.440 -0.0665  0.0686  0.6301
18733TIP3    H177690   5.198   6.602   0.347 -1.4703 -0.1159  0.7247
18733TIP3    H277691   5.131   6.574   0.479  0.3853  0.3008  1.7903
18734TIP3   OH277692   0.020   6.290  13.926 -0.5974 -0.0495 -0.2551
18734TIP3    H177693  -0.032   6.220  13.885 -1.9964  0.8093  0.0038
18734TIP3    H277694   0.042   6.348  13.853 -1.6112  0.5651 -0.0867
18735TIP3   OH277695   6.725   0.835   5.640  0.3130 -0.3826 -0.3063
18735TIP3    H177696   6.706   0.817   5.732  0.1785 -0.4691 -0.3499
18735TIP3    H277697   6.686   0.921   5.623  0.7467 -0.1578 -0.1595
18736TIP3   OH277698   4.043   2.058  14.626  0.2209 -0.3438 -0.0766
18736TIP3    H177699   4.070   2.006  14.550  0.2373 -1.2083  0.5132
18736TIP3    H277700   3.993   2.130  14.588  0.5166 -0.5764 -0.9345
18737TIP3   OH277701   3.707   3.799  11.708  0.6617  0.1587 -0.3981
18737TIP3    H177702   3.715   3.709  11.674 -1.0633 -0.0169 -0.4409
18737TIP3    H277703   3.731   3.854  11.634  0.7369 -0.2575 -0.6904
18738TIP3   OH277704   2.477   1.958  11.367  0.2587 -0.0345  0.1470
18738TIP3    H177705   2.406   1.924  11.313  1.2384 -1.2412 -0.4281
18738TIP3    H277706   2.523   1.880  11.398  0.2385  0.6494  2.0541
18739TIP3   OH277707   0.004   5.127  13.901  0.0706  0.0371 -0.0079
18739TIP3    H177708  -0.088   5.144  13.921  0.1158 -0.4035  0.6453
18739TIP3    H277709   0.009   5.121  13.806 -0.5643  0.1456 -0.0452
18740TIP3   OH277710   3.720   5.029   4.214  0.1738  0.0752 -0.3125
18740TIP3    H177711   3.650   4.988   4.163  1.2153 -1.9171 -0.2098
18740TIP3    H277712   3.683   5.039   4.301 -0.3689  0.1251 -0.5436
18741TIP3   OH277713   0.941   5.367   4.626 -0.0819 -0.1070  0.1593
18741TIP3    H177714   1.031   5.343   4.603  0.1441 -0.8903  1.7432
18741TIP3    H277715   0.903   5.288   4.663 -1.6871  0.0105 -1.1225
18742TIP3   OH277716   6.412   5.343   4.797 -0.1677 -0.3103 -0.6383
18742TIP3    H177717   6.322   5.323   4.771  0.5445  0.1979 -3.9919
18742TIP3    H277718   6.418   5.439   4.792  0.6009 -0.3534 -0.7122
18743TIP3   OH277719   0.357   3.004   1.229  0.3492 -0.0368 -0.4492
18743TIP3    H177720   0.442   2.965   1.249  1.0005  1.9149  0.9098
18743TIP3    H277721   0.338   2.975   1.140  0.9770 -2.9455  0.2769
18744TIP3   OH277722   6.404   0.934  14.173 -0.0863 -0.3494 -0.0862
18744TIP3    H177723   6.345   0.897  14.106  0.3705 -0.7172 -0.2928
18744TIP3    H277724   6.465   0.988  14.123 -0.5244  0.3999  0.1770
18745TIP3   OH277725   1.339   4.334   3.077 -0.0914  0.3250  0.1212
18745TIP3    H177726   1.255   4.371   3.105 -2.1354 -3.3584 -0.5219
18745TIP3    H277727   1.332   4.326   2.982  0.0580 -1.8857  0.2500
18746TIP3   OH277728   3.486   5.136  17.026 -0.0497  0.1485  0.2405
18746TIP3    H177729   3.425   5.111  17.095 -0.8921  0.1419 -0.4892
18746TIP3    H277730   3.525   5.054  16.998 -1.5181 -0.1773 -0.9505
18747TIP3   OH277731   6.831   0.956  11.959  0.5128 -0.3059  0.1548
18747TIP3    H177732   6.793   0.874  11.992 -0.0996 -0.7081 -1.4805
18747TIP3    H277733   6.767   0.989  11.896  1.2890  0.8356 -0.0626
18748TIP3   OH277734   0.220   2.720  12.926  0.6238 -0.3552 -0.3298
18748TIP3    H177735   0.158   2.651  12.902  0.8152  0.0553 -2.1981
18748TIP3    H277736   0.287   2.676  12.978  1.3327 -1.8674 -2.4028
18749TIP3   OH277737   3.318   5.154   3.959  0.0643  0.2157 -0.0407
18749TIP3    H177738   3.271   5.121   3.882 -0.3653 -1.7967  1.0290
18749TIP3    H277739   3.390   5.093   3.972 -0.1070  0.2762  1.3989
18750TIP3   OH277740   5.243   2.463  12.845  0.1017  0.6061  0.6772
18750TIP3    H177741   5.251   2.381  12.895 -0.0969  0.2566  0.1507
18750TIP3    H277742   5.228   2.434  12.755  3.0212  1.1580 -0.0961
18751TIP3   OH277743   4.530   0.550  14.225  0.4114 -0.3046  0.4405
18751TIP3    H177744   4.444   0.591  14.237  0.3363  0.5338 -2.3707
18751TIP3    H277745   4.510   0.464  14.187  0.7585 -1.4464  2.6643
18752TIP3   OH277746   2.397   5.176   3.897 -0.1361  0.1327 -0.2958
18752TIP3    H177747   2.422   5.152   3.807  1.3415 -0.0468  0.1358
18752TIP3    H277748   2.303   5.192   3.892 -0.7382 -2.9065 -1.2671
18753TIP3   OH277749   5.027   1.371  14.611  0.2137 -0.3166  0.4282
18753TIP3    H177750   4.997   1.284  14.636  0.6698 -1.2734 -2.1307
18753TIP3    H277751   4.975   1.431  14.665  0.6583 -2.1298  3.0578
18754TIP3   OH277752   5.142   4.418   3.663 -0.2326  0.0174  0.3851
18754TIP3    H177753   5.134   4.329   3.697  0.0637  0.4287  1.5917
18754TIP3    H277754   5.138   4.474   3.741 -3.0866  1.2663 -0.5245
18755TIP3   OH277755   6.223   2.815  12.279  0.0256  0.3775  0.0396
18755TIP3    H177756   6.288   2.884  12.265  1.5213 -1.2196 -1.1513
18755TIP3    H277757   6.173   2.812  12.198  1.4000 -1.3547 -0.7989
18756TIP3   OH277758   0.234   6.712  14.556 -0.2189  0.4435 -0.2971
18756TIP3    H177759   0.270   6.724  14.468  0.8849  2.9238  0.4041
18756TIP3    H277760   0.303   6.665  14.603  0.3055  1.3504 -0.1243
18757TIP3   OH277761   6.812   2.465  15.783  0.1872 -0.3572 -0.1925
18757TIP3    H177762   6.734   2.476  15.728  0.1501 -1.1317 -0.3101
18757TIP3    H277763   6.868   2.407  15.733  1.0030  0.4797 -0.2603
18758TIP3   OH277764   3.238   5.554  13.276  0.1580 -0.1904  0.0099
18758TIP3    H177765   3.200   5.466  13.284  2.0512 -1.0211  0.3352
18758TIP3    H277766   3.327   5.545  13.310  0.4634  1.8222 -0.1500
18759TIP3   OH277767   1.163   0.156   1.777  0.3729 -0.1948 -0.0464
18759TIP3    H177768   1.221   0.080   1.771  1.2425  0.4701 -0.2734
18759TIP3    H277769   1.088   0.125   1.827  0.8901 -1.0985  0.1929
18760TIP3   OH277770   4.458   2.212   1.621 -0.0206 -0.1014  0.2494
18760TIP3    H177771   4.473   2.153   1.695  0.1202 -0.0304  0.2765
18760TIP3    H277772   4.461   2.155   1.544 -0.3893 -0.2112  0.3146
18761TIP3   OH277773   5.711   3.684  13.672 -0.0242  0.0065 -0.4622
18761TIP3    H177774   5.637   3.650  13.721 -1.9130  2.7265 -1.2148
18761TIP3    H277775   5.744   3.609  13.622 -0.1852 -1.9969  2.2381
18762TIP3   OH277776   1.640   1.992  14.909 -0.5337 -0.1706  0.1749
18762TIP3    H177777   1.648   2.086  14.925  0.9370 -0.0718 -0.9024
18762TIP3    H277778   1.661   1.982  14.817  0.1159 -1.6388  0.4533
18763TIP3   OH277779   3.459   0.091  14.678 -0.4188 -1.1125  0.1981
18763TIP3    H177780   3.473   0.179  14.643 -0.9549 -0.9027  0.5207
18763TIP3    H277781   3.365   0.083  14.687 -0.3659 -1.6850  0.2750
18764TIP3   OH277782   2.059   6.674  14.783 -0.0535  0.0138 -0.0928
18764TIP3    H177783   2.082   6.708  14.870 -1.5080 -1.5495  0.9885
18764TIP3    H277784   2.006   6.744  14.744 -0.3203  0.3040  0.7535
18765TIP3   OH277785   4.773   1.443  12.146 -0.2930  0.2828  0.2946
18765TIP3    H177786   4.688   1.411  12.120 -0.4171  0.8299  0.0078
18765TIP3    H277787   4.768   1.451  12.241 -0.7498  0.8201  0.2321
18766TIP3   OH277788   4.337   0.825  15.738 -0.3067 -0.5743 -0.0110
18766TIP3    H177789   4.416   0.878  15.725  0.2480 -1.2725  0.4288
18766TIP3    H277790   4.290   0.833  15.655 -0.4911  0.9861  0.2055
18767TIP3   OH277791   2.597   2.039  11.661  0.5509  0.7479 -0.2092
18767TIP3    H177792   2.507   2.011  11.640 -0.3470 -0.1017  3.9289
18767TIP3    H277793   2.648   1.958  11.657 -0.5603 -0.5270  4.4330
18768TIP3   OH277794   1.403   2.436   5.416  0.5085  0.3751  0.3509
18768TIP3    H177795   1.375   2.476   5.498  0.2994  1.8581 -0.4081
18768TIP3    H277796   1.417   2.510   5.357  2.0288 -0.5704 -0.5351
18769TIP3   OH277797   2.851   2.100  17.203 -0.1406 -0.4058  0.3647
18769TIP3    H177798   2.767   2.147  17.204  0.5592  0.8988  1.3573
18769TIP3    H277799   2.827   2.008  17.215 -1.4524 -0.1122  0.2242
18770TIP3   OH277800   3.682   1.281  14.533 -0.0314  0.3904 -0.2042
18770TIP3    H177801   3.707   1.313  14.619 -0.2432  2.4243 -0.8439
18770TIP3    H277802   3.762   1.242  14.498 -0.0849 -0.9532  1.0839
18771TIP3   OH277803   4.530   0.462   1.407 -0.1549  0.6989 -0.7462
18771TIP3    H177804   4.498   0.536   1.459 -1.0254 -1.0947  1.4085
18771TIP3    H277805   4.455   0.436   1.354 -0.8181 -0.4212  0.6762
18772TIP3   OH277806   3.619   6.312  13.316  0.3679 -0.1501  0.1314
18772TIP3    H177807   3.540   6.334  13.365 -0.5252  2.3378 -2.1326
18772TIP3    H277808   3.691   6.339  13.373 -0.4932 -0.2451  1.2934
18773TIP3   OH277809   1.336   4.026   5.239  0.7735  0.0150  0.6344
18773TIP3    H177810   1.282   4.105   5.246  1.6159  0.6003  0.6935
18773TIP3    H277811   1.334   3.989   5.327 -1.4019 -1.2701  0.1224
18774TIP3   OH277812   2.143   5.461   4.699 -0.1968  0.3153 -0.7188
18774TIP3    H177813   2.162   5.395   4.766  3.0060  1.5695 -0.2280
18774TIP3    H277814   2.113   5.410   4.624 -0.5846 -1.4192  0.5332
18775TIP3   OH277815   0.460   0.129  14.842 -0.7151  0.5523  0.5120
18775TIP3    H177816   0.429   0.126  14.752 -2.4917  1.5743  1.0173
18775TIP3    H277817   0.379   0.131  14.894  0.2470  1.4837  2.0370
18776TIP3   OH277818   3.955   5.873  15.779 -0.2319 -0.3097  0.1600
18776TIP3    H177819   4.008   5.923  15.842 -0.2061 -0.5582  0.3380
18776TIP3    H277820   4.012   5.800  15.753 -0.7993 -1.0832  1.0256
18777TIP3   OH277821   4.833   2.778  10.376 -0.1035  0.0196 -0.3699
18777TIP3    H177822   4.815   2.685  10.390  0.6184 -0.2609 -1.2395
18777TIP3    H277823   4.910   2.795  10.431 -0.4914  0.2157  0.1221
18778TIP3   OH277824   6.313   2.590   2.312  0.2615  0.0248  0.0216
18778TIP3    H177825   6.345   2.662   2.367  0.9347 -0.4389  0.2404
18778TIP3    H277826   6.332   2.511   2.362  1.0084 -0.4131 -0.9344
18779TIP3   OH277827   3.357   3.490  15.738 -0.6008  0.3720  0.1490
18779TIP3    H177828   3.369   3.411  15.790  1.5004 -0.1866 -1.0504
18779TIP3    H277829   3.446   3.518  15.716 -1.3478  1.9058 -1.1683
18780TIP3   OH277830   5.573   5.602  11.778  0.0767 -0.4708  0.4168
18780TIP3    H177831   5.601   5.545  11.706 -0.6907 -0.4616  0.1112
18780TIP3    H277832   5.645   5.597  11.841  1.4006  0.5771 -0.9306
18781TIP3   OH277833   1.055   2.604  15.275  0.0903 -0.0578 -0.3987
18781TIP3    H177834   1.097   2.615  15.360  0.3959  0.6986 -0.6427
18781TIP3    H277835   1.117   2.551  15.225 -0.2880 -0.8825 -0.0183
18782TIP3   OH277836   2.267   1.114   3.615  0.3855  0.3608  0.0959
18782TIP3    H177837   2.358   1.086   3.607  0.2444  0.2221 -1.3463
18782TIP3    H277838   2.256   1.180   3.546 -0.8070 -0.1984 -0.2808
18783TIP3   OH277839   5.922   6.435   5.601  0.3665 -0.0233  0.3778
18783TIP3    H177840   5.844   6.488   5.586  0.1703  0.6135  3.0425
18783TIP3    H277841   5.893   6.345   5.588 -0.7597  0.2304  0.9976
18784TIP3   OH277842   1.743   3.892  15.394  0.7338 -0.8651 -0.1945
18784TIP3    H177843   1.749   3.949  15.470 -1.4737 -0.4220 -0.2908
18784TIP3    H277844   1.703   3.946  15.326  0.5126 -1.9257 -0.9380
18785TIP3   OH277845   1.373   2.387   2.326 -0.2840  1.0981  0.0459
18785TIP3    H177846   1.431   2.405   2.252 -0.1485  0.9468  0.1165
18785TIP3    H277847   1.396   2.298   2.354 -0.5592  1.0286  0.0628
18786TIP3   OH277848   6.659   5.947  11.474  0.4734  0.1324 -0.1521
18786TIP3    H177849   6.697   5.918  11.557  1.8390 -1.8336 -1.3932
18786TIP3    H277850   6.568   5.968  11.496  0.2125 -2.2583  1.4870
18787TIP3   OH277851   0.575   3.377   0.331  0.5653 -0.1503 -0.2443
18787TIP3    H177852   0.635   3.426   0.388  2.4258 -4.0178  1.4810
18787TIP3    H277853   0.623   3.369   0.248  0.6654  0.1320 -0.2155
18788TIP3   OH277854   1.693   3.592  14.566  0.0144 -0.3749 -0.4822
18788TIP3    H177855   1.766   3.541  14.601 -0.1665 -0.6649 -0.5285
18788TIP3    H277856   1.668   3.547  14.485  0.7934  0.6062 -1.2999
18789TIP3   OH277857   6.548   4.727   4.816  0.0749 -0.4895 -0.4352
18789TIP3    H177858   6.521   4.807   4.771  0.0603 -0.0655  0.3215
18789TIP3    H277859   6.641   4.741   4.835  0.3048 -1.0411 -1.1142
18790TIP3   OH277860   5.854   4.453  13.498 -0.2447  0.4178 -0.2231
18790TIP3    H177861   5.833   4.369  13.459 -2.5067  0.9998 -0.4205
18790TIP3    H277862   5.844   4.516  13.427  2.8908  0.7973 -0.4729
18791TIP3   OH277863   1.091   1.354  16.093 -0.3882 -0.5917 -0.1539
18791TIP3    H177864   1.134   1.420  16.146 -2.5942  0.3812  0.5406
18791TIP3    H277865   1.098   1.387  16.003 -1.7557  0.8200  0.2162
18792TIP3   OH277866   4.249   2.751  14.088 -0.4623  0.3610 -0.4111
18792TIP3    H177867   4.271   2.782  14.000 -0.2419  1.0237 -0.1274
18792TIP3    H277868   4.210   2.827  14.131 -1.3322 -0.1873 -0.1997
18793TIP3   OH277869   1.977   4.760  11.485 -0.6174  0.4907  0.3089
18793TIP3    H177870   1.961   4.818  11.411  0.6575  1.6717  0.9200
18793TIP3    H277871   1.894   4.759  11.533 -0.5470  2.1743  0.5071
18794TIP3   OH277872   6.500   6.760   3.044 -0.0485  0.1505  0.5320
18794TIP3    H177873   6.595   6.756   3.055 -0.0569 -0.0344  0.5313
18794TIP3    H277874   6.483   6.721   2.958 -0.0919  0.5261  0.3685
18795TIP3   OH277875   0.654   1.052  14.915 -0.0201  0.1913  0.4169
18795TIP3    H177876   0.732   1.002  14.890 -0.5554 -1.3167  1.5813
18795TIP3    H277877   0.589   1.029  14.849 -0.0966 -0.2270  0.6339
18796TIP3   OH277878   4.436   4.254  12.331 -0.6176  0.7602  0.0226
18796TIP3    H177879   4.408   4.164  12.316  0.9692  0.3157 -0.5108
18796TIP3    H277880   4.526   4.246  12.364 -0.3073  2.1482 -0.4078
18797TIP3   OH277881   5.429   1.945   4.725  0.4705  0.0168  0.2972
18797TIP3    H177882   5.465   1.953   4.637  1.3687 -0.3417  0.6177
18797TIP3    H277883   5.382   1.862   4.725  0.0457  0.2551  0.0164
18798TIP3   OH277884   0.850   4.007  14.699 -1.0347 -0.2317  0.2003
18798TIP3    H177885   0.891   3.969  14.621 -0.8227 -1.9405  1.0939
18798TIP3    H277886   0.759   3.978  14.696 -1.8516  2.1327 -0.8724
18799TIP3   OH277887   6.498   4.003   2.938 -0.3106  0.2780  1.0417
18799TIP3    H177888   6.501   3.908   2.929 -1.5345  0.2028  1.2768
18799TIP3    H277889   6.528   4.019   3.028 -0.4798  0.0896  1.1316
18800TIP3   OH277890   0.129   2.274   1.792 -0.4805  0.1675 -0.1818
18800TIP3    H177891   0.084   2.210   1.736  0.0910 -1.4551  1.1187
18800TIP3    H277892   0.215   2.236   1.807  0.4123  1.9767 -0.5142
18801TIP3   OH277893   3.806   4.493  16.794  0.0473  0.5443  0.1937
18801TIP3    H177894   3.736   4.452  16.744 -0.9474  0.4654  1.6014
18801TIP3    H277895   3.772   4.579  16.818 -0.6590 -0.4030  2.9993
18802TIP3   OH277896   1.161   1.474  13.935 -0.3924 -0.1720 -0.6431
18802TIP3    H177897   1.092   1.466  13.870 -0.7879  1.4783 -0.4658
18802TIP3    H277898   1.226   1.531  13.894  1.0324 -1.8960 -0.9090
18803TIP3   OH277899   4.434   5.993  14.895  0.3325 -0.0642  0.3591
18803TIP3    H177900   4.456   5.908  14.932 -2.0417 -1.0140 -0.1797
18803TIP3    H277901   4.400   6.043  14.970 -0.0321 -0.2832  0.3437
18804TIP3   OH277902   5.829   4.380  13.763 -0.3605 -0.0928 -0.0121
18804TIP3    H177903   5.863   4.292  13.782  1.6543  0.6936  0.3202
18804TIP3    H277904   5.844   4.391  13.669 -4.1423 -1.4560 -0.9373
18805TIP3   OH277905   0.795   3.503  12.580  0.2100  0.3720  0.1990
18805TIP3    H177906   0.726   3.459  12.530  1.1690 -1.1160  0.1394
18805TIP3    H277907   0.873   3.449  12.568  1.3717  1.9027  0.4308
18806TIP3   OH277908   5.649   2.909   4.281  0.5223  0.1273 -0.3212
18806TIP3    H177909   5.618   2.999   4.266 -0.5555 -0.1495  0.1996
18806TIP3    H277910   5.696   2.887   4.201 -0.1694  0.7648 -0.9214
18807TIP3   OH277911   1.960   0.788   0.941  0.7239  0.0627 -0.2662
18807TIP3    H177912   1.985   0.877   0.917  0.6126  0.0111 -0.5804
18807TIP3    H277913   2.040   0.737   0.930  1.3766  0.5105  2.0339
18808TIP3   OH277914   0.509   0.867   1.367 -0.5846  0.7020 -0.0540
18808TIP3    H177915   0.480   0.891   1.279 -0.9082 -0.4791 -0.2771
18808TIP3    H277916   0.433   0.887   1.423 -0.8992  0.1039 -0.2581
18809TIP3   OH277917   1.975   0.848   3.080 -0.0291 -0.1602 -0.8671
18809TIP3    H177918   1.882   0.852   3.101 -1.0438 -2.1815 -4.1761
18809TIP3    H277919   2.011   0.782   3.140 -0.4830  1.1009  0.8729
18810TIP3   OH277920   2.624   5.723  17.013 -0.1350 -0.0841 -0.8302
18810TIP3    H177921   2.703   5.746  17.061  0.7947 -0.4120 -2.1484
18810TIP3    H277922   2.555   5.775  17.054  0.7065  0.0348  0.4941
18811TIP3   OH277923   4.932   6.030  14.233  0.5602  0.1479  0.3668
18811TIP3    H177924   4.991   5.955  14.227 -1.5803 -1.6091 -0.0714
18811TIP3    H277925   4.863   6.011  14.170  0.8536  3.4453 -1.1411
18812TIP3   OH277926   0.551   4.772   5.781 -0.2613 -0.4001 -0.6020
18812TIP3    H177927   0.618   4.807   5.722 -2.0860  0.0397 -2.5343
18812TIP3    H277928   0.555   4.828   5.858  0.4779  0.6523 -1.3742
18813TIP3   OH277929   0.641   1.774   3.947  0.1532  0.4224  0.1583
18813TIP3    H177930   0.584   1.806   4.016  0.3373  0.6341  0.2137
18813TIP3    H277931   0.729   1.798   3.976  0.1610  1.4346 -0.6361
18814TIP3   OH277932   6.123   5.654   3.435  0.3405  0.8489  0.0120
18814TIP3    H177933   6.113   5.582   3.498  0.6914 -0.2980 -1.2053
18814TIP3    H277934   6.102   5.732   3.486 -2.3903 -0.2595  0.8241
18815TIP3   OH277935   5.398   1.022   2.646 -0.0053  0.1042  0.2193
18815TIP3    H177936   5.318   1.062   2.681 -0.2352 -1.1301  1.1821
18815TIP3    H277937   5.469   1.075   2.683 -0.3410  1.8567 -1.4720
18816TIP3   OH277938   4.411   3.245   1.787 -0.0974  0.8252  0.2142
18816TIP3    H177939   4.467   3.170   1.805  1.1299  1.9493  1.3193
18816TIP3    H277940   4.323   3.217   1.810  0.4685 -0.0039  1.4417
18817TIP3   OH277941   0.821   1.757  13.025  0.7058 -0.3828  0.4613
18817TIP3    H177942   0.868   1.742  13.106  0.4995 -3.8874  0.0591
18817TIP3    H277943   0.740   1.708  13.034 -0.2387  0.7689 -1.1440
18818TIP3   OH277944   5.749   2.926   5.289  0.3522 -0.3728  0.1228
18818TIP3    H177945   5.667   2.877   5.291  0.1267  0.0186  1.4713
18818TIP3    H277946   5.734   2.997   5.226 -0.2163 -0.5279  0.0825
18819TIP3   OH277947   3.223   6.147  15.084  0.3893 -0.0057 -0.8820
18819TIP3    H177948   3.315   6.137  15.110  0.4178  0.3747 -0.8304
18819TIP3    H277949   3.198   6.060  15.052  0.6232 -0.2441 -0.4382
18820TIP3   OH277950   1.629   6.710   4.210 -0.0316 -0.1154 -0.0588
18820TIP3    H177951   1.660   6.649   4.278  0.3226  0.1173 -0.0090
18820TIP3    H277952   1.680   6.687   4.133 -1.7898 -1.6905 -0.8301
18821TIP3   OH277953   2.302   3.539   0.254 -0.0232  0.1748 -0.1810
18821TIP3    H177954   2.271   3.559   0.166 -1.6999  0.7752  0.5151
18821TIP3    H277955   2.318   3.444   0.253 -0.3639  0.1252 -1.0190
18822TIP3   OH277956   4.081   0.123  12.206 -1.5561  0.2795  0.4526
18822TIP3    H177957   4.071   0.197  12.146 -0.9930  1.5941  1.9203
18822TIP3    H277958   4.164   0.139  12.250 -1.6494 -0.9911  1.1277
18823TIP3   OH277959   1.922   0.685  12.344  0.3697 -0.6169 -0.4526
18823TIP3    H177960   1.995   0.726  12.391 -0.2300 -0.4179  0.3407
18823TIP3    H277961   1.852   0.751  12.348 -1.0497 -2.1124  1.9577
18824TIP3   OH277962   4.561   4.310  14.800 -0.4006 -0.0834  0.4315
18824TIP3    H177963   4.563   4.243  14.868 -0.5631 -0.6551 -0.1218
18824TIP3    H277964   4.533   4.389  14.846 -1.9460 -0.7891  0.7632
18825TIP3   OH277965   6.199   4.997  12.140 -0.3280  0.1249  0.6733
18825TIP3    H177966   6.158   5.029  12.220 -1.5460  0.6563 -0.1430
18825TIP3    H277967   6.145   4.924  12.112  0.3825 -0.3846  0.5920
18826TIP3   OH277968   1.728   1.751   3.082  0.3875 -0.3485 -0.2190
18826TIP3    H177969   1.667   1.825   3.080  1.4893  0.6801  1.5625
18826TIP3    H277970   1.675   1.676   3.058 -0.4188  1.1662 -3.8710
18827TIP3   OH277971   2.559   3.258  12.577  0.1616 -0.3551  0.7239
18827TIP3    H177972   2.477   3.259  12.528  0.5815 -2.0145 -0.0874
18827TIP3    H277973   2.598   3.172  12.557  2.1201  0.4058  1.0203
18828TIP3   OH277974   1.081   0.159  13.064  0.3141  0.1623  0.3421
18828TIP3    H177975   1.129   0.177  12.983 -0.8528  0.0192 -0.3994
18828TIP3    H277976   1.001   0.115  13.035 -0.0631  0.0101  1.5857
18829TIP3   OH277977   3.148   2.971   2.902  0.0290 -0.0257 -0.5838
18829TIP3    H177978   3.055   2.952   2.903 -0.2510  1.2072  1.4607
18829TIP3    H277979   3.157   3.051   2.953  1.9663  1.1656 -2.5921
18830TIP3   OH277980   6.562   6.766   0.083 -0.0194  0.1609 -0.0679
18830TIP3    H177981   6.540   6.675   0.062  0.8455 -0.0730  0.0216
18830TIP3    H277982   6.559   6.811  -0.001 -0.8353  0.1446 -0.0615
18831TIP3   OH277983   2.349   0.659  11.419 -0.0934 -0.0846 -0.0832
18831TIP3    H177984   2.294   0.602  11.473  0.4023 -0.5308 -0.0383
18831TIP3    H277985   2.357   0.739  11.470 -0.5470 -0.0858 -0.0052
18832TIP3   OH277986   5.120   0.461  14.639  0.2036 -0.1797  0.7009
18832TIP3    H177987   5.055   0.493  14.576  0.4111  0.1853  0.6724
18832TIP3    H277988   5.179   0.535  14.652  1.3902 -0.9147 -0.2831
18833TIP3   OH277989   5.779   4.884   2.239 -0.2611  0.0557 -0.0978
18833TIP3    H177990   5.804   4.882   2.332  1.1116 -1.7707 -0.4556
18833TIP3    H277991   5.808   4.970   2.209  0.7253  0.0727  0.8090
18834TIP3   OH277992   4.273   4.116  15.256  0.2244 -0.1145 -0.2026
18834TIP3    H177993   4.250   4.132  15.165 -0.3123  0.8506  0.0948
18834TIP3    H277994   4.261   4.200  15.300  0.3644 -0.5889  0.7856
18835TIP3   OH277995   0.145   1.483   3.710  0.0331 -0.1089 -0.2309
18835TIP3    H177996   0.114   1.509   3.623  1.2007  0.1964 -0.5767
18835TIP3    H277997   0.236   1.513   3.712  0.3374 -1.0719  0.7005
18836TIP3   OH277998   2.408   0.540   0.534  0.4936  0.2808  0.2085
18836TIP3    H177999   2.399   0.625   0.576 -0.5351  0.5025 -0.4113
18836TIP3    H278000   2.353   0.481   0.586 -0.1180  0.3773 -0.3028
18837TIP3   OH278001   5.575   2.226   0.811  0.4357  0.1848 -0.2856
18837TIP3    H178002   5.488   2.257   0.784  1.2466  2.7947 -0.1249
18837TIP3    H278003   5.556   2.148   0.865 -1.7096  0.0557 -1.1109
18838TIP3   OH278004   4.221   3.198   5.577 -0.9072  0.2530  0.5436
18838TIP3    H178005   4.253   3.167   5.492 -0.5499 -1.7071  1.3516
18838TIP3    H278006   4.279   3.270   5.600  0.4057 -0.6508  0.1446
18839TIP3   OH278007   5.327   3.211  14.272 -0.2130  0.2319 -0.1578
18839TIP3    H178008   5.421   3.221  14.255 -0.0996 -1.0428 -0.4227
18839TIP3    H278009   5.320   3.127  14.318 -1.0199  1.3115  1.8510
18840TIP3   OH278010   3.427   1.163  14.733 -0.6981  0.2557 -0.4531
18840TIP3    H178011   3.369   1.137  14.805  0.1017 -1.7747 -0.4908
18840TIP3    H278012   3.477   1.237  14.768  0.5369 -1.4368  1.5941
18841TIP3   OH278013   0.535   6.140  14.889 -0.1612 -0.1177 -0.0578
18841TIP3    H178014   0.477   6.192  14.946 -0.8001 -0.7862 -0.0885
18841TIP3    H278015   0.619   6.186  14.894  0.0660 -0.6188  2.1372
18842TIP3   OH278016   1.665   0.380  11.312  0.4231  0.4381  0.4905
18842TIP3    H178017   1.731   0.322  11.274  1.9093  2.0294  0.5133
18842TIP3    H278018   1.596   0.386  11.246  1.8794  1.3277 -1.0200
18843TIP3   OH278019   3.457   4.633   1.378  0.3486  0.1882  0.3320
18843TIP3    H178020   3.546   4.663   1.394 -0.2245  2.8698 -0.8038
18843TIP3    H278021   3.424   4.606   1.464  1.7326  0.7343  1.0612
18844TIP3   OH278022   3.849   0.174   1.893  0.2614 -0.1279 -0.1300
18844TIP3    H178023   3.900   0.250   1.866  1.3286 -1.2288 -1.3974
18844TIP3    H278024   3.914   0.108   1.917 -0.6465 -0.2980  2.1057
18845TIP3   OH278025   1.275   0.585   6.722 -0.3261  0.3158  0.9880
18845TIP3    H178026   1.360   0.625   6.739 -0.5060  0.5045  1.4744
18845TIP3    H278027   1.213   0.641   6.769 -0.5772 -0.5942  1.7772
18846TIP3   OH278028   2.875   3.927  15.543 -0.7296  0.4261  0.1050
18846TIP3    H178029   2.800   3.952  15.488 -1.0279  0.8573  0.6990
18846TIP3    H278030   2.849   3.952  15.632 -0.3712 -0.5377  0.4917
18847TIP3   OH278031   0.708   3.387  13.619  0.5632 -0.1041  0.0921
18847TIP3    H178032   0.774   3.453  13.599  2.4329 -1.1933  2.2736
18847TIP3    H278033   0.757   3.306  13.629 -1.3002 -1.2468  0.4476
18848TIP3   OH278034   1.431   0.736  11.939  0.1604 -0.2693 -0.3895
18848TIP3    H178035   1.444   0.705  11.849  0.1285  1.2715 -0.9601
18848TIP3    H278036   1.486   0.815  11.945  0.1276 -0.3307  0.9386
18849TIP3   OH278037   0.614   0.017  13.053  0.0766  0.2263  0.4022
18849TIP3    H178038   0.612  -0.056  12.991 -0.6608  0.5155  0.0880
18849TIP3    H278039   0.589  -0.023  13.137  0.2751  0.0047  0.3602
18850TIP3   OH278040   2.001   5.860  11.730  0.0259  0.4675 -0.5326
18850TIP3    H178041   2.024   5.900  11.646  0.6537 -1.0564 -1.1282
18850TIP3    H278042   1.909   5.885  11.744  0.6148  2.7310 -0.4546
18851TIP3   OH278043   3.019   4.489  16.191  0.0596  0.3096 -0.1438
18851TIP3    H178044   2.973   4.417  16.147 -0.1642  0.6231 -0.4269
18851TIP3    H278045   3.099   4.501  16.140  0.4341 -0.1965  0.3136
18852TIP3   OH278046   2.856   2.387  14.682  0.6886 -0.0850  0.2014
18852TIP3    H178047   2.893   2.368  14.768 -1.0184 -1.2344  0.7377
18852TIP3    H278048   2.763   2.404  14.699  0.5438  0.8118 -1.2908
18853TIP3   OH278049   4.011   1.480   3.788  0.1378  0.4628  0.0538
18853TIP3    H178050   4.094   1.444   3.756  0.3130  0.3462  0.6153
18853TIP3    H278051   4.008   1.568   3.752  1.5576  1.2709  1.7442
18854TIP3   OH278052   3.946   2.204  12.722  0.4700 -0.6982 -0.2578
18854TIP3    H178053   3.921   2.295  12.706  0.3359 -0.7975 -0.6246
18854TIP3    H278054   3.894   2.178  12.797 -1.1904 -1.1561 -1.5006
18855TIP3   OH278055   2.233   3.792   5.404 -0.0376 -0.4156 -0.3877
18855TIP3    H178056   2.162   3.826   5.459  0.5358 -1.1570  0.8539
18855TIP3    H278057   2.312   3.832   5.439  0.3602 -1.0398 -0.5576
18856TIP3   OH278058   0.959   2.244  12.930  0.0364  0.0731 -0.2471
18856TIP3    H178059   1.042   2.206  12.959 -0.1107 -0.5185 -0.5736
18856TIP3    H278060   0.900   2.169  12.925  0.0883  0.1319 -2.1982
18857TIP3   OH278061   0.872   5.573   4.169  1.2274 -0.9367  0.1646
18857TIP3    H178062   0.844   5.492   4.212  2.0755 -0.0842  2.5389
18857TIP3    H278063   0.937   5.610   4.229  1.3072  1.2084 -1.1334
18858TIP3   OH278064   1.615   2.824  15.474  0.2531 -0.1211 -0.1653
18858TIP3    H178065   1.693   2.877  15.486 -0.4042  0.9149 -0.3049
18858TIP3    H278066   1.559   2.846  15.549  0.0076 -0.6767 -0.1831
18859TIP3   OH278067   1.400   1.661   0.810  0.3254  0.2671  0.4610
18859TIP3    H178068   1.350   1.735   0.774 -0.3364  0.3308  1.4830
18859TIP3    H278069   1.365   1.648   0.898  0.4330 -1.2768  0.3069
18860TIP3   OH278070   6.308   6.040  15.776 -0.2363  0.2861 -0.2184
18860TIP3    H178071   6.253   5.993  15.713  0.7449 -0.6777 -0.3863
18860TIP3    H278072   6.288   5.998  15.860 -1.1757  1.2395  0.0534
18861TIP3   OH278073   0.523   3.753   1.222 -0.3631 -0.1165  0.3749
18861TIP3    H178074   0.580   3.711   1.158  1.2599 -0.4094  1.9224
18861TIP3    H278075   0.448   3.695   1.229  1.4233 -2.4619  1.8424
18862TIP3   OH278076   2.693   4.257   1.471 -0.4030 -0.2745 -1.0520
18862TIP3    H178077   2.781   4.223   1.457 -0.1438  0.8025 -2.2049
18862TIP3    H278078   2.667   4.294   1.386 -1.1598  1.2165 -0.2201
18863TIP3   OH278079   5.697   5.303  14.735 -0.2059  0.0146  0.4661
18863TIP3    H178080   5.686   5.209  14.742  1.2133 -0.4964 -2.4970
18863TIP3    H278081   5.613   5.336  14.702  0.1305 -0.6741 -1.1729
18864TIP3   OH278082   1.290   6.627  16.408 -0.4874  0.3928  0.5198
18864TIP3    H178083   1.271   6.537  16.382  0.3505  0.6291 -1.0080
18864TIP3    H278084   1.229   6.645  16.479 -2.3198 -0.5886 -0.7440
18865TIP3   OH278085   3.167   4.619  11.625  0.1666 -0.0453  0.5908
18865TIP3    H178086   3.163   4.528  11.652 -2.4319 -0.4263 -0.7644
18865TIP3    H278087   3.190   4.616  11.532 -1.7364  0.4957  0.0529
18866TIP3   OH278088   2.061   0.151  11.089 -0.0564 -0.0558 -0.2004
18866TIP3    H178089   2.122   0.129  11.019 -0.3718  0.5260 -0.6651
18866TIP3    H278090   2.111   0.140  11.170  0.2927 -0.7784 -0.5106
18867TIP3   OH278091   1.024   3.842   0.768 -0.7159  0.0560  0.6266
18867TIP3    H178092   1.094   3.901   0.793 -0.6134 -0.2228  1.0110
18867TIP3    H278093   0.979   3.823   0.850 -0.0341 -1.3176  0.7083
18868TIP3   OH278094   1.612   6.006   1.267 -0.1293 -0.4146  0.0541
18868TIP3    H178095   1.688   6.039   1.316 -1.1645  0.4759  1.1459
18868TIP3    H278096   1.605   6.064   1.192 -0.4159  0.2751  0.5976
18869TIP3   OH278097   4.502   2.989  15.429 -0.0344  0.4175  0.4401
18869TIP3    H178098   4.427   3.023  15.379 -0.4281  0.1764  0.8635
18869TIP3    H278099   4.492   3.028  15.516  0.1088  0.0711  0.6125
18870TIP3   OH278100   3.161   0.964  13.325  0.1680 -0.3598 -0.4362
18870TIP3    H178101   3.148   0.872  13.300 -0.8851  0.2016 -2.1545
18870TIP3    H278102   3.223   0.998  13.261 -0.8002  0.5451 -0.9304
18871TIP3   OH278103   5.038   0.680  15.076  0.5021 -0.4050 -0.7501
18871TIP3    H178104   5.096   0.613  15.113  0.4566  0.0095  0.1089
18871TIP3    H278105   4.965   0.685  15.138 -1.1346 -1.8455 -2.4924
18872TIP3   OH278106   2.199   5.605  13.499 -0.0043 -0.4827  0.0652
18872TIP3    H178107   2.225   5.686  13.456 -1.3768  1.0833  1.9690
18872TIP3    H278108   2.269   5.543  13.479  1.9001  1.6273 -0.1958
18873TIP3   OH278109   2.385   2.366  16.478  0.4036 -0.0343 -0.3798
18873TIP3    H178110   2.475   2.349  16.451  0.2067 -0.1827 -0.9550
18873TIP3    H278111   2.377   2.323  16.563  0.8433 -0.1095 -0.3727
18874TIP3   OH278112   4.933   3.344  16.554 -0.3504  0.5029 -0.3169
18874TIP3    H178113   5.015   3.358  16.507  0.5108 -0.5357  0.8005
18874TIP3    H278114   4.881   3.290  16.494  0.0427  0.6080 -0.7629
18875TIP3   OH278115   1.993   3.798   0.641  0.6284  0.3220 -0.6768
18875TIP3    H178116   2.039   3.749   0.573  0.4295  0.8386 -1.1887
18875TIP3    H278117   2.062   3.839   0.692  0.7660  0.2760 -0.8243
18876TIP3   OH278118   6.484   0.119   1.528  0.2921 -0.0850  0.0451
18876TIP3    H178119   6.413   0.176   1.499  0.8839  0.0184 -1.3185
18876TIP3    H278120   6.497   0.142   1.620 -2.0235 -0.7594  0.6109
18877TIP3   OH278121   5.976   1.941  14.934 -0.3718 -0.4900  0.4390
18877TIP3    H178122   6.032   1.897  14.998  0.1363  1.1827  1.1891
18877TIP3    H278123   5.990   2.034  14.949 -3.4803  0.0434  0.7847
18878TIP3   OH278124   0.586   3.187   3.466 -0.9041  0.3279 -0.1139
18878TIP3    H178125   0.679   3.174   3.450 -0.8514  2.1598 -1.7398
18878TIP3    H278126   0.542   3.133   3.400 -1.1472 -1.9730  1.7767
18879TIP3   OH278127   0.180   0.996   4.958 -0.3989 -0.3151  0.0832
18879TIP3    H178128   0.250   0.931   4.966 -0.2579 -0.1447  0.2531
18879TIP3    H278129   0.131   0.970   4.880 -0.7016 -0.9686  0.4907
18880TIP3   OH278130   2.048   0.284  12.404 -0.2651 -0.5224  0.0039
18880TIP3    H178131   2.135   0.324  12.410 -0.1789 -0.7936  0.6269
18880TIP3    H278132   2.058   0.213  12.341 -0.4405  0.4785 -1.1880
18881TIP3   OH278133   4.035   1.834  16.846 -0.2557  0.2334 -0.3573
18881TIP3    H178134   4.069   1.746  16.835  1.1610  0.7479 -0.3233
18881TIP3    H278135   4.036   1.849  16.941  0.1103  0.5039 -0.4017
18882TIP3   OH278136   1.375   3.378   4.137 -0.0334 -0.0328 -0.5248
18882TIP3    H178137   1.417   3.351   4.218  1.5113 -0.5869 -1.4815
18882TIP3    H278138   1.285   3.400   4.164  0.1047 -1.2512  1.1306
18883TIP3   OH278139   5.463   6.041   4.041  0.2553 -0.6115 -0.7959
18883TIP3    H178140   5.549   6.013   4.071 -0.0768  0.3602  1.2209
18883TIP3    H278141   5.402   6.004   4.105 -0.8557 -1.3045 -2.2006
18884TIP3   OH278142   3.389   6.311  15.810  0.7801  0.0570  0.1654
18884TIP3    H178143   3.361   6.233  15.762  2.4149  0.1309 -0.9940
18884TIP3    H278144   3.335   6.382  15.775 -1.4955 -0.6395  1.9906
18885TIP3   OH278145   1.439   3.337   5.083  0.6801  0.1268  0.9586
18885TIP3    H178146   1.431   3.280   5.160  1.9926 -0.0461  0.9927
18885TIP3    H278147   1.411   3.283   5.010  0.5624 -0.0951  1.1660
18886TIP3   OH278148   0.070   5.007   1.317 -0.6150  0.5603 -0.2924
18886TIP3    H178149  -0.023   4.996   1.335 -0.4171 -0.7577  0.0727
18886TIP3    H278150   0.110   5.020   1.403 -0.4154  0.7957 -0.4172
18887TIP3   OH278151   4.759   1.483  13.059  0.2277  0.0321 -0.1742
18887TIP3    H178152   4.803   1.565  13.084 -0.9416  1.1553 -1.5798
18887TIP3    H278153   4.667   1.508  13.050 -0.7827 -2.2190  2.5936
18888TIP3   OH278154   1.183   5.192  15.885 -0.1946  0.2373 -0.0169
18888TIP3    H178155   1.150   5.124  15.827  0.5575  0.5592 -0.8491
18888TIP3    H278156   1.224   5.145  15.957  2.2464 -0.3114 -1.6407
18889TIP3   OH278157   5.079   2.280   4.392 -0.2982 -0.0097 -0.2897
18889TIP3    H178158   5.138   2.205   4.398 -0.1200  0.2404  1.7510
18889TIP3    H278159   5.137   2.356   4.387 -0.3802  0.1973  1.2072
18890TIP3   OH278160   4.998   5.370  15.861  0.3902 -0.4028  0.6457
18890TIP3    H178161   5.042   5.302  15.912 -0.8598 -0.3822  1.8024
18890TIP3    H278162   5.008   5.342  15.770  4.1694  0.4156  0.6331
18891TIP3   OH278163   0.094   1.905   2.859 -0.0798 -0.3240  0.1118
18891TIP3    H178164   0.086   1.877   2.768 -0.1345 -0.0708  0.0395
18891TIP3    H278165   0.085   2.000   2.856 -4.1552 -0.5213  0.7767
18892TIP3   OH278166   5.932   4.706  11.033 -0.1642  0.0119  0.1663
18892TIP3    H178167   6.015   4.753  11.021 -0.0832 -0.1381  0.1401
18892TIP3    H278168   5.940   4.664  11.119  0.5930 -1.6343 -0.6653
18893TIP3   OH278169   1.418   4.851  11.911 -0.2646  0.3101 -0.0715
18893TIP3    H178170   1.434   4.757  11.918 -0.8706  0.3232  2.4400
18893TIP3    H278171   1.504   4.889  11.897  0.3872 -0.4500  1.6353
18894TIP3   OH278172   3.540   0.620  15.213  1.0735 -1.1084  0.2895
18894TIP3    H178173   3.494   0.699  15.240 -1.0930 -1.2483 -2.4754
18894TIP3    H278174   3.587   0.590  15.291  0.2128  1.6677  1.9903
18895TIP3   OH278175   1.421   5.029   2.509  0.8663  0.4147 -0.6634
18895TIP3    H178176   1.513   5.029   2.483  0.8762  0.4471 -0.6291
18895TIP3    H278177   1.397   4.936   2.513  1.5563  0.2658  1.5950
18896TIP3   OH278178   5.326   0.367   2.988 -0.2009  0.2557  0.1329
18896TIP3    H178179   5.238   0.394   2.962  0.0445  2.1672  1.1116
18896TIP3    H278180   5.374   0.361   2.906 -1.0979 -0.2769 -0.3725
18897TIP3   OH278181   0.567   5.083   2.212 -0.0218  0.8293 -0.2790
18897TIP3    H178182   0.589   5.080   2.305 -0.0199  0.1005 -0.2986
18897TIP3    H278183   0.629   5.146   2.174  0.6006  0.4238  0.0497
18898TIP3   OH278184   3.824   2.535  14.897  0.1469 -0.4630  0.5548
18898TIP3    H178185   3.858   2.613  14.853 -1.1150  0.2055  0.7158
18898TIP3    H278186   3.768   2.570  14.967  1.8677 -1.4921  2.5766
18899TIP3   OH278187   4.005   6.016  13.511  0.4779  0.4546 -0.1609
18899TIP3    H178188   3.918   6.026  13.473  0.0854 -1.3582  0.1636
18899TIP3    H278189   4.065   6.020  13.437  0.0368  0.8304 -0.4984
18900TIP3   OH278190   0.929   3.587   1.288 -0.8531 -0.9955  0.2546
18900TIP3    H178191   1.002   3.564   1.345 -2.3359 -0.7096  2.4380
18900TIP3    H278192   0.881   3.505   1.276 -1.2041 -0.8247  0.4629
18901TIP3   OH278193   2.735   6.815  11.106 -0.0990  0.0703 -0.0013
18901TIP3    H178194   2.712   6.752  11.037  0.0540  0.3312 -0.2911
18901TIP3    H278195   2.830   6.819  11.104 -0.1069  0.3008  0.0299
18902TIP3   OH278196   4.725   0.286   2.592  0.9467  0.5726 -0.3103
18902TIP3    H178197   4.724   0.358   2.530 -1.8262  1.1014  0.2302
18902TIP3    H278198   4.732   0.207   2.538  0.6507  1.1097 -1.1385
18903TIP3   OH278199   4.318   6.191   4.255 -0.0419 -0.0762 -0.0975
18903TIP3    H178200   4.406   6.199   4.293  0.3886  0.1139 -1.1013
18903TIP3    H278201   4.259   6.208   4.329  0.7556 -0.3710  0.6311
18904TIP3   OH278202   1.935   3.591  15.535  0.1253  0.1039  0.1547
18904TIP3    H178203   1.959   3.679  15.505  0.4558  0.0904  0.3733
18904TIP3    H278204   2.011   3.537  15.515  0.2535  0.0459  0.8020
18905TIP3   OH278205   1.915   5.315  12.393 -0.1414  0.4541 -0.3221
18905TIP3    H178206   2.000   5.359  12.393 -0.5303  1.2545 -1.4809
18905TIP3    H278207   1.933   5.228  12.356  0.2574  0.4164 -0.0467
18906TIP3   OH278208   4.481   5.224   3.699 -0.0861 -0.0678  0.2098
18906TIP3    H178209   4.387   5.214   3.709  0.1953 -0.2016  4.8716
18906TIP3    H278210   4.517   5.137   3.715  0.8691  0.7639  3.3036
18907TIP3   OH278211   0.093   4.695   4.412 -0.0873 -0.4059  0.1465
18907TIP3    H178212   0.156   4.751   4.458  0.9466 -1.7739  0.4505
18907TIP3    H278213   0.061   4.749   4.340 -1.1724  1.5347  1.9611
18908TIP3   OH278214   5.675   0.187   2.500 -0.8963  0.0901 -0.3386
18908TIP3    H178215   5.731   0.190   2.422  0.7565  0.2954  0.8039
18908TIP3    H278216   5.629   0.104   2.492  1.0705 -1.0614 -0.3689
18909TIP3   OH278217   3.655   0.696   5.043  0.4072  0.4705 -0.0016
18909TIP3    H178218   3.590   0.732   5.103  1.6864  0.5684  1.3819
18909TIP3    H278219   3.641   0.744   4.961 -1.4873  0.2050  0.1269
18910TIP3   OH278220   5.456   2.783   1.060 -0.0138 -0.5199 -0.3479
18910TIP3    H178221   5.417   2.816   0.979  1.8312  0.9309 -0.7474
18910TIP3    H278222   5.418   2.838   1.129  0.4688  0.1525 -0.6008
18911TIP3   OH278223   1.806   1.909   0.335  0.5978 -0.1336 -0.0232
18911TIP3    H178224   1.821   1.932   0.426  1.4511  1.3163 -0.4983
18911TIP3    H278225   1.894   1.903   0.296  0.2196  2.1243 -1.3817
18912TIP3   OH278226   4.847   4.267   5.110  0.0590 -0.1794 -1.2364
18912TIP3    H178227   4.770   4.213   5.128  0.3495  0.0040  0.7838
18912TIP3    H278228   4.831   4.348   5.158  2.6634 -1.1905  1.7416
18913TIP3   OH278229   4.248   6.371   2.061 -0.0201  0.2658  0.7034
18913TIP3    H178230   4.205   6.293   2.026  0.2264 -0.0809  1.1548
18913TIP3    H278231   4.333   6.339   2.091 -0.6635  0.2773  2.7049
18914TIP3   OH278232   0.340   2.165  13.066 -0.5771 -0.4799  0.6430
18914TIP3    H178233   0.353   2.145  12.974 -2.2746  0.7761  0.0813
18914TIP3    H278234   0.410   2.228  13.087 -0.9780  0.2533 -0.1658
18915TIP3   OH278235   2.920   2.928   0.215 -0.2307 -0.1641  0.4123
18915TIP3    H178236   2.933   2.963   0.303 -1.3573  1.8158 -0.1450
18915TIP3    H278237   2.828   2.900   0.214 -0.3317  0.1700 -0.2303
18916TIP3   OH278238   3.750   4.734   5.416  0.1403  0.1354 -0.0313
18916TIP3    H178239   3.772   4.827   5.420  2.5996 -0.4037  0.8408
18916TIP3    H278240   3.718   4.713   5.504  2.4873 -0.3848  0.7932
18917TIP3   OH278241   4.047   2.756  15.712  0.7662 -0.0695 -0.6961
18917TIP3    H178242   4.007   2.837  15.745 -0.6848  0.1947 -2.8902
18917TIP3    H278243   4.030   2.758  15.618  2.1484 -2.1627 -1.0413
18918TIP3   OH278244   4.197   1.452   0.316  0.4340  0.2114  0.0758
18918TIP3    H178245   4.171   1.362   0.333  2.1276 -0.2621  0.4042
18918TIP3    H278246   4.134   1.506   0.363 -0.9547 -0.7716 -0.6207
18919TIP3   OH278247   0.345   6.811   2.835 -0.1010  0.4793 -0.4682
18919TIP3    H178248   0.308   6.729   2.867  1.3130  0.1500  0.4225
18919TIP3    H278249   0.278   6.846   2.776 -1.2171 -0.7337  0.0180
18920TIP3   OH278250   1.482   3.921  16.801  0.6533  0.4417 -0.0278
18920TIP3    H178251   1.411   3.916  16.736 -0.9167  1.0932  1.5511
18920TIP3    H278252   1.440   3.957  16.879  2.6599  0.4259  1.1160
18921TIP3   OH278253   3.187   0.653   1.585 -0.0187  0.3109 -0.0538
18921TIP3    H178254   3.202   0.680   1.494  1.2602 -3.3483 -1.0799
18921TIP3    H278255   3.093   0.636   1.589 -0.0561  0.3041 -0.7580
18922TIP3   OH278256   6.781   1.540  13.242  0.3011 -0.4001 -0.4168
18922TIP3    H178257   6.765   1.572  13.331 -0.3241 -0.4626 -0.5045
18922TIP3    H278258   6.773   1.445  13.250  0.4975 -0.4231 -0.4924
18923TIP3   OH278259   5.625   3.503   0.049  0.4076  0.1516 -0.4667
18923TIP3    H178260   5.534   3.531   0.053  0.5535  1.0880 -2.3720
18923TIP3    H278261   5.675   3.585   0.051  1.1859 -0.3245 -0.0220
18924TIP3   OH278262   3.291   6.534  13.777 -0.1241 -0.0657 -0.1972
18924TIP3    H178263   3.254   6.549  13.864 -0.2141 -2.9800  0.3664
18924TIP3    H278264   3.216   6.506  13.724 -0.1887  2.2704 -1.4544
18925TIP3   OH278265   6.066   3.217  16.049 -0.8165  0.2596 -0.3592
18925TIP3    H178266   5.997   3.255  16.103  0.3031  1.2013  0.4617
18925TIP3    H278267   6.049   3.123  16.050 -0.6092  0.1947  1.9955
18926TIP3   OH278268   0.007   5.765   3.033  0.7162 -0.1103  0.2140
18926TIP3    H178269   0.054   5.835   2.987 -1.3197  1.3108  0.1581
18926TIP3    H278270   0.039   5.684   2.994  0.7461  0.9423 -2.0741
18927TIP3   OH278271   2.640   3.528  12.502 -0.0323  0.1086 -0.2580
18927TIP3    H178272   2.593   3.553  12.423  1.1689  0.5771 -0.8526
18927TIP3    H278273   2.621   3.435  12.513 -0.0286 -0.0204 -1.2473
18928TIP3   OH278274   1.744   3.688  10.571 -0.6775  0.1297  0.1260
18928TIP3    H178275   1.751   3.595  10.550 -0.8261 -0.2796  1.7385
18928TIP3    H278276   1.650   3.706  10.569 -0.6041  0.5127 -1.1170
18929TIP3   OH278277   0.458   5.284   2.735 -0.0170 -0.1548  0.0062
18929TIP3    H178278   0.445   5.354   2.798  2.5548  0.2014  0.2577
18929TIP3    H278279   0.406   5.310   2.658 -2.0108  0.1198  1.3779
18930TIP3   OH278280   0.026   6.694   2.845  0.2823  0.6658  0.5233
18930TIP3    H178281  -0.060   6.670   2.810  0.9227 -0.2300 -0.4742
18930TIP3    H278282   0.029   6.790   2.837  0.0923  0.5592 -1.1427
18931TIP3   OH278283   3.301   0.482  16.569 -0.7226 -0.4828  0.0262
18931TIP3    H178284   3.362   0.490  16.642 -0.5592  1.3474 -0.2470
18931TIP3    H278285   3.214   0.482  16.609 -0.8861  4.2233  0.2734
18932TIP3   OH278286   3.073   5.717   4.439 -0.6628  0.3187  0.2722
18932TIP3    H178287   3.084   5.811   4.457  0.9635  0.3719 -0.7784
18932TIP3    H278288   3.163   5.683   4.437 -1.1685 -1.0139 -0.6321
18933TIP3   OH278289   0.962   3.987  10.870 -0.1171  0.5875 -0.7233
18933TIP3    H178290   0.936   3.965  10.960  0.4212  2.1494 -0.1654
18933TIP3    H278291   0.945   4.081  10.862  0.2462  0.5565 -2.1278
18934TIP3   OH278292   2.506   2.198   3.790 -0.5880 -0.1217  0.0177
18934TIP3    H178293   2.505   2.108   3.760 -1.0259  0.2682 -1.1888
18934TIP3    H278294   2.588   2.234   3.757 -0.4981 -0.0208  0.3433
18935TIP3   OH278295   5.341   0.564   0.877 -0.3420  0.0359  0.7513
18935TIP3    H178296   5.248   0.573   0.861 -0.2899 -1.1205 -0.3613
18935TIP3    H278297   5.347   0.504   0.952 -0.4955  1.6476  2.1063
18936TIP3   OH278298   5.892   1.364   6.534 -0.4629 -0.1405  0.3037
18936TIP3    H178299   5.976   1.375   6.490 -0.9044 -0.0005 -0.5026
18936TIP3    H278300   5.852   1.450   6.532 -1.4674 -0.6192 -1.0329
18937TIP3   OH278301   3.019   4.346   1.695  0.2905 -0.7079  0.1121
18937TIP3    H178302   3.046   4.418   1.638 -1.5035 -0.2690 -0.2632
18937TIP3    H278303   3.006   4.272   1.635 -1.6867 -0.2214 -0.1171
18938TIP3   OH278304   3.315   1.105  12.562  0.2865 -0.1786 -0.0673
18938TIP3    H178305   3.373   1.071  12.631  0.3231  0.8774  0.4415
18938TIP3    H278306   3.367   1.099  12.482  0.3261 -1.2098  0.0301
18939TIP3   OH278307   4.072   3.796   2.307  1.2277  0.0378  0.0005
18939TIP3    H178308   4.115   3.873   2.344  0.7571  1.6236 -2.4787
18939TIP3    H278309   4.143   3.737   2.284  1.9288  1.3047 -1.2591
18940TIP3   OH278310   5.637   2.865   0.357  0.5638 -0.3700 -0.0127
18940TIP3    H178311   5.604   2.876   0.268  1.4119 -2.7342 -0.7021
18940TIP3    H278312   5.561   2.835   0.407  0.2359  0.3267 -0.0874
18941TIP3   OH278313   1.119   0.704  11.914  0.4008 -0.1643 -0.4278
18941TIP3    H178314   1.101   0.631  11.855 -1.1522 -0.0918 -0.0957
18941TIP3    H278315   1.214   0.704  11.925  0.7686 -0.0801 -3.0413
18942TIP3   OH278316   1.054   0.393  15.772  0.0059 -0.3785  0.2231
18942TIP3    H178317   0.975   0.440  15.744 -0.6135 -1.4777  0.0550
18942TIP3    H278318   1.078   0.340  15.695  0.2465 -0.9036  0.6557
18943TIP3   OH278319   2.881   1.156  12.727  0.5961  0.9407  0.1493
18943TIP3    H178320   2.946   1.181  12.661  0.5590 -0.0174 -0.2693
18943TIP3    H278321   2.878   1.060  12.722  2.3339  0.5825  3.1494
18944TIP3   OH278322   0.312   5.717  13.511 -0.1917 -0.0790  0.1912
18944TIP3    H178323   0.278   5.721  13.600 -1.1415 -1.1230 -0.1013
18944TIP3    H278324   0.393   5.666  13.517 -1.2567 -1.8568  0.2132
18945TIP3   OH278325   0.502   0.929  14.729 -0.5290 -0.2353 -0.3415
18945TIP3    H178326   0.531   0.943  14.639 -0.2207 -2.7333 -0.7039
18945TIP3    H278327   0.533   0.841  14.751  0.2868  0.6545  2.5799
18946TIP3   OH278328   2.247   0.346  14.668  0.0637 -0.2271  0.2089
18946TIP3    H178329   2.235   0.259  14.632  1.4562 -0.0294 -0.7942
18946TIP3    H278330   2.158   0.377  14.685 -0.5229 -1.2391 -0.8645
18947TIP3   OH278331   2.442   3.495  16.082  0.2066  0.4040 -0.0949
18947TIP3    H178332   2.362   3.493  16.134  0.5474 -0.1949  0.4160
18947TIP3    H278333   2.439   3.579  16.036 -1.4693 -0.2645 -1.2920
18948TIP3   OH278334   3.771   3.353   4.656  0.5470 -0.4132  0.0386
18948TIP3    H178335   3.686   3.393   4.672 -1.0193 -3.1217 -0.8364
18948TIP3    H278336   3.800   3.390   4.573 -0.2528 -0.1583 -0.1382
18949TIP3   OH278337   2.632   1.681  13.464  0.2614  0.4173 -0.1191
18949TIP3    H178338   2.670   1.637  13.540 -1.3442 -1.0974 -0.1379
18949TIP3    H278339   2.689   1.655  13.391 -1.1012 -2.4634 -0.2843
18950TIP3   OH278340   5.943   6.305  15.290  0.4213  0.1942 -0.4815
18950TIP3    H178341   5.907   6.227  15.332  2.4187  0.0931  1.1671
18950TIP3    H278342   5.912   6.377  15.344 -0.1528  0.4316 -1.1112
18951TIP3   OH278343   1.091   2.990   4.061  0.0824  0.7265  0.1276
18951TIP3    H178344   1.135   2.958   3.982 -1.4352 -0.1861 -0.3827
18951TIP3    H278345   1.113   2.925   4.128  1.6891  1.7045  0.5967
18952TIP3   OH278346   2.689   3.925   3.874  0.1142  0.7645 -0.3599
18952TIP3    H178347   2.704   3.994   3.939 -0.9756  1.0111 -0.3644
18952TIP3    H278348   2.633   3.861   3.919 -1.0642  1.1739 -1.1934
18953TIP3   OH278349   0.216   5.724  16.435 -0.3092  0.2670 -0.5484
18953TIP3    H178350   0.198   5.817  16.420  0.1245  0.2746 -1.0721
18953TIP3    H278351   0.207   5.684  16.348  1.0948  0.0966 -0.6405
18954TIP3   OH278352   0.715   0.772  13.138  0.2178 -0.0761  0.7611
18954TIP3    H178353   0.629   0.748  13.101  0.6454 -0.8070  0.2131
18954TIP3    H278354   0.751   0.834  13.076  0.6966 -0.8752  0.2282
18955TIP3   OH278355   1.507   0.765   4.358 -0.5729 -0.2329 -0.0429
18955TIP3    H178356   1.478   0.674   4.372  0.6366 -0.4987  0.9637
18955TIP3    H278357   1.602   0.759   4.356 -0.4712  1.0643  0.3389
18956TIP3   OH278358   3.792   2.689   3.904 -0.1984 -0.6787  0.0949
18956TIP3    H178359   3.711   2.735   3.881  0.4137  0.2961 -0.2039
18956TIP3    H278360   3.835   2.748   3.966  1.2622 -0.1496 -1.3473
18957TIP3   OH278361   0.530   2.986   2.377  0.3455 -0.1154 -0.1828
18957TIP3    H178362   0.586   2.969   2.301  0.1437 -0.6621 -0.2128
18957TIP3    H278363   0.591   2.990   2.451  0.3076 -2.6396  0.0957
18958TIP3   OH278364   1.245   0.464   5.905  0.1163 -0.5802 -0.1145
18958TIP3    H178365   1.234   0.409   5.982  0.5358  0.7032  0.8973
18958TIP3    H278366   1.295   0.411   5.844  1.7095 -0.8485  1.3628
18959TIP3   OH278367   0.335   0.049   4.379  0.3413 -0.2024 -0.1358
18959TIP3    H178368   0.347   0.046   4.474 -1.1927  0.4992  0.1130
18959TIP3    H278369   0.402  -0.009   4.345 -0.1461 -1.8365  1.4829
18960TIP3   OH278370   4.424   1.754  14.548 -0.2242  0.0795  0.0533
18960TIP3    H178371   4.407   1.847  14.539  0.4378  0.3698  1.4582
18960TIP3    H278372   4.518   1.746  14.534  0.0176 -0.1015  1.5583
18961TIP3   OH278373   3.578   4.146  11.654  0.4487 -0.7257  0.3698
18961TIP3    H178374   3.579   4.129  11.560 -0.9366 -1.4792  0.4725
18961TIP3    H278375   3.609   4.237  11.662 -1.1587  0.0091 -0.9774
18962TIP3   OH278376   1.577   3.380   5.871  0.1935  0.3616  0.0686
18962TIP3    H178377   1.488   3.356   5.897  0.5011 -0.4338  0.4140
18962TIP3    H278378   1.622   3.400   5.953 -0.0616  2.2059 -0.2099
18963TIP3   OH278379   0.435   2.395   6.339  0.2411 -0.6237 -0.3122
18963TIP3    H178380   0.468   2.483   6.354  1.0591 -0.9392 -0.2158
18963TIP3    H278381   0.340   2.403   6.346  0.1734  0.5803 -2.0322
18964TIP3   OH278382   0.849   3.161  10.756  0.1666  0.6320  0.1016
18964TIP3    H178383   0.782   3.132  10.694 -0.7034 -0.1647  1.3639
18964TIP3    H278384   0.824   3.250  10.779 -0.1327  0.5454  0.1174
18965TIP3   OH278385   3.893   5.281   6.309 -0.1623 -0.2728  0.3892
18965TIP3    H178386   3.883   5.337   6.386 -0.6555  0.8061 -0.4279
18965TIP3    H278387   3.875   5.192   6.341  0.6354  0.0168  1.7127
18966TIP3   OH278388   0.209   0.534  15.504  0.3022 -0.1191  0.0911
18966TIP3    H178389   0.230   0.443  15.522 -1.8306 -0.6167  0.3988
18966TIP3    H278390   0.135   0.553  15.562  0.1420  1.5332 -0.5999
18967TIP3   OH278391   2.608   5.382   1.339 -0.0383  0.3339 -0.3348
18967TIP3    H178392   2.512   5.374   1.337 -0.2306  2.1358  0.3124
18967TIP3    H278393   2.637   5.335   1.261 -1.4309 -0.4365 -0.4221
18968TIP3   OH278394   3.554   2.071  14.746 -0.0872 -0.5956 -0.4184
18968TIP3    H178395   3.634   2.123  14.755 -1.1000  0.9345  0.0482
18968TIP3    H278396   3.575   2.008  14.677  1.5186 -0.2388 -0.3106
18969TIP3   OH278397   6.737   0.948  17.114  0.1776  0.4647 -0.0356
18969TIP3    H178398   6.730   1.039  17.142 -1.6524  0.7994 -1.4303
18969TIP3    H278399   6.793   0.951  17.036 -2.5457  0.9872 -2.1390
18970TIP3   OH278400   4.529   1.489  10.349  0.5867 -0.9657 -0.1635
18970TIP3    H178401   4.543   1.414  10.407  0.6056 -1.0517 -0.2810
18970TIP3    H278402   4.479   1.551  10.403 -1.1181 -1.8358 -0.6480
18971TIP3   OH278403   3.351   3.848  12.210  0.1053 -0.8250 -0.1415
18971TIP3    H178404   3.446   3.859  12.200  0.1134 -0.3880  0.3926
18971TIP3    H278405   3.321   3.930  12.249 -0.8128 -0.0480 -2.2787
18972TIP3   OH278406   2.526   3.022   1.299  0.1584 -0.1373  0.6578
18972TIP3    H178407   2.522   2.990   1.209 -0.2392  2.8609 -0.5372
18972TIP3    H278408   2.454   2.978   1.344  0.4246 -1.7597 -0.4408
18973TIP3   OH278409   3.682   6.438   3.770  0.7745 -0.3853  0.6350
18973TIP3    H178410   3.662   6.393   3.852 -3.3114 -0.4806 -0.1976
18973TIP3    H278411   3.653   6.528   3.784 -1.0521 -0.6564 -0.9496
18974TIP3   OH278412   0.604   3.474   3.465  0.5269  0.2764 -0.3625
18974TIP3    H178413   0.692   3.498   3.496  2.6512 -2.0162 -3.9627
18974TIP3    H278414   0.597   3.380   3.481 -1.2822  0.4038 -0.2107
18975TIP3   OH278415   5.254   6.347  14.591  0.0155  0.5440 -0.1312
18975TIP3    H178416   5.215   6.425  14.631  0.1739  1.5639 -1.8875
18975TIP3    H278417   5.327   6.325  14.649  1.2802  2.9820 -0.6787
18976TIP3   OH278418   4.953   0.536   0.056 -0.1958  0.1802  0.5337
18976TIP3    H178419   4.950   0.518   0.150  0.4799 -1.3878  0.2874
18976TIP3    H278420   5.034   0.587   0.044  0.3343 -0.6153  0.6623
18977TIP3   OH278421   6.582   4.491  17.030  0.2229 -1.0015 -0.8411
18977TIP3    H178422   6.676   4.474  17.042  0.2835 -1.0840 -1.3937
18977TIP3    H278423   6.570   4.581  17.060  0.1330 -1.5813  0.9379
18978TIP3   OH278424   0.744   2.772  11.397 -0.1501 -0.7140  0.0006
18978TIP3    H178425   0.780   2.683  11.405  0.9553 -0.5143 -2.1213
18978TIP3    H278426   0.717   2.779  11.306  0.8810  1.4859 -0.2012
18979TIP3   OH278427   4.024   1.311   3.006  0.7599  0.1413  0.2228
18979TIP3    H178428   3.993   1.225   3.032  0.6506  0.1038 -0.0321
18979TIP3    H278429   4.105   1.323   3.056  2.1365 -1.1603 -1.5661
18980TIP3   OH278430   2.334   4.804   5.716  0.0378  0.5453  0.0636
18980TIP3    H178431   2.259   4.746   5.704  0.2900 -0.2260  1.7817
18980TIP3    H278432   2.401   4.768   5.657  0.4358 -1.4677  1.6044
18981TIP3   OH278433   2.938   3.299   1.590  0.3606 -0.1211 -0.8862
18981TIP3    H178434   2.896   3.385   1.583  1.0831  0.3304  0.0688
18981TIP3    H278435   3.029   3.319   1.611  0.3561 -1.1147  0.1910
18982TIP3   OH278436   1.284   3.904  12.511 -0.2678  0.1139 -0.5434
18982TIP3    H178437   1.254   3.868  12.427  0.5554 -0.7812 -0.4695
18982TIP3    H278438   1.210   3.890  12.570 -0.5814  0.0828 -0.9343
18983TIP3   OH278439   3.444   4.088  14.783  0.1053  0.5975  0.7250
18983TIP3    H178440   3.506   4.155  14.812  0.1469  0.7620  0.2683
18983TIP3    H278441   3.390   4.069  14.860  0.6137  0.5738  1.0833
18984TIP3   OH278442   3.470   0.268   4.508 -0.0130  0.2251  0.2963
18984TIP3    H178443   3.461   0.174   4.500  0.1647  0.2583 -0.3226
18984TIP3    H278444   3.381   0.301   4.514 -0.0605 -0.0191  1.0134
18985TIP3   OH278445   0.452   6.387   1.130  0.0217  0.1974 -0.8775
18985TIP3    H178446   0.455   6.330   1.053 -1.2616 -0.1175 -0.7273
18985TIP3    H278447   0.359   6.410   1.139  0.1372  0.1883  0.6005
18986TIP3   OH278448   2.298   2.456  15.441 -0.0852 -0.1742  0.5968
18986TIP3    H178449   2.352   2.377  15.440  0.3183  0.1010 -0.5994
18986TIP3    H278450   2.350   2.520  15.491 -0.1341 -0.4652  1.0239
18987TIP3   OH278451   0.116   6.101   5.013 -0.0675 -0.2222  0.2922
18987TIP3    H178452   0.200   6.056   5.024  0.8801  1.6223  1.3036
18987TIP3    H278453   0.111   6.121   4.920  0.2726 -0.9696  0.1080
18988TIP3   OH278454   5.610   3.830   3.015 -0.2474 -0.1026 -0.3811
18988TIP3    H178455   5.673   3.880   2.964  0.2472 -0.7018 -0.3734
18988TIP3    H278456   5.529   3.833   2.963 -0.1430  0.4660 -0.5110
18989TIP3   OH278457   5.599   5.870  11.452 -0.9782  0.3575 -0.0967
18989TIP3    H178458   5.538   5.809  11.411 -0.9888  0.3804 -0.1143
18989TIP3    H278459   5.542   5.939  11.489 -0.8942  1.0080 -1.1395
18990TIP3   OH278460   5.741   3.910  11.353  0.6147  0.4508 -0.1972
18990TIP3    H178461   5.791   3.828  11.352  1.4859  0.9797 -0.5715
18990TIP3    H278462   5.797   3.973  11.309 -0.5244  0.9835 -0.9274
18991TIP3   OH278463   0.085   0.123   2.375  0.2291  0.3153 -0.0392
18991TIP3    H178464   0.057   0.043   2.331 -1.3578  0.1426  1.2040
18991TIP3    H278465   0.108   0.096   2.464 -1.9783  1.4065  0.9551
18992TIP3   OH278466   2.874   1.777  11.926 -0.1490 -0.0318  0.4508
18992TIP3    H178467   2.887   1.690  11.963 -1.2725 -1.3952 -2.1479
18992TIP3    H278468   2.812   1.819  11.987 -0.5121 -1.4784  1.1262
18993TIP3   OH278469   2.308   6.553  14.729 -0.4440 -0.4778 -0.0813
18993TIP3    H178470   2.216   6.565  14.753 -0.3552 -1.2510  0.6780
18993TIP3    H278471   2.312   6.578  14.636 -0.9963  1.5296  0.4069
18994TIP3   OH278472   1.869   3.081   4.762  0.2629  0.8267  0.3572
18994TIP3    H178473   1.878   2.996   4.719 -0.6558  0.3489  1.0802
18994TIP3    H278474   1.793   3.122   4.720 -1.7616 -0.3668  2.5702
18995TIP3   OH278475   5.076   1.849   4.417 -0.1290 -0.0085  0.1352
18995TIP3    H178476   5.024   1.776   4.451 -1.4436  1.6676  1.9538
18995TIP3    H278477   5.026   1.927   4.441  1.1212  1.5207 -1.9010
18996TIP3   OH278478   1.110   2.828  12.964 -0.0777  0.0072 -0.2353
18996TIP3    H178479   1.015   2.824  12.956 -0.2068  0.2282  1.0587
18996TIP3    H278480   1.129   2.787  13.048  0.8645  1.1185  0.1166
18997TIP3   OH278481   3.074   6.310  17.132  0.1140  0.2378 -0.2625
18997TIP3    H178482   3.022   6.239  17.170  0.1992  0.7376  0.8202
18997TIP3    H278483   3.107   6.274  17.049 -0.7436 -0.5909 -0.2632
18998TIP3   OH278484   6.161   2.701  14.233 -0.4169  0.0409  0.5163
18998TIP3    H178485   6.191   2.790  14.217  1.6112 -0.6609  0.0954
18998TIP3    H278486   6.104   2.680  14.159 -0.6608  0.8629  0.4683
18999TIP3   OH278487   5.739   5.171  11.094 -0.2591 -0.0712 -0.1452
18999TIP3    H178488   5.780   5.137  11.015  0.3323  1.2074 -0.4223
18999TIP3    H278489   5.788   5.131  11.166 -0.0023 -0.3033 -0.4456
19000TIP3   OH278490   5.233   2.744  11.220  0.5367  0.2692  0.5573
19000TIP3    H178491   5.166   2.676  11.223  1.9248 -1.1618  0.6412
19000TIP3    H278492   5.259   2.748  11.128  1.5640 -0.4688  0.8020
19001TIP3   OH278493   2.669   3.715  15.566  0.2191 -0.1805  0.3349
19001TIP3    H178494   2.718   3.709  15.484 -0.8147 -0.9520 -0.2459
19001TIP3    H278495   2.693   3.801  15.601  0.6226  0.2009 -0.8095
19002TIP3   OH278496   5.069   2.409   4.905 -0.2130 -0.2909  0.1297
19002TIP3    H178497   5.053   2.398   4.812 -1.6993  0.5331  0.2557
19002TIP3    H278498   5.123   2.488   4.911  0.9526 -1.0558 -0.0924
19003TIP3   OH278499   2.402   5.253  14.864 -0.0191 -0.6635  0.4481
19003TIP3    H178500   2.426   5.290  14.949  1.2208 -1.5127  0.5050
19003TIP3    H278501   2.450   5.307  14.801 -1.0216  0.0321  0.2714
19004TIP3   OH278502   1.069   1.628   0.362  0.4301  0.0234  0.0996
19004TIP3    H178503   1.154   1.666   0.384 -0.7255  1.4791  2.4280
19004TIP3    H278504   1.026   1.613   0.446 -0.7698 -2.8660 -0.9088
19005TIP3   OH278505   0.659   4.368  11.053 -0.6208 -0.4570 -0.1720
19005TIP3    H178506   0.708   4.429  11.109 -2.1487  0.3730  0.3244
19005TIP3    H278507   0.608   4.424  10.994  0.8386 -1.3109 -2.3770
19006TIP3   OH278508   2.728   1.345   3.959 -0.2843  0.0301 -0.2111
19006TIP3    H178509   2.722   1.374   4.050 -1.1095  1.9111 -0.8196
19006TIP3    H278510   2.742   1.425   3.909  0.9397 -1.0445 -1.7033
19007TIP3   OH278511   6.004   3.033   2.193  0.3077 -0.4831  0.3780
19007TIP3    H178512   5.934   3.079   2.238  2.3347  2.4128  0.8318
19007TIP3    H278513   5.980   2.940   2.200 -3.0703  0.3154  1.0431
19008TIP3   OH278514   3.635   3.973  12.530  0.0637  0.0702  0.3660
19008TIP3    H178515   3.575   3.939  12.596  0.1442 -1.1476 -0.1711
19008TIP3    H278516   3.666   3.896  12.482  0.3903  0.8709 -0.7695
19009TIP3   OH278517   5.614   1.158   1.680 -0.5398 -0.5260 -0.1001
19009TIP3    H178518   5.566   1.177   1.761  1.0426  0.7364  0.6173
19009TIP3    H278519   5.562   1.200   1.611 -1.3793 -0.7349  0.3852
19010TIP3   OH278520   0.191   2.261   4.372  0.3914  0.2996 -0.2419
19010TIP3    H178521   0.233   2.338   4.408 -1.0257  0.6774  0.6911
19010TIP3    H278522   0.243   2.187   4.406  0.7601  0.7705  0.2347
19011TIP3   OH278523   4.348   5.747  13.966 -0.0901 -0.5575  0.0312
19011TIP3    H178524   4.281   5.680  13.972 -0.5083 -0.2410 -0.8327
19011TIP3    H278525   4.306   5.819  13.918  1.1295 -0.7212 -1.3653
19012TIP3   OH278526   3.656   3.836  13.494 -0.4144 -0.4539  0.2462
19012TIP3    H178527   3.604   3.802  13.422 -0.4172  1.1747 -0.5736
19012TIP3    H278528   3.744   3.845  13.458  0.2388 -2.1154  1.2827
19013TIP3   OH278529   6.332   1.097   1.094  0.3690  0.2300 -0.2666
19013TIP3    H178530   6.327   1.029   1.026 -1.1948  0.6061 -0.5502
19013TIP3    H278531   6.357   1.176   1.048 -2.4771  0.9128 -0.7785
19014TIP3   OH278532   3.062   5.379  15.465 -0.1235  0.3245  0.2425
19014TIP3    H178533   3.046   5.468  15.435 -0.4352  0.1787 -0.0256
19014TIP3    H278534   3.157   5.370  15.464 -0.1219  0.4164 -0.4107
19015TIP3   OH278535   0.520   3.614   5.450  0.2364 -0.6640  0.0209
19015TIP3    H178536   0.525   3.694   5.398 -0.8471 -0.4229  0.2632
19015TIP3    H278537   0.432   3.580   5.433  0.0872 -0.9030  1.2201
19016TIP3   OH278538   6.168   0.612   3.924  0.4682  0.3107 -0.2771
19016TIP3    H178539   6.253   0.595   3.964  0.0720 -1.0963  0.0090
19016TIP3    H278540   6.190   0.645   3.836  1.2993  0.4334 -0.0361
19017TIP3   OH278541   2.861   6.451   2.091 -0.1067  0.1526  0.5736
19017TIP3    H178542   2.820   6.367   2.113 -1.1653  0.3038 -0.6656
19017TIP3    H278543   2.861   6.500   2.173 -1.4764 -0.2580  0.8497
19018TIP3   OH278544   3.504   1.697   2.782  0.7807  0.0660  0.0020
19018TIP3    H178545   3.456   1.636   2.839 -0.8325  0.5176 -0.8051
19018TIP3    H278546   3.504   1.780   2.830  0.8587  0.0326  0.0593
19019TIP3   OH278547   5.582   6.596  12.118 -0.3316 -0.3588 -0.2220
19019TIP3    H178548   5.517   6.577  12.186 -1.2717  0.0254 -0.9876
19019TIP3    H278549   5.633   6.515  12.110 -1.0403 -0.8411  0.0396
19020TIP3   OH278550   4.916   1.381   0.831  0.3682  0.1397  0.1943
19020TIP3    H178551   4.892   1.348   0.745 -0.0566 -0.3285  0.4828
19020TIP3    H278552   4.882   1.471   0.832  0.1370  0.0573 -0.0313
19021TIP3   OH278553   3.092   6.140  10.141 -0.2500 -0.7662 -1.0474
19021TIP3    H178554   3.007   6.162  10.103  0.6756  3.6479 -1.1036
19021TIP3    H278555   3.153   6.151  10.068  0.8148  0.9919  0.0603
19022TIP3   OH278556   5.585   3.925  13.827  0.0391  0.2331  0.0065
19022TIP3    H178557   5.527   3.957  13.896  1.1351  0.6667  0.7494
19022TIP3    H278558   5.539   3.849  13.791 -1.2473  0.8954  0.1812
19023TIP3   OH278559   3.746   0.253  15.905 -0.9008 -0.2578  0.7373
19023TIP3    H178560   3.777   0.284  15.990  0.5873  0.6468 -0.0931
19023TIP3    H278561   3.823   0.258  15.848 -1.0724 -3.5511  0.0044
19024TIP3   OH278562   2.288   6.304  13.770 -0.2950  0.2771  0.2822
19024TIP3    H178563   2.316   6.241  13.837 -1.3130 -0.5019  0.0029
19024TIP3    H278564   2.316   6.389  13.804 -1.5498  0.0091  2.1482
19025TIP3   OH278565   5.210   3.243   0.969 -0.4616  0.0227  0.2482
19025TIP3    H178566   5.258   3.179   1.023 -1.3095 -0.0645  0.9253
19025TIP3    H278567   5.153   3.190   0.913 -0.8406  0.1632  0.4948
19026TIP3   OH278568   6.688   4.795   1.652 -0.2490 -0.1448 -0.0919
19026TIP3    H178569   6.666   4.882   1.684 -0.3566  0.6611 -2.1757
19026TIP3    H278570   6.662   4.796   1.560  1.0494 -1.9071 -0.5394
19027TIP3   OH278571   4.735   4.309   0.570  0.2360  0.4624 -0.2454
19027TIP3    H178572   4.668   4.240   0.563  1.8523 -1.0604 -1.8942
19027TIP3    H278573   4.728   4.357   0.488  0.2529  1.1818  0.1710
19028TIP3   OH278574   1.355   4.159   4.087 -0.1820 -0.3447  0.6243
19028TIP3    H178575   1.274   4.159   4.036  0.6373 -0.0241 -0.7272
19028TIP3    H278576   1.338   4.218   4.161 -1.4470 -0.9463  0.8276
19029TIP3   OH278577   6.139   4.560   4.280  0.8451 -0.5979  0.2643
19029TIP3    H178578   6.079   4.541   4.209  1.4401 -1.4229 -0.0305
19029TIP3    H278579   6.219   4.512   4.258  1.3699 -0.0874  0.9991
19030TIP3   OH278580   3.578   4.102  15.329 -0.9926 -0.1584 -0.3628
19030TIP3    H178581   3.649   4.051  15.367 -2.0015 -1.2615  0.1093
19030TIP3    H278582   3.545   4.154  15.402 -0.8805  0.1132 -0.5047
19031TIP3   OH278583   1.548   4.313  11.664 -1.0111 -0.2735 -0.2569
19031TIP3    H178584   1.498   4.320  11.745 -0.8752 -1.1155 -0.0841
19031TIP3    H278585   1.555   4.218  11.649 -0.6839 -0.1331 -1.0299
19032TIP3   OH278586   2.913   3.213  13.343  0.1105  0.3338 -0.2466
19032TIP3    H178587   2.930   3.252  13.429  0.7073  0.2325 -0.3150
19032TIP3    H278588   2.835   3.259  13.311  0.1104  0.6402  0.1815
19033TIP3   OH278589   4.397   2.784   6.384 -0.2116  0.5835  0.2039
19033TIP3    H178590   4.434   2.707   6.428 -0.4630  1.1275  1.3803
19033TIP3    H278591   4.457   2.800   6.310  0.7239  0.2012  0.8603
19034TIP3   OH278592   5.842   5.477   0.317 -0.3274 -0.3401  0.5649
19034TIP3    H178593   5.757   5.516   0.297 -0.7366 -1.2205  0.5441
19034TIP3    H278594   5.901   5.515   0.253 -1.2811 -1.8288 -1.3046
19035TIP3   OH278595   4.494   6.517  10.060 -0.4971  0.6186 -0.4012
19035TIP3    H178596   4.458   6.577   9.995 -1.8532  0.6303  0.3245
19035TIP3    H278597   4.425   6.452  10.073  0.3008 -0.1614  0.0380
19036TIP3   OH278598   6.230   3.336  12.307  0.2365 -0.4177  0.4391
19036TIP3    H178599   6.195   3.339  12.396  0.4633  1.3363  0.5064
19036TIP3    H278600   6.325   3.347  12.319  0.4990 -1.9783  0.0631
19037TIP3   OH278601   4.101   5.584  13.018 -0.0106  0.0196  0.4162
19037TIP3    H178602   4.178   5.571  12.963 -1.3090 -0.8571 -1.3015
19037TIP3    H278603   4.123   5.542  13.102  1.3080 -0.3518 -0.1019
19038TIP3   OH278604   1.347   5.556   5.985  0.2491  0.2531  0.5052
19038TIP3    H178605   1.274   5.494   5.988 -0.7678  1.3816 -0.1133
19038TIP3    H278606   1.372   5.568   6.077 -0.2599 -0.2382  0.7124
19039TIP3   OH278607   0.944   0.289  13.282  0.4828  0.4071 -0.3457
19039TIP3    H178608   1.013   0.258  13.224 -0.0320 -1.4701 -0.0319
19039TIP3    H278609   0.902   0.361  13.235 -0.2556 -1.3637 -2.5789
19040TIP3   OH278610   3.032   4.825  12.267  0.2493 -0.0287 -0.3739
19040TIP3    H178611   3.094   4.876  12.320  0.7672  0.1428 -1.1271
19040TIP3    H278612   3.082   4.749  12.238 -0.9206 -1.7923  1.9307
19041TIP3   OH278613   6.815   3.830  12.630 -0.1589 -0.1574 -0.1819
19041TIP3    H178614   6.757   3.780  12.572  0.2701 -0.2685 -0.5233
19041TIP3    H278615   6.797   3.921  12.609  1.5566 -0.1761 -2.1232
19042TIP3   OH278616   5.766   1.825   4.225  0.1047  0.0656 -0.5208
19042TIP3    H178617   5.837   1.763   4.242 -0.7930 -0.7919  0.2382
19042TIP3    H278618   5.782   1.898   4.285 -1.3454 -1.5577  2.0244
19043TIP3   OH278619   1.014   5.846  15.940 -0.3508 -0.5474 -0.3264
19043TIP3    H178620   1.061   5.842  15.857  2.8494  1.2034  1.1693
19043TIP3    H278621   1.009   5.756  15.970  0.6325 -0.9550 -1.3416
19044TIP3   OH278622   1.067   1.840   2.279 -0.1511  0.4154  0.3273
19044TIP3    H178623   1.087   1.847   2.373  0.5044 -0.3792  0.2643
19044TIP3    H278624   0.972   1.838   2.275 -0.2037 -1.8076  1.2112
19045TIP3   OH278625   1.875   6.316   4.259 -0.2991  0.3911  0.6906
19045TIP3    H178626   1.839   6.399   4.290 -1.0865  0.7718 -1.0763
19045TIP3    H278627   1.844   6.309   4.168  0.1440 -1.6073  0.6385
19046TIP3   OH278628   1.688   4.878  11.911 -0.1126 -0.1809  0.4990
19046TIP3    H178629   1.763   4.829  11.944 -0.2942 -0.1798  0.9120
19046TIP3    H278630   1.705   4.968  11.935  1.1527  0.3144 -1.8951
19047TIP3   OH278631   0.126   1.174   6.421 -0.4405 -0.2283  0.1890
19047TIP3    H178632   0.136   1.100   6.481 -0.2232  0.3858  0.9208
19047TIP3    H278633   0.092   1.245   6.475  0.5298  0.5850 -0.2231
19048TIP3   OH278634   4.614   4.361  14.072 -0.0889 -0.4105  0.2040
19048TIP3    H178635   4.547   4.326  14.013 -0.4362  1.7824 -0.7841
19048TIP3    H278636   4.570   4.366  14.158 -0.4234 -1.1357  0.0851
19049TIP3   OH278637   1.065   5.761   0.795  0.8013  0.1574 -0.7651
19049TIP3    H178638   1.006   5.836   0.788  0.4107 -0.1252 -0.5122
19049TIP3    H278639   1.100   5.750   0.706 -0.1597 -0.1823 -1.1104
19050TIP3   OH278640   3.914   2.143  13.051  0.5486 -0.1132 -0.3097
19050TIP3    H178641   3.903   2.052  13.079  3.1530 -0.1837  0.7811
19050TIP3    H278642   3.834   2.186  13.080  0.1138 -1.6623  0.9595
19051TIP3   OH278643   6.500   2.489   3.690 -0.4828  0.1236 -0.1551
19051TIP3    H178644   6.564   2.557   3.707 -0.4855 -0.1053  0.8220
19051TIP3    H278645   6.552   2.409   3.680 -0.4496  0.2931 -1.6380
19052TIP3   OH278646   3.908   4.440   5.874  0.2068 -0.3255 -0.1253
19052TIP3    H178647   3.931   4.412   5.962 -1.5681  2.5793  1.4317
19052TIP3    H278648   3.981   4.496   5.847 -0.8863  1.9862  1.2934
19053TIP3   OH278649   6.005   6.586   3.098 -0.1647 -0.1613 -0.3330
19053TIP3    H178650   6.098   6.583   3.119  0.0592 -1.4074 -1.3578
19053TIP3    H278651   5.961   6.565   3.180  0.4600  0.3774  0.1458
19054TIP3   OH278652   1.302   3.446  13.463 -0.1125 -0.2127  0.9661
19054TIP3    H178653   1.238   3.413  13.525 -0.7691  0.6054  0.7545
19054TIP3    H278654   1.297   3.387  13.388  1.0448 -1.5003  1.8692
19055TIP3   OH278655   5.968   3.827  10.995  0.8324 -0.3526 -0.1967
19055TIP3    H178656   5.948   3.753  10.937 -0.8453 -0.5346  0.5436
19055TIP3    H278657   5.900   3.891  10.977  1.6078  0.5412 -0.0163
19056TIP3   OH278658   0.285   0.111   1.817  0.3572  0.1142 -0.4425
19056TIP3    H178659   0.201   0.159   1.816  0.1825 -0.1936 -0.8927
19056TIP3    H278660   0.328   0.137   1.735  0.0892 -0.7851 -0.8836
19057TIP3   OH278661   2.723   5.847   2.897 -0.2235  0.1803 -0.0122
19057TIP3    H178662   2.817   5.832   2.905 -0.2927  0.3305  1.3492
19057TIP3    H278663   2.715   5.937   2.863  0.1129 -0.2081 -1.1631
19058TIP3   OH278664   3.237   4.745  11.363 -0.1798 -0.2303  0.1047
19058TIP3    H178665   3.157   4.797  11.376  0.8716  1.6722 -0.6535
19058TIP3    H278666   3.236   4.724  11.270  0.1247 -0.3142  0.1204
19059TIP3   OH278667   4.133   1.564   4.071 -0.5483  0.0979  0.1450
19059TIP3    H178668   4.082   1.536   3.995 -0.4157 -2.9202  1.0514
19059TIP3    H278669   4.068   1.583   4.139 -0.5946  0.0657  0.1096
19060TIP3   OH278670   0.964   2.305  17.100 -0.2164  1.0324  0.1691
19060TIP3    H178671   0.898   2.362  17.060 -1.0366  0.0985  0.1391
19060TIP3    H278672   1.038   2.309  17.040 -0.1823  2.1970  0.2629
19061TIP3   OH278673   5.935   2.573  16.074 -0.0693 -0.1451 -0.2609
19061TIP3    H178674   5.958   2.482  16.059  1.3762  0.1619 -0.0492
19061TIP3    H278675   5.984   2.599  16.152  0.8394  1.2387 -1.2286
19062TIP3   OH278676   4.657   4.564  12.761  0.3066 -0.0884  0.6674
19062TIP3    H178677   4.710   4.492  12.795 -0.5351 -1.0209  0.0557
19062TIP3    H278678   4.606   4.525  12.690 -1.1804  0.7867  1.2052
19063TIP3   OH278679   2.993   2.593  16.433  0.2621  0.1915 -0.3276
19063TIP3    H178680   2.940   2.555  16.363 -3.1002 -0.6027  2.3752
19063TIP3    H278681   2.990   2.687  16.418 -3.3585  0.3349  0.4358
19064TIP3   OH278682   1.065   3.605   2.490 -0.6225 -0.9522  0.0008
19064TIP3    H178683   1.160   3.620   2.495 -0.7464 -0.3797  0.8422
19064TIP3    H278684   1.041   3.639   2.404 -0.5742  2.1736  1.0755
19065TIP3   OH278685   5.324   1.402   0.067  0.2782 -0.0421  0.4433
19065TIP3    H178686   5.389   1.456   0.021  1.0645 -0.9763  0.4098
19065TIP3    H278687   5.243   1.452   0.060  0.5596  0.2722 -1.1886
19066TIP3   OH278688   3.328   3.991   0.211 -0.4767 -0.1309 -0.3035
19066TIP3    H178689   3.239   4.013   0.183  0.1500 -0.6524 -2.9378
19066TIP3    H278690   3.366   3.944   0.137  1.4364 -1.4961  1.4237
19067TIP3   OH278691   3.602   4.744   0.993  0.1923  0.0334  0.2211
19067TIP3    H178692   3.594   4.839   0.987 -1.3521 -0.0686  0.3232
19067TIP3    H278693   3.628   4.717   0.905 -1.6061  0.3711 -0.4536
19068TIP3   OH278694   1.672   5.943  12.685 -0.1345  0.2396 -0.1500
19068TIP3    H178695   1.743   5.888  12.720 -0.6988 -0.0936  0.4856
19068TIP3    H278696   1.603   5.881  12.663 -0.1957  0.5591 -0.8534
19069TIP3   OH278697   0.588   6.083  13.531 -0.1970  0.0741  0.1895
19069TIP3    H178698   0.675   6.106  13.564 -0.2030  1.0972 -0.4724
19069TIP3    H278699   0.528   6.133  13.586 -0.3851 -0.7772  0.7695
19070TIP3   OH278700   3.768   4.628   2.909 -0.0308  0.1231 -0.5962
19070TIP3    H178701   3.772   4.538   2.877 -1.1445  0.7124 -2.6159
19070TIP3    H278702   3.676   4.653   2.899  0.5500  2.0150 -1.7934
19071TIP3   OH278703   3.613   6.116   3.032 -0.0564  0.3288  0.1302
19071TIP3    H178704   3.519   6.094   3.028 -0.3991  1.7304 -0.0429
19071TIP3    H278705   3.657   6.032   3.021 -1.2882 -0.2638 -0.5259
19072TIP3   OH278706   0.680   4.521   5.538  0.2336  0.2862 -0.7042
19072TIP3    H178707   0.725   4.541   5.620  1.6995 -1.8516 -0.9017
19072TIP3    H278708   0.633   4.601   5.516  0.0034  1.0103  2.0692
19073TIP3   OH278709   0.427   1.374   0.058 -0.5066  0.3864  0.0290
19073TIP3    H178710   0.416   1.460   0.016  0.4090  1.2798  1.5244
19073TIP3    H278711   0.373   1.379   0.137 -1.5143 -0.9505 -0.5264
19074TIP3   OH278712   6.321   6.643  12.893  0.2959 -0.3712 -0.0083
19074TIP3    H178713   6.401   6.677  12.854 -0.1915 -0.8394 -1.4886
19074TIP3    H278714   6.349   6.567  12.944  0.9602  0.3107  0.6700
19075TIP3   OH278715   5.039   6.166   0.055 -0.1743 -0.1013 -0.0473
19075TIP3    H178716   5.088   6.242   0.024 -0.1386 -0.3882 -0.6973
19075TIP3    H278717   4.964   6.159  -0.003  1.5726 -2.5531 -2.2289
19076TIP3   OH278718   4.014   6.183   0.678  0.0627 -0.1089  0.0290
19076TIP3    H178719   4.031   6.128   0.754  0.1116 -1.8643 -1.1935
19076TIP3    H278720   3.952   6.249   0.709  1.1945  0.1214  1.9294
19077TIP3   OH278721   0.838   1.853  12.479 -0.2033 -0.0042  0.1987
19077TIP3    H178722   0.830   1.940  12.516  1.5888  1.2885 -2.1496
19077TIP3    H278723   0.845   1.795  12.555 -1.8794  1.7827  1.8199
19078TIP3   OH278724   5.470   1.170  17.174 -0.2816 -0.3516 -0.1301
19078TIP3    H178725   5.504   1.152  17.262 -1.5442 -1.9084  0.0885
19078TIP3    H278726   5.442   1.261  17.177 -1.8918 -0.8362  1.6801
19079TIP3   OH278727   2.485   0.533  13.595 -0.0670  0.0653 -0.2235
19079TIP3    H178728   2.519   0.608  13.547 -0.4396  0.2976 -0.1292
19079TIP3    H278729   2.493   0.459  13.534 -0.8647  0.4271 -0.7856
19080TIP3   OH278730   2.035   1.681   6.142  0.3939 -0.2148  0.1620
19080TIP3    H178731   2.010   1.604   6.091 -2.2539 -1.2179  2.6913
19080TIP3    H278732   2.011   1.755   6.086 -0.2557 -1.2389 -0.9798
19081TIP3   OH278733   4.034   3.341   1.177 -0.2182 -0.0811  0.4914
19081TIP3    H178734   4.058   3.308   1.090  2.6886  0.0223  1.1715
19081TIP3    H278735   4.116   3.369   1.216 -1.7949  2.5726  2.2330
19082TIP3   OH278736   3.391   0.716  13.067 -0.0340 -0.4173 -0.1750
19082TIP3    H178737   3.347   0.663  13.001 -1.0758 -0.9020  0.8749
19082TIP3    H278738   3.478   0.732  13.030 -0.4552 -0.9849 -1.4891
19083TIP3   OH278739   4.209   2.655  17.079 -0.0954 -0.4002 -0.0263
19083TIP3    H178740   4.196   2.595  17.006  0.6444 -1.9805  1.0907
19083TIP3    H278741   4.277   2.614  17.132  1.4249  2.0819  0.1213
19084TIP3   OH278742   6.667   3.333   2.185 -0.0702 -0.5482  0.2774
19084TIP3    H178743   6.687   3.276   2.111 -0.3509  0.0771 -0.2837
19084TIP3    H278744   6.726   3.303   2.255  1.5402  0.0670 -0.7639
19085TIP3   OH278745   2.978   1.890   3.185  0.2110  0.4592  0.2009
19085TIP3    H178746   2.995   1.914   3.276  0.1996  0.1843  0.2763
19085TIP3    H278747   3.028   1.810   3.171  1.1909  1.1499 -0.3980
19086TIP3   OH278748   3.053   4.029  12.289  0.1970 -0.4701  0.2320
19086TIP3    H178749   2.990   3.958  12.302  0.7682 -0.7673  1.5539
19086TIP3    H278750   3.012   4.086  12.224 -1.6784 -0.3682  1.4460
19087TIP3   OH278751   5.852   2.352   3.520  0.7259  0.2994 -0.3420
19087TIP3    H178752   5.827   2.266   3.486  1.5200  0.6762 -1.9409
19087TIP3    H278753   5.801   2.361   3.601  0.3240 -1.4907 -0.3512
19088TIP3   OH278754   2.760   1.596   3.884  0.4129  0.0138  0.6000
19088TIP3    H178755   2.786   1.687   3.869  0.3547 -0.1753 -0.7535
19088TIP3    H278756   2.667   1.601   3.905  0.3637  0.2491  0.3367
19089TIP3   OH278757   4.855   5.205   4.548 -0.2590 -0.3628 -0.4942
19089TIP3    H178758   4.810   5.144   4.606  0.3817  0.7544  1.2523
19089TIP3    H278759   4.900   5.149   4.484 -1.4938 -1.5974 -0.3197
19090TIP3   OH278760   3.085   0.568   0.161 -0.3913  0.2840 -0.2346
19090TIP3    H178761   3.041   0.492   0.198 -1.5163  0.9745 -0.1024
19090TIP3    H278762   3.014   0.630   0.141  0.4577  1.1360 -0.7115
19091TIP3   OH278763   2.861   6.835  12.849  0.5284  0.9092 -0.0839
19091TIP3    H178764   2.787   6.791  12.890  0.2772  0.2760 -1.2022
19091TIP3    H278765   2.920   6.765  12.822 -0.2348  1.1287 -2.5839
19092TIP3   OH278766   0.565   0.569   3.187  0.3474 -0.2207  0.4226
19092TIP3    H178767   0.577   0.484   3.230  2.2010 -0.2129 -0.0004
19092TIP3    H278768   0.621   0.565   3.109 -3.7067 -0.6688 -2.8036
19093TIP3   OH278769   1.617   4.885   6.949  0.2795  0.1867  0.3306
19093TIP3    H178770   1.640   4.963   6.898 -1.0275  0.1107 -0.4069
19093TIP3    H278771   1.543   4.847   6.903 -0.3066 -0.4464  1.7317
19094TIP3   OH278772   2.555   6.369  15.099 -0.0751 -0.0474 -0.4141
19094TIP3    H178773   2.593   6.304  15.157  0.0699 -1.1552 -1.7103
19094TIP3    H278774   2.584   6.453  15.135 -0.0474 -0.6861  1.1271
19095TIP3   OH278775   0.320   6.021   5.338 -0.0651  0.2369 -0.5239
19095TIP3    H178776   0.363   5.973   5.409 -2.7209 -0.3132  0.8144
19095TIP3    H278777   0.248   6.068   5.380 -2.3335 -0.8380 -2.9178
19096TIP3   OH278778   1.744   5.967  11.753  0.6052  0.2573 -0.1433
19096TIP3    H178779   1.721   6.060  11.746  0.9966  0.5407  1.7260
19096TIP3    H278780   1.688   5.934  11.823  1.6603 -0.4960  0.3691
19097TIP3   OH278781   5.685   6.609  10.533  0.4022 -0.0031  0.5039
19097TIP3    H178782   5.638   6.568  10.460 -1.1124 -1.2121  2.0648
19097TIP3    H278783   5.754   6.661  10.491 -0.8929  0.0057 -1.8141
19098TIP3   OH278784   3.318   3.815   1.114  0.2102 -0.0416 -0.3677
19098TIP3    H178785   3.324   3.891   1.057 -0.7869  0.4579  0.1711
19098TIP3    H278786   3.360   3.843   1.196  0.1997 -0.2125 -0.3035
19099TIP3   OH278787   4.214   5.884  10.324 -0.6368 -0.2424  0.5483
19099TIP3    H178788   4.179   5.890  10.413  0.5375  2.7461  0.9187
19099TIP3    H278789   4.178   5.959  10.278 -0.3777 -1.1401 -1.2108
19100TIP3   OH278790   4.334   2.569   4.668  0.3584 -0.3380 -0.2203
19100TIP3    H178791   4.285   2.529   4.596 -0.0478  0.7459 -0.5680
19100TIP3    H278792   4.270   2.577   4.739 -0.3777  2.1152 -1.0442
19101TIP3   OH278793   2.574   1.681   1.570 -0.5101 -0.4326 -0.4925
19101TIP3    H178794   2.614   1.760   1.533 -1.6140  1.2106  1.5426
19101TIP3    H278795   2.647   1.620   1.582  0.5085  0.5538 -1.4548
19102TIP3   OH278796   3.208   1.561   0.007  0.9432  0.5678  0.5336
19102TIP3    H178797   3.259   1.566  -0.075  2.5784 -2.4042  1.1920
19102TIP3    H278798   3.125   1.602  -0.014  1.5788  0.6081 -2.4156
19103TIP3   OH278799   3.775   1.888   1.034 -0.1759  0.7816 -0.1071
19103TIP3    H178800   3.765   1.949   0.961  0.3659  0.9919 -0.0065
19103TIP3    H278801   3.702   1.827   1.024 -0.2158  0.9214 -0.7182
19104TIP3   OH278802   3.427   4.207   4.884  0.3478 -0.2108  0.1492
19104TIP3    H178803   3.504   4.174   4.928  0.8031 -1.5531 -1.5384
19104TIP3    H278804   3.375   4.249   4.953  1.6132 -1.0433  1.6577
19105TIP3   OH278805   5.401   0.019  13.054  0.0770 -0.0021  0.3497
19105TIP3    H178806   5.308   0.029  13.074  0.4319  0.7257  1.7552
19105TIP3    H278807   5.420   0.090  12.993 -0.5013 -0.8084 -0.8170
19106TIP3   OH278808   2.429   1.936   1.020  0.4430  0.2076  0.1840
19106TIP3    H178809   2.367   1.880   1.068  0.0848 -0.5372 -1.0866
19106TIP3    H278810   2.404   2.025   1.044  0.1336 -0.1359  1.1932
19107TIP3   OH278811   3.500   0.678  11.677 -0.1849 -0.2045 -0.6913
19107TIP3    H178812   3.550   0.752  11.645 -0.1292 -0.2845 -0.7913
19107TIP3    H278813   3.435   0.661  11.609 -0.7345  0.2720 -0.2952
19108TIP3   OH278814   0.243   3.277   1.097  0.3398 -0.0810  0.1553
19108TIP3    H178815   0.274   3.303   1.011 -1.6476  0.2452 -0.5141
19108TIP3    H278816   0.264   3.184   1.105  3.6672  0.6121  0.8097
19109TIP3   OH278817   0.933   5.700   5.980  0.4822 -0.7619  0.3600
19109TIP3    H178818   0.844   5.723   5.953  0.9761  2.5362  1.1285
19109TIP3    H278819   0.934   5.604   5.980 -3.1305 -0.9347  0.6284
19110TIP3   OH278820   0.830   6.201   0.822 -0.1235  0.6326 -0.4305
19110TIP3    H178821   0.808   6.165   0.907  0.6037 -1.4222 -1.0443
19110TIP3    H278822   0.867   6.287   0.841  0.5076  0.0091  1.3651
19111TIP3   OH278823   1.673   3.457   4.055 -0.0001  0.3159 -0.2091
19111TIP3    H178824   1.678   3.493   3.967  1.4722  0.0629 -0.2497
19111TIP3    H278825   1.579   3.447   4.072 -0.2827 -0.3271 -2.0066
19112TIP3   OH278826   3.175   4.761   3.479  0.2001  0.0065 -0.1904
19112TIP3    H178827   3.160   4.680   3.429  0.5132  0.0645 -0.3868
19112TIP3    H278828   3.124   4.827   3.433 -2.7587 -0.6867  1.8619
19113TIP3   OH278829   2.939   2.872  15.648 -0.0692 -0.1609  0.1310
19113TIP3    H178830   2.857   2.836  15.681  0.4207  0.0595  1.6741
19113TIP3    H278831   2.981   2.910  15.725  0.8930  0.8831 -0.8672
19114TIP3   OH278832   2.585   4.811  14.163 -0.2885  0.3235 -0.1176
19114TIP3    H178833   2.509   4.864  14.137 -0.6312 -0.5669 -1.0201
19114TIP3    H278834   2.554   4.760  14.238 -0.4375  0.2992 -0.1952
19115TIP3   OH278835   1.882   5.912  14.420 -0.3106 -0.3017 -0.1493
19115TIP3    H178836   1.970   5.949  14.423 -0.2706 -0.4036 -0.0486
19115TIP3    H278837   1.854   5.922  14.329 -0.4553  0.3369 -0.0362
19116TIP3   OH278838   6.141   6.379  14.660  0.2574 -0.2450 -0.1064
19116TIP3    H178839   6.222   6.381  14.608  0.6874 -0.1426  0.5453
19116TIP3    H278840   6.141   6.462  14.707 -1.6192  1.0040 -2.1041
19117TIP3   OH278841   0.001   5.334   1.459  0.2809 -0.1098 -0.1425
19117TIP3    H178842  -0.030   5.357   1.371  1.1446 -3.7984 -1.5790
19117TIP3    H278843   0.002   5.239   1.460  3.2559 -0.2206  2.8390
19118TIP3   OH278844   4.092   1.778  15.956  0.6547  0.0207 -0.1019
19118TIP3    H178845   4.158   1.760  16.023 -1.7587  0.3639  2.5658
19118TIP3    H278846   4.009   1.755  15.998 -1.1221  1.6125 -2.5060
19119TIP3   OH278847   1.134   1.870  16.481 -0.0633  0.1558  0.2867
19119TIP3    H178848   1.066   1.804  16.480 -0.7727  0.8143 -2.3031
19119TIP3    H278849   1.107   1.934  16.415  2.8584  0.6115 -0.6275
19120TIP3   OH278850   4.654   2.793  15.378  0.0324  0.0198 -0.0802
19120TIP3    H178851   4.723   2.803  15.312  0.3151  2.0197  0.4355
19120TIP3    H278852   4.606   2.876  15.375 -1.5715 -0.8548  0.4587
19121TIP3   OH278853   3.899   2.477  12.629 -0.1821 -0.4661  0.1258
19121TIP3    H178854   3.806   2.488  12.611 -0.2718 -0.1998  0.7086
19121TIP3    H278855   3.943   2.533  12.565 -0.4907  0.5044  0.7207
19122TIP3   OH278856   2.280   3.945   4.136 -0.2408  0.2025  0.0750
19122TIP3    H178857   2.374   3.952   4.117 -0.3127 -1.2937 -1.0210
19122TIP3    H278858   2.238   3.957   4.051 -0.8224 -2.3602 -0.0969
19123TIP3   OH278859   0.648   6.749  15.285  0.8155  0.0405  0.0421
19123TIP3    H178860   0.728   6.792  15.253  0.1678  1.6210  0.4710
19123TIP3    H278861   0.618   6.696  15.211  1.5889  0.4030 -0.5491
19124TIP3   OH278862   2.469   0.799   6.066  0.1599  0.3782  0.1135
19124TIP3    H178863   2.563   0.815   6.075  0.2199 -1.0372  3.6040
19124TIP3    H278864   2.451   0.724   6.123 -2.6715 -1.4147 -2.7624
19125TIP3   OH278865   6.279   1.644   4.273  0.2775  0.2849 -0.0668
19125TIP3    H178866   6.263   1.630   4.366  0.9021 -0.2208 -0.0300
19125TIP3    H278867   6.192   1.643   4.233  0.0435  0.0154  0.4467
19126TIP3   OH278868   0.306   0.938  14.955 -0.3199  0.5556  0.2360
19126TIP3    H178869   0.268   1.025  14.964 -0.0561  0.7398 -0.3410
19126TIP3    H278870   0.367   0.946  14.881 -0.5120 -0.1907 -0.0147
19127TIP3   OH278871   3.898   0.714   4.118 -0.3883  0.3776  0.3486
19127TIP3    H178872   3.854   0.750   4.194  1.0210  1.1321  0.8524
19127TIP3    H278873   3.875   0.774   4.046 -1.2407 -0.0007  0.2960
19128TIP3   OH278874   2.893   3.599  15.397 -0.0765 -0.0389  0.0682
19128TIP3    H178875   2.891   3.615  15.491 -2.5856  0.3298  0.0112
19128TIP3    H278876   2.860   3.510  15.387  0.4199 -0.1748 -0.4818
19129TIP3   OH278877   3.571   3.035   5.331  0.2494  0.3551  0.5897
19129TIP3    H178878   3.528   2.951   5.350  0.0530  0.4490  0.5566
19129TIP3    H278879   3.663   3.020   5.355  0.9839 -0.9348 -2.4668
19130TIP3   OH278880   3.555   5.262  12.254  0.3673 -0.2290 -0.6849
19130TIP3    H178881   3.584   5.286  12.343 -0.6563 -1.7779  0.1055
19130TIP3    H278882   3.494   5.189  12.267 -0.9263  0.4327 -2.5721
19131TIP3   OH278883   0.600   2.147   0.063 -0.2590 -0.0010 -0.2952
19131TIP3    H178884   0.545   2.151   0.142  0.7660 -1.2534  0.5276
19131TIP3    H278885   0.676   2.095   0.090 -0.4451 -1.5058 -2.4605
19132TIP3   OH278886   2.814   1.891  15.731 -0.1601  0.2007  0.6373
19132TIP3    H178887   2.802   1.835  15.654 -0.1432  0.2020  0.6333
19132TIP3    H278888   2.725   1.910  15.760 -0.2242 -2.0540  2.2365
19133TIP3   OH278889   3.547   2.161  12.155  0.8997  0.1963  0.6050
19133TIP3    H178890   3.581   2.250  12.163  1.4028 -0.0068  0.7422
19133TIP3    H278891   3.479   2.155  12.222  0.4906  0.6477  0.2396
19134TIP3   OH278892   0.962   3.918   3.868  0.1202  0.6188 -0.4799
19134TIP3    H178893   0.984   3.835   3.825 -0.6967  0.7107 -1.0935
19134TIP3    H278894   1.047   3.956   3.891  0.5057 -1.2403  1.5066
19135TIP3   OH278895   0.333   4.889   3.616 -0.4283 -0.2175 -0.4452
19135TIP3    H178896   0.405   4.872   3.676 -2.0242 -0.4564  1.5074
19135TIP3    H278897   0.353   4.974   3.577  0.6072 -0.0104  0.5039
19136TIP3   OH278898   5.643   0.835  11.779 -0.3857  0.1885 -0.2914
19136TIP3    H178899   5.563   0.855  11.828  0.3975 -1.4827  1.8888
19136TIP3    H278900   5.694   0.780  11.839  2.3679  1.0915 -1.6227
19137TIP3   OH278901   6.128   4.293   3.520 -0.6228  0.3879 -0.6743
19137TIP3    H178902   6.047   4.244   3.504 -1.0613  1.0756 -0.6014
19137TIP3    H278903   6.171   4.246   3.592  0.0139 -1.1152 -1.9718
19138TIP3   OH278904   2.459   2.219   1.039 -0.1894  0.4426 -0.1797
19138TIP3    H178905   2.509   2.277   1.096 -0.4473  0.9747 -0.4859
19138TIP3    H278906   2.385   2.272   1.010  0.3972  0.4832 -1.6967
19139TIP3   OH278907   3.458   5.620  16.842 -0.1392  0.5300 -0.3381
19139TIP3    H178908   3.519   5.575  16.901 -0.9362 -2.7860 -1.7957
19139TIP3    H278909   3.512   5.678  16.790  1.0298  1.1204  1.4335
19140TIP3   OH278910   3.967   2.314  16.275  0.2380 -0.6443  0.0701
19140TIP3    H178911   3.897   2.279  16.329 -0.4198  1.0682  0.4160
19140TIP3    H278912   4.039   2.253  16.286 -1.3662 -2.7861 -0.7769
19141TIP3   OH278913   6.721   1.078   1.851  0.0824  0.5561  0.2732
19141TIP3    H178914   6.700   1.169   1.830 -0.3912  0.3140 -0.3226
19141TIP3    H278915   6.664   1.056   1.925 -0.9505  0.2606 -0.5954
19142TIP3   OH278916   4.648   0.924  14.006  0.1875  0.4765 -0.0811
19142TIP3    H178917   4.706   0.947  13.933 -0.4283 -0.6999 -0.9818
19142TIP3    H278918   4.690   0.849  14.048 -0.0903  0.3601 -0.0074
19143TIP3   OH278919   4.073   3.362   4.030  0.1091 -0.1504  0.2843
19143TIP3    H178920   4.003   3.428   4.027  0.6301  0.3623 -1.9946
19143TIP3    H278921   4.070   3.329   4.120 -0.7645  2.3343  1.2467
19144TIP3   OH278922   6.012   0.168   5.152  0.3866  0.1447 -0.6223
19144TIP3    H178923   5.921   0.188   5.174  0.5351  0.4978 -0.3092
19144TIP3    H278924   6.015   0.072   5.148 -0.0843  0.1419 -1.0218
19145TIP3   OH278925   1.780   2.751  16.320 -0.6367  0.5111 -0.0341
19145TIP3    H178926   1.864   2.771  16.279 -1.1613  0.4530 -1.1921
19145TIP3    H278927   1.716   2.797  16.266 -1.4743 -0.6884 -0.0935
19146TIP3   OH278928   1.290   1.917  11.623 -0.0405  0.2910 -0.1723
19146TIP3    H178929   1.280   1.832  11.665  0.0472 -0.4272 -1.5450
19146TIP3    H278930   1.366   1.907  11.566  1.2244  1.9371  1.1273
19147TIP3   OH278931   1.221   1.043   2.417 -0.2365  0.3115 -0.0192
19147TIP3    H178932   1.174   1.126   2.414 -0.3007  0.2516 -1.0025
19147TIP3    H278933   1.157   0.981   2.453 -0.4852  0.5034 -0.1252
19148TIP3   OH278934   2.373   1.980   4.382  0.1285  0.4331 -0.2674
19148TIP3    H178935   2.463   1.959   4.356 -0.1837 -2.5539  0.7036
19148TIP3    H278936   2.345   2.046   4.319  2.0305 -0.6801 -2.4296
19149TIP3   OH278937   5.404   1.208   4.680  0.5941  0.1192 -0.3687
19149TIP3    H178938   5.465   1.169   4.618  0.2528  0.0081 -0.6384
19149TIP3    H278939   5.354   1.135   4.715 -1.4093  0.4464 -2.3450
19150TIP3   OH278940   1.400   6.172  13.545 -0.0633 -0.3935 -0.0476
19150TIP3    H178941   1.462   6.140  13.610  0.9636 -0.6891 -1.1399
19150TIP3    H278942   1.453   6.226  13.486 -1.0917  0.3844 -0.2888
19151TIP3   OH278943   2.909   2.017  15.955 -0.2534  0.9491  0.7846
19151TIP3    H178944   2.875   1.992  15.869  0.4055 -0.5804  0.9218
19151TIP3    H278945   2.996   2.052  15.937 -0.1889  0.7996  0.7986
19152TIP3   OH278946   0.633   4.501  11.403  0.2785 -0.3959 -0.0950
19152TIP3    H178947   0.590   4.567  11.349 -0.4569 -1.2933 -0.6183
19152TIP3    H278948   0.726   4.510  11.381  0.1698  0.3156 -0.3078
19153TIP3   OH278949   5.997   5.713  12.587  0.0202 -0.0438  0.5890
19153TIP3    H178950   6.089   5.715  12.563 -0.4201 -0.3144 -1.3340
19153TIP3    H278951   5.952   5.686  12.507 -1.7223 -0.0184  1.5027
19154TIP3   OH278952   1.108   4.602   5.979  0.7080  0.6022 -0.2066
19154TIP3    H178953   1.033   4.574   6.032 -0.3436  1.3708 -1.2339
19154TIP3    H278954   1.169   4.641   6.041  0.6200 -0.7252  0.7599
19155TIP3   OH278955   5.423   4.636  15.458 -0.6217  0.0955 -0.0354
19155TIP3    H178956   5.330   4.659  15.467 -0.9227 -1.0204 -0.1326
19155TIP3    H278957   5.455   4.635  15.548 -0.7631  0.2286  0.0182
19156TIP3   OH278958   5.479   5.137   2.240  0.5003  0.4774  0.0636
19156TIP3    H178959   5.456   5.206   2.303 -0.6648 -0.5356  0.7928
19156TIP3    H278960   5.413   5.143   2.172  1.4427  1.2120 -0.8148
19157TIP3   OH278961   3.076   1.598   3.123 -0.0152  0.4656  0.8081
19157TIP3    H178962   3.067   1.504   3.106 -1.4852  1.0900 -2.6018
19157TIP3    H278963   2.985   1.630   3.130  0.4666  1.5926  2.5457
19158TIP3   OH278964   3.709   4.600  14.724 -0.0141  0.2910  0.3243
19158TIP3    H178965   3.710   4.547  14.645  0.3841  1.3748 -0.4193
19158TIP3    H278966   3.788   4.573  14.772 -0.7167 -0.9864  0.7921
19159TIP3   OH278967   4.484   2.021   1.806  0.6113 -0.2978 -0.4004
19159TIP3    H178968   4.411   1.960   1.821  0.7098 -0.6864 -1.3752
19159TIP3    H278969   4.555   1.987   1.861  0.8783 -1.4912 -1.4246
19160TIP3   OH278970   3.004   3.635  13.905 -0.4611 -0.0603  0.6065
19160TIP3    H178971   3.037   3.563  13.958  0.7973 -1.0928 -1.4350
19160TIP3    H278972   2.917   3.607  13.877 -1.2935  0.6550  2.3159
19161TIP3   OH278973   6.535   1.696   2.423  0.4087 -1.4141  0.1643
19161TIP3    H178974   6.528   1.771   2.483 -1.3946 -1.3581 -0.0632
19161TIP3    H278975   6.567   1.733   2.341 -0.1275 -0.9344  0.1633
19162TIP3   OH278976   6.463   5.070  14.499 -0.5138 -0.1819 -0.2642
19162TIP3    H178977   6.463   5.164  14.484 -2.0667 -0.2496 -0.8354
19162TIP3    H278978   6.462   5.061  14.594 -0.9470  0.3865 -0.2090
19163TIP3   OH278979   5.414   2.607  12.495 -0.0373  0.0869  0.5080
19163TIP3    H178980   5.437   2.515  12.486 -1.0488 -0.2508  1.1479
19163TIP3    H278981   5.497   2.653  12.498  0.4877 -0.6169 -1.4937
19164TIP3   OH278982   5.512   5.508   2.729  0.3567 -0.0468 -0.0922
19164TIP3    H178983   5.448   5.574   2.755  0.6662  0.0469  0.4530
19164TIP3    H278984   5.567   5.551   2.664  1.0204  0.4983  0.7952
19165TIP3   OH278985   6.402   0.761  16.658  0.3714  0.4020 -0.0382
19165TIP3    H178986   6.477   0.809  16.693 -0.0927  1.0295  0.1202
19165TIP3    H278987   6.420   0.753  16.564  0.5178  0.7786 -0.0460
19166TIP3   OH278988   6.639   2.510  10.716 -0.5759 -0.2632 -0.1979
19166TIP3    H178989   6.626   2.551  10.630  0.6631 -0.6918 -0.6099
19166TIP3    H278990   6.733   2.515  10.731 -0.7210 -0.6335  0.9220
19167TIP3   OH278991   2.641   3.999  15.421 -0.3869 -0.4552 -0.0249
19167TIP3    H178992   2.630   3.943  15.345 -0.1561 -1.0741  0.3923
19167TIP3    H278993   2.608   4.084  15.393 -1.2578 -0.9343 -0.4939
19168TIP3   OH278994   6.135   4.868   1.727  0.3276 -0.2231 -0.4323
19168TIP3    H178995   6.048   4.835   1.751 -0.2954  0.3962 -1.7495
19168TIP3    H278996   6.192   4.841   1.800 -0.3529 -3.1758 -0.8830
19169TIP3   OH278997   6.178   1.969   1.797 -0.1542  0.4701 -0.3947
19169TIP3    H178998   6.225   2.051   1.805 -0.7811  0.6641  1.8516
19169TIP3    H278999   6.246   1.902   1.789  0.4529  0.9235  0.8481
19170TIP3   OH279000   1.746   2.848   6.810  0.8573  0.3486  0.7104
19170TIP3    H179001   1.671   2.850   6.870  0.5290  0.8364  0.2855
19170TIP3    H279002   1.750   2.936   6.773  1.7041  0.3577  0.7994
19171TIP3   OH279003   0.530   5.069   4.471 -0.1397 -0.2957  0.3105
19171TIP3    H179004   0.561   5.020   4.548 -0.7859 -0.4146  0.5010
19171TIP3    H279005   0.446   5.106   4.499  0.3980  1.0473  0.2166
19172TIP3   OH279006   1.933   0.471   2.406  0.2326  0.0820  0.4393
19172TIP3    H179007   1.902   0.558   2.378 -1.4345 -0.8429 -0.8149
19172TIP3    H279008   1.968   0.432   2.326  0.1644 -0.7251  0.7998
19173TIP3   OH279009   0.425   5.368   0.773 -0.0382  0.4891  0.1337
19173TIP3    H179010   0.464   5.400   0.855  1.0958  3.6487 -1.4728
19173TIP3    H279011   0.496   5.319   0.731 -0.5180 -0.8470  0.8099
19174TIP3   OH279012   4.111   5.612  13.482  0.3416 -0.1457  0.1321
19174TIP3    H179013   4.066   5.644  13.561  1.7761 -0.9341  1.3382
19174TIP3    H279014   4.204   5.624  13.502  0.8714 -2.8139 -0.3022
19175TIP3   OH279015   6.742   4.185  12.323  0.0506  0.3734  0.5438
19175TIP3    H179016   6.671   4.214  12.267  0.9510  0.3942 -0.6243
19175TIP3    H279017   6.806   4.257  12.320  0.7031 -0.1957  0.5042
19176TIP3   OH279018   6.283   6.629  16.629 -0.6950 -0.3032 -0.1197
19176TIP3    H179019   6.232   6.549  16.637 -2.6574  0.6772 -1.8576
19176TIP3    H279020   6.240   6.690  16.689  0.6708 -0.4435  1.0531
19177TIP3   OH279021   1.751   1.073   2.886  0.5494  0.4520 -0.0320
19177TIP3    H179022   1.779   1.062   2.977 -0.6477  0.6261  0.3651
19177TIP3    H279023   1.736   1.167   2.877  3.3579  0.8887 -1.2375
19178TIP3   OH279024   2.897   3.882  17.052  0.4428 -0.1179 -0.2070
19178TIP3    H179025   2.864   3.799  17.085 -0.9138  0.8584  1.0241
19178TIP3    H279026   2.963   3.909  17.116 -0.1222  0.4061  0.1612
19179TIP3   OH279027   4.016   6.753  13.323  0.6103  0.2676 -0.3430
19179TIP3    H179028   3.961   6.812  13.375  0.6630  0.4542 -0.4988
19179TIP3    H279029   3.988   6.768  13.232 -1.9757 -2.5828 -0.1676
19180TIP3   OH279030   6.438   0.290  15.513  0.0326 -0.1724 -0.6097
19180TIP3    H179031   6.496   0.327  15.446 -0.0685  2.5380  0.6663
19180TIP3    H279032   6.493   0.278  15.590 -0.5961  0.3477 -0.0549
19181TIP3   OH279033   3.292   6.025  11.239  0.5240  0.0011  0.2158
19181TIP3    H179034   3.314   5.933  11.256 -1.2870 -0.4488  0.3528
19181TIP3    H279035   3.296   6.033  11.144  1.5998  0.0520  0.2506
19182TIP3   OH279036   6.666   5.878   1.525  0.1638 -0.1551 -0.1033
19182TIP3    H179037   6.720   5.817   1.475  1.0015  0.6724 -0.2462
19182TIP3    H279038   6.683   5.963   1.484 -1.2003  0.1401 -0.0946
19183TIP3   OH279039   2.630   6.345  15.751  0.3648  0.0444  0.1702
19183TIP3    H179040   2.562   6.283  15.726  0.0513 -0.0649  1.2368
19183TIP3    H279041   2.587   6.430  15.746 -0.0943 -0.0771  1.5180
19184TIP3   OH279042   5.706   2.562  13.979 -0.1681  0.6743  0.0018
19184TIP3    H179043   5.796   2.560  13.945  0.0335  0.3652  0.5513
19184TIP3    H279044   5.655   2.602  13.908 -0.6575 -4.2058 -2.7937
19185TIP3   OH279045   6.638   2.663  12.459  0.4055  0.0907  0.0639
19185TIP3    H179046   6.620   2.696  12.547  0.6327  0.5229 -0.0490
19185TIP3    H279047   6.621   2.569  12.465  2.2877 -0.2319  1.0912
19186TIP3   OH279048   1.503   2.502   2.852 -0.4703 -0.2289 -0.3332
19186TIP3    H179049   1.540   2.485   2.765 -0.8879 -0.3047 -0.4960
19186TIP3    H279050   1.570   2.471   2.913 -0.5796 -1.0590 -0.6232
19187TIP3   OH279051   4.677   3.335   4.387  0.8658 -0.1484 -0.0472
19187TIP3    H179052   4.641   3.322   4.475 -0.9316  0.1007 -0.7038
19187TIP3    H279053   4.710   3.425   4.389 -0.3771  0.3407  0.0205
19188TIP3   OH279054   5.038   1.494   0.031 -0.2686  0.2225  0.0094
19188TIP3    H179055   5.038   1.505  -0.064  0.0310 -0.6447 -0.1019
19188TIP3    H279056   4.946   1.484   0.054 -0.5421  2.5069  0.0897
19189TIP3   OH279057   4.569   4.872   1.140 -0.2551  0.2562 -0.1905
19189TIP3    H179058   4.617   4.915   1.210 -0.7459  0.1147  0.2412
19189TIP3    H279059   4.627   4.801   1.111 -1.0504 -1.2796  1.7904
19190TIP3   OH279060   2.739   4.305  14.462  0.4714 -0.0661  0.0775
19190TIP3    H179061   2.742   4.222  14.415  1.3699 -0.6319  1.0888
19190TIP3    H279062   2.646   4.324  14.473  0.2582 -0.8832 -0.2475
19191TIP3   OH279063   0.600   4.211   2.041  0.4497  0.2371 -0.6333
19191TIP3    H179064   0.620   4.291   1.992  1.5535  0.7357  0.5806
19191TIP3    H279065   0.556   4.241   2.120 -0.9030 -0.5363 -1.0522
19192TIP3   OH279066   4.170   0.186  13.429 -0.0703 -0.3185  1.0690
19192TIP3    H179067   4.186   0.170  13.522 -0.2928 -2.2412  0.8067
19192TIP3    H279068   4.196   0.105  13.386 -1.3002  0.0288 -0.4002
19193TIP3   OH279069   5.268   5.316   5.695  0.6601  0.1365  0.3469
19193TIP3    H179070   5.247   5.223   5.699 -0.0706  0.3197  1.0815
19193TIP3    H279071   5.352   5.325   5.739  1.6545 -0.4113 -1.3364
19194TIP3   OH279072   3.461   6.750   0.482  0.1779  0.4549 -0.2536
19194TIP3    H179073   3.496   6.801   0.410  1.8464 -0.0683  0.1343
19194TIP3    H279074   3.528   6.684   0.500  0.2536  1.1275  2.3670
19195TIP3   OH279075   5.413   3.140   4.434 -0.2027 -0.2063  0.0861
19195TIP3    H179076   5.458   3.056   4.444  0.1220  0.2062  3.0211
19195TIP3    H279077   5.455   3.181   4.358  1.4268 -1.6241  0.1615
19196TIP3   OH279078   3.520   0.589  15.522 -0.0691  0.1264  0.0892
19196TIP3    H179079   3.447   0.615  15.466 -1.0396  0.3707  1.4225
19196TIP3    H279080   3.487   0.515  15.573  0.9481 -0.3841  0.0432
19197TIP3   OH279081   0.149   4.981  16.617 -0.4556  0.6235  0.2327
19197TIP3    H179082   0.182   4.901  16.658  1.9879  0.5782 -1.6007
19197TIP3    H279083   0.101   5.025  16.687  1.3249 -0.6331  2.3997
19198TIP3   OH279084   5.449   1.276   0.263 -0.1042 -0.4116 -0.8391
19198TIP3    H179085   5.407   1.322   0.336 -1.3375 -1.5887 -0.7773
19198TIP3    H279086   5.393   1.293   0.188  0.2271 -0.6256 -1.1395
19199TIP3   OH279087   2.063   3.305   5.025  0.2740  0.5353  0.4530
19199TIP3    H179088   1.994   3.273   5.083 -2.1967 -1.2143 -3.0520
19199TIP3    H279089   2.118   3.229   5.008 -1.4870 -0.2645 -2.4571
19200TIP3   OH279090   0.438   0.841  16.451 -0.0041  0.2285  0.1808
19200TIP3    H179091   0.478   0.922  16.484 -0.2225 -0.3786  2.0467
19200TIP3    H279092   0.369   0.822  16.513 -1.9377  0.1613 -1.8703
19201TIP3   OH279093   3.595   0.801   6.308  0.4643  0.5987  0.1106
19201TIP3    H179094   3.682   0.836   6.326  0.4970  0.3727  0.4062
19201TIP3    H279095   3.548   0.812   6.391  0.5685 -0.3305  0.3048
19202TIP3   OH279096   2.678   1.247   0.696 -0.3792  0.3055 -0.9140
19202TIP3    H179097   2.672   1.328   0.644 -1.0553 -0.7122 -2.4920
19202TIP3    H279098   2.765   1.250   0.735 -0.4961  1.9344 -0.6920
19203TIP3   OH279099   1.306   0.253  12.918  0.0575  0.4294  0.9602
19203TIP3    H179100   1.321   0.335  12.872 -0.3134 -0.5908 -1.0678
19203TIP3    H279101   1.374   0.252  12.986  3.0345  0.4338 -1.7446
19204TIP3   OH279102   2.266   5.233  10.571  0.5115 -0.1509  0.0936
19204TIP3    H179103   2.239   5.146  10.542  2.9131 -1.0081  0.1935
19204TIP3    H279104   2.185   5.274  10.600 -0.9639 -1.6947 -1.5439
19205TIP3   OH279105   5.575   2.224  13.576  0.0535 -0.1797 -0.1577
19205TIP3    H179106   5.633   2.222  13.501  1.1852  0.3710  0.6747
19205TIP3    H279107   5.556   2.317  13.591 -1.6999 -0.3794 -0.8817
19206TIP3   OH279108   1.000   5.097   1.168  0.4362  0.0559  0.3380
19206TIP3    H179109   0.908   5.120   1.176  0.0712 -1.1127 -0.2245
19206TIP3    H279110   1.032   5.151   1.096  0.2440  0.5869  0.6441
19207TIP3   OH279111   0.214   5.804  12.328 -0.4670  0.3002  0.4256
19207TIP3    H179112   0.149   5.851  12.277  0.3712  0.9979 -0.0194
19207TIP3    H279113   0.293   5.804  12.274  0.3431  0.7783  1.5727
19208TIP3   OH279114   0.598   2.011  11.651 -0.0469  0.2213 -0.2758
19208TIP3    H179115   0.554   1.964  11.721  0.6799 -0.1466 -0.0535
19208TIP3    H279116   0.652   1.944  11.608  2.1583  1.0949  0.9677
19209TIP3   OH279117   2.537   6.085  15.679  0.1683  0.7439  0.3188
19209TIP3    H179118   2.558   5.996  15.653  2.6787  1.5074 -0.5545
19209TIP3    H279119   2.485   6.075  15.759 -0.3188 -1.4805 -0.2066
19210TIP3   OH279120   6.699   4.297  16.622 -0.0520 -0.1418 -0.1673
19210TIP3    H179121   6.793   4.284  16.614 -0.2982 -1.6056 -0.8865
19210TIP3    H279122   6.690   4.391  16.642  1.4880  0.2435 -1.0972
19211TIP3   OH279123   2.470   3.727   3.497 -0.0127  0.3208 -0.4047
19211TIP3    H179124   2.524   3.774   3.433  2.1425 -1.3660  0.0727
19211TIP3    H279125   2.446   3.645   3.453 -1.8702  0.8250 -0.4299
19212TIP3   OH279126   0.930   0.440   2.554  0.2875  0.4116 -0.4217
19212TIP3    H179127   0.848   0.472   2.515  1.0511  0.7319 -1.8313
19212TIP3    H279128   0.982   0.519   2.568  1.1651  0.0453 -1.4949
19213TIP3   OH279129   4.478   5.408   4.641  0.1192  0.5102 -0.4704
19213TIP3    H179130   4.392   5.386   4.676 -0.7489  0.6408 -2.4324
19213TIP3    H279131   4.468   5.402   4.546  2.4310 -0.0409 -0.7358
19214TIP3   OH279132   4.502   3.344   6.137 -0.2278  0.2675  0.3783
19214TIP3    H179133   4.436   3.342   6.068  0.8738  0.0788 -0.6971
19214TIP3    H279134   4.475   3.416   6.194 -1.9833 -0.5152  0.6225
19215TIP3   OH279135   3.782   0.854   0.082  0.3629 -0.9151  0.4008
19215TIP3    H179136   3.730   0.806   0.018  2.3231 -1.2241 -1.0423
19215TIP3    H279137   3.718   0.883   0.148 -1.6181 -1.2354 -1.2767
19216TIP3   OH279138   2.613   5.887   4.774  0.3832 -0.3113 -0.0583
19216TIP3    H179139   2.696   5.864   4.731  0.8544  0.8683  0.1900
19216TIP3    H279140   2.604   5.822   4.843  0.2204 -1.5028 -1.1540
19217TIP3   OH279141   2.360   0.074  17.010  0.2982  0.2644  0.0324
19217TIP3    H179142   2.430   0.112  16.958 -0.1781  1.6530  0.3575
19217TIP3    H279143   2.292   0.052  16.947  0.5804 -0.0698 -0.1579
19218TIP3   OH279144   5.812   2.590   1.914  0.3475 -0.2641 -0.6683
19218TIP3    H179145   5.905   2.571   1.901 -0.0203 -1.8529 -1.2622
19218TIP3    H279146   5.774   2.581   1.827 -0.6002 -1.2701 -0.1798
19219TIP3   OH279147   0.436   3.374  14.398 -0.0988 -0.2780 -0.4231
19219TIP3    H179148   0.364   3.319  14.366 -1.5765  1.4206 -0.2020
19219TIP3    H279149   0.447   3.441  14.330  1.9204 -0.9959 -0.8669
19220TIP3   OH279150   2.970   2.904  13.382 -0.4231 -0.8239  0.2257
19220TIP3    H179151   3.029   2.890  13.308  0.2834 -0.3342  0.6824
19220TIP3    H279152   2.889   2.938  13.342  0.2481  0.2518 -0.2573
19221TIP3   OH279153   6.620   3.062  16.494 -0.3999  0.1512 -1.0488
19221TIP3    H179154   6.687   3.116  16.536  0.4402  1.2809 -3.6345
19221TIP3    H279155   6.661   2.975  16.487 -0.8356 -0.2690  0.9750
19222TIP3   OH279156   6.622   2.492   2.592  0.7912  0.2726  0.3772
19222TIP3    H179157   6.635   2.504   2.498 -0.7510  1.9695  0.3209
19222TIP3    H279158   6.527   2.493   2.604  0.9172 -1.0133  1.8532
19223TIP3   OH279159   4.138   0.248   4.237  0.2074 -0.1491  0.6366
19223TIP3    H179160   4.070   0.217   4.177  1.0776 -1.4840  0.2995
19223TIP3    H279161   4.177   0.323   4.192 -1.2879  0.8967  1.0193
19224TIP3   OH279162   1.847   3.267  14.031  0.0400 -0.0655 -0.5714
19224TIP3    H179163   1.757   3.284  14.002  0.9631  0.2094 -3.5483
19224TIP3    H279164   1.837   3.199  14.098 -2.3866  0.0998 -0.6508
19225TIP3   OH279165   2.600   2.371  16.283 -0.0146  0.4445 -0.2397
19225TIP3    H179166   2.526   2.365  16.222 -1.9245 -3.8726  2.0868
19225TIP3    H279167   2.675   2.341  16.232 -0.6023  1.0481 -1.5429
19226TIP3   OH279168   0.651   6.683   4.386  0.0067  0.1151  0.5290
19226TIP3    H179169   0.704   6.633   4.449  1.0233 -0.6181 -0.8309
19226TIP3    H279170   0.626   6.618   4.320 -0.4898  0.9747 -0.1453
19227TIP3   OH279171   2.556   1.370  15.856 -0.1071  0.3941 -0.3192
19227TIP3    H179172   2.570   1.463  15.834 -0.4232  0.8900  1.4252
19227TIP3    H279173   2.621   1.351  15.923 -1.2035 -0.1325  0.6170
19228TIP3   OH279174   6.301   3.557   3.124 -0.2080  0.0680 -0.3828
19228TIP3    H179175   6.315   3.467   3.154 -0.8157  0.1958  0.3038
19228TIP3    H279176   6.207   3.563   3.108 -0.1988  0.6361 -0.2395
19229TIP3   OH279177   4.834   0.343  10.749 -0.0666  0.3200 -0.1917
19229TIP3    H179178   4.916   0.346  10.799 -0.9757  1.8030  1.2991
19229TIP3    H279179   4.815   0.249  10.741  1.2272 -0.0124  0.3256
19230TIP3   OH279180   4.615   3.042   1.802 -0.5959  0.2868  0.1433
19230TIP3    H179181   4.675   3.043   1.727 -0.9558 -0.1001 -0.1553
19230TIP3    H279182   4.671   3.021   1.877 -0.7221 -2.7586 -0.4869
19231TIP3   OH279183   4.023   2.450  10.760 -0.3077  0.0690  0.3027
19231TIP3    H179184   4.037   2.356  10.749 -0.5424  0.0986 -0.2519
19231TIP3    H279185   3.928   2.461  10.752 -0.3393  0.2835  0.9217
19232TIP3   OH279186   2.490   5.904   3.047 -0.1406  0.0090 -0.3582
19232TIP3    H179187   2.578   5.901   3.010  0.7272 -1.8261  1.6764
19232TIP3    H279188   2.489   5.983   3.100 -0.7885  1.6427 -2.6152
19233TIP3   OH279189   6.360   1.924   3.734  0.0757  0.4488  0.7091
19233TIP3    H179190   6.355   1.829   3.738  1.9401  0.3574  2.2881
19233TIP3    H279191   6.452   1.942   3.713 -0.4344  1.9033 -0.4025
19234TIP3   OH279192   2.521   3.310  16.407 -0.2328 -0.1829  0.5265
19234TIP3    H179193   2.534   3.284  16.498 -0.7809 -0.7475  0.4491
19234TIP3    H279194   2.434   3.278  16.385 -0.4980  0.7875  0.0894
19235TIP3   OH279195   2.744   6.599   4.056  0.1124  0.2156  0.2695
19235TIP3    H179196   2.813   6.562   4.000  0.7572  1.9508 -0.1604
19235TIP3    H279197   2.680   6.529   4.065  0.3732 -0.3971 -1.9970
19236TIP3   OH279198   4.347   4.060   4.677  0.1489  0.3277  0.1568
19236TIP3    H179199   4.262   4.072   4.720  0.1860  1.2158 -0.0027
19236TIP3    H279200   4.328   4.070   4.583  0.4675  0.8289  0.1392
19237TIP3   OH279201   1.759   0.899  12.390  0.1518  0.8502 -0.6425
19237TIP3    H179202   1.695   0.970  12.396  0.1359  1.0481 -2.5696
19237TIP3    H279203   1.840   0.937  12.424 -0.1689  1.3736 -0.4503
19238TIP3   OH279204   2.387   4.232   2.578 -0.1399  0.5634 -0.0402
19238TIP3    H179205   2.341   4.219   2.661 -0.3836  0.2640 -0.2169
19238TIP3    H279206   2.336   4.298   2.533  0.6388  1.5723  0.5176
19239TIP3   OH279207   0.770   1.332  16.091 -0.6771 -0.4202 -0.7113
19239TIP3    H179208   0.790   1.316  15.999 -0.0557 -0.6776 -0.5383
19239TIP3    H279209   0.679   1.306  16.101 -0.4588 -1.3262 -1.0360
19240TIP3   OH279210   0.764   6.430   1.856  0.1878 -0.7599  0.6311
19240TIP3    H179211   0.685   6.476   1.881 -0.8454 -0.9438 -1.9547
19240TIP3    H279212   0.737   6.338   1.847  0.8079 -0.9180  0.2548
19241TIP3   OH279213   5.470   5.453   4.124 -0.3309 -0.0340 -0.3508
19241TIP3    H179214   5.513   5.537   4.139  0.6863 -0.5017 -0.5900
19241TIP3    H279215   5.525   5.409   4.059 -1.8868 -0.1240 -1.6696
19242TIP3   OH279216   4.630   4.772   2.556 -0.2969 -0.1563 -1.0019
19242TIP3    H179217   4.569   4.832   2.512 -1.4492  0.9845  1.9241
19242TIP3    H279218   4.706   4.827   2.578 -0.6246 -0.1579  0.1981
19243TIP3   OH279219   6.722   6.594  13.259 -0.0060 -0.2873 -0.5543
19243TIP3    H179220   6.736   6.573  13.351 -1.0527 -0.2761 -0.3861
19243TIP3    H279221   6.631   6.623  13.254  0.6756  1.9069 -1.2087
19244TIP3   OH279222   4.565   4.523  13.044 -0.4257 -0.5281  0.3819
19244TIP3    H179223   4.655   4.514  13.076 -0.0866 -0.3338 -0.4745
19244TIP3    H279224   4.575   4.546  12.952 -1.3547  0.4449  0.5100
19245TIP3   OH279225   2.304   6.219   3.826 -0.0165 -0.4546  0.0647
19245TIP3    H179226   2.254   6.137   3.831 -0.0087 -0.4221  1.0592
19245TIP3    H279227   2.243   6.286   3.857  0.4480 -0.3269  0.7277
19246TIP3   OH279228   1.474   5.601  14.111  0.1924  0.1203 -0.1031
19246TIP3    H179229   1.400   5.662  14.114 -0.1008 -0.1612 -1.2257
19246TIP3    H279230   1.549   5.654  14.087  0.0121  0.1138 -0.6913
19247TIP3   OH279231   4.369   5.528  14.436 -0.4115  0.2728  0.0260
19247TIP3    H179232   4.335   5.520  14.525 -2.2316  2.4401 -0.3858
19247TIP3    H279233   4.301   5.576  14.389  1.3609  0.9028 -2.0419
19248TIP3   OH279234   3.798   3.841  11.968 -0.5327 -0.5163  0.2217
19248TIP3    H179235   3.791   3.842  11.872 -0.7694 -0.8401  0.2357
19248TIP3    H279236   3.828   3.752  11.989  1.8078  0.2191  0.2949
19249TIP3   OH279237   3.917   6.130  11.514  0.2813 -0.0659 -0.1900
19249TIP3    H179238   3.922   6.185  11.436  0.0366 -0.4944 -0.5070
19249TIP3    H279239   3.919   6.193  11.587  3.7788  0.2502 -0.3715
19250TIP3   OH279240   0.834   2.515  11.369 -0.1106 -0.1770  0.3326
19250TIP3    H179241   0.783   2.445  11.330 -0.2333  0.4383 -0.6409
19250TIP3    H279242   0.923   2.480  11.375 -0.0328 -0.2031 -0.7555
19251TIP3   OH279243   3.390   6.237   5.323 -0.1885  0.0013  0.3314
19251TIP3    H179244   3.346   6.316   5.292  0.3748  0.1068 -0.2394
19251TIP3    H279245   3.476   6.268   5.353 -0.4737 -0.1980  1.4084
19252TIP3   OH279246   5.334   3.526   0.101  0.5170 -0.1479 -0.4946
19252TIP3    H179247   5.255   3.546   0.051 -0.3010  0.3891  0.9525
19252TIP3    H279248   5.311   3.448   0.152  0.4050  0.8243  0.9857
19253TIP3   OH279249   0.955   6.422   0.886  0.0406 -0.0971 -0.5306
19253TIP3    H179250   0.965   6.515   0.908 -2.5178 -0.3738  2.7685
19253TIP3    H279251   1.034   6.380   0.920 -0.0719  0.5866  0.6239
19254TIP3   OH279252   0.461   3.000   5.807  0.1762  0.2435  0.1091
19254TIP3    H179253   0.496   3.034   5.725 -0.4269 -0.7571 -0.5889
19254TIP3    H279254   0.367   3.018   5.802 -0.0989 -1.1239 -0.1099
19255TIP3   OH279255   3.533   2.801   5.832 -0.0857  0.4299 -0.8209
19255TIP3    H179256   3.443   2.791   5.864 -0.7345  1.2934 -2.3131
19255TIP3    H279257   3.582   2.826   5.910 -0.9873 -0.6522  0.1545
19256TIP3   OH279258   0.117   5.213  16.227 -0.3747  0.5901  0.2919
19256TIP3    H179259   0.191   5.187  16.283 -1.6361  0.0058  1.7464
19256TIP3    H279260   0.139   5.178  16.141  0.6121 -0.4065  0.9211
19257TIP3   OH279261   3.329   0.940   2.113 -0.7450  0.0963 -0.6159
19257TIP3    H179262   3.280   1.003   2.164  2.1521  1.4043  0.7988
19257TIP3    H279263   3.395   0.906   2.173 -0.5973 -2.4332 -2.0468
19258TIP3   OH279264   5.598   1.196   2.720  0.0861 -0.0049  0.2148
19258TIP3    H179265   5.596   1.216   2.814 -0.3874  0.8724  0.0230
19258TIP3    H279266   5.667   1.253   2.685  0.3072 -0.3807  0.0308
19259TIP3   OH279267   3.386   3.179   1.274 -0.1140  0.2791  0.3932
19259TIP3    H179268   3.353   3.252   1.327  0.1164  1.5772 -1.1672
19259TIP3    H279269   3.318   3.112   1.281 -0.5008  0.7725  1.5747
19260TIP3   OH279270   5.609   1.618  12.488  0.1198 -0.0062 -0.3679
19260TIP3    H179271   5.692   1.580  12.457 -0.2774 -0.6569 -0.6440
19260TIP3    H279272   5.566   1.648  12.408  1.2971  2.9179 -0.0459
19261TIP3   OH279273   3.698   2.999   4.547 -0.0141  0.2552 -0.4102
19261TIP3    H179274   3.645   3.069   4.586 -0.2466  0.0538 -0.3650
19261TIP3    H279275   3.671   2.920   4.593  0.5674  0.2034 -0.1555
19262TIP3   OH279276   0.641   6.453  11.153 -0.3764  0.0253 -0.0507
19262TIP3    H179277   0.641   6.362  11.183  3.3977  0.1539  0.8662
19262TIP3    H279278   0.682   6.502  11.225 -1.0728  2.2528 -1.0650
19263TIP3   OH279279   1.950   2.962   3.299 -0.1339  0.2535  0.3008
19263TIP3    H179280   1.990   3.009   3.372  0.4602  0.6974 -0.2940
19263TIP3    H279281   2.021   2.954   3.234 -0.9321  0.8000 -0.6619
19264TIP3   OH279282   6.439   0.877  13.433  0.2713 -0.1537 -0.2546
19264TIP3    H179283   6.406   0.893  13.345  0.3417 -1.4901 -0.5420
19264TIP3    H279284   6.398   0.795  13.460 -0.1799  0.5150  1.1865
19265TIP3   OH279285   1.639   4.185   5.175 -0.0213 -0.2913 -0.2509
19265TIP3    H179286   1.682   4.100   5.187 -1.2695 -1.5876 -3.6281
19265TIP3    H279287   1.548   4.169   5.202 -0.3130 -0.1262 -1.1162
19266TIP3   OH279288   0.423   5.023   5.404  0.0147  0.4392 -0.2590
19266TIP3    H179289   0.447   5.097   5.461 -0.2038 -0.6285  1.2896
19266TIP3    H279290   0.480   5.032   5.328 -0.3492  2.4723 -0.3501
19267TIP3   OH279291   4.729   1.854  11.181  0.1413 -0.3975  0.2116
19267TIP3    H179292   4.639   1.837  11.211  0.1172  0.1309  0.4415
19267TIP3    H279293   4.721   1.872  11.088 -0.0205 -0.0923  0.2857
19268TIP3   OH279294   3.700   4.476   5.326 -0.1605  0.1933  0.2756
19268TIP3    H179295   3.694   4.453   5.419  2.5365  1.2987  0.8309
19268TIP3    H279296   3.697   4.571   5.324 -1.4810  0.1717 -0.9675
19269TIP3   OH279297   5.021   6.122   4.551 -0.0710  0.0937  0.4642
19269TIP3    H179298   5.077   6.199   4.540  0.7665 -0.7545 -1.6942
19269TIP3    H279299   4.976   6.114   4.468 -1.0710 -1.0675  1.0974
19270TIP3   OH279300   3.532   6.294   2.461 -0.4430  0.5022  0.3384
19270TIP3    H179301   3.506   6.211   2.420 -1.5825  1.0334 -0.0790
19270TIP3    H279302   3.507   6.360   2.396  0.0114  1.2056  0.8735
19271TIP3   OH279303   4.597   4.800   6.519 -0.3787 -0.5330 -0.0806
19271TIP3    H179304   4.546   4.878   6.496  0.6562  0.0348 -0.5268
19271TIP3    H279305   4.540   4.727   6.494 -1.9957  0.0245  1.7321
19272TIP3   OH279306   3.940   4.174   0.600  0.2258 -0.1289 -0.3757
19272TIP3    H179307   3.880   4.122   0.547 -1.5560 -1.0765  2.3339
19272TIP3    H279308   4.002   4.110   0.635 -1.4885 -0.4768  2.3304
19273TIP3   OH279309   6.748   2.659   0.508  0.2255 -0.7143 -0.2457
19273TIP3    H179310   6.702   2.722   0.453 -0.9318 -1.9000 -0.6846
19273TIP3    H279311   6.716   2.574   0.480  1.5868 -1.5076  0.4838
19274TIP3   OH279312   5.557   4.647   5.835 -0.7822 -0.1196  0.0943
19274TIP3    H179313   5.644   4.626   5.804 -0.7396  2.1050 -1.5674
19274TIP3    H279314   5.532   4.573   5.891  2.3968 -0.5066  1.1839
19275TIP3   OH279315   1.002   1.346  14.338 -0.9644 -0.3635  0.3096
19275TIP3    H179316   1.057   1.342  14.417 -0.7306  0.0417  0.1707
19275TIP3    H279317   1.064   1.333  14.266 -1.2072 -0.9170  0.2039
19276TIP3   OH279318   0.001   6.344   2.651 -0.1939  0.3844  0.1264
19276TIP3    H179319  -0.092   6.356   2.669 -0.0323 -1.4303  2.6430
19276TIP3    H279320   0.009   6.252   2.625  1.0735  0.0399  1.6040
19277TIP3   OH279321   4.721   5.023  17.134  0.1538 -0.0125  0.4782
19277TIP3    H179322   4.647   4.983  17.178  0.1576 -0.9293 -0.3055
19277TIP3    H279323   4.768   4.949  17.095  1.2761  0.5881  0.6590
19278TIP3   OH279324   2.209   4.787   2.886  0.0444 -0.5334  0.3346
19278TIP3    H179325   2.156   4.713   2.914 -0.0584 -1.6930 -2.5719
19278TIP3    H279326   2.200   4.788   2.790  1.8952  1.8373  0.0901
19279TIP3   OH279327   2.974   3.464   4.263  0.1293  0.2551 -0.2144
19279TIP3    H179328   2.991   3.413   4.342 -1.2192 -0.3506 -0.2926
19279TIP3    H279329   3.010   3.410   4.192 -0.2245 -0.0299 -0.1797
19280TIP3   OH279330   5.471   6.589  16.848  1.1456  0.9783  0.9959
19280TIP3    H179331   5.564   6.611  16.855  0.9679  1.9892  0.3000
19280TIP3    H279332   5.435   6.653  16.787  0.3042 -0.3454  0.0269
19281TIP3   OH279333   3.057   5.649   1.954 -0.9203  0.4916  0.2616
19281TIP3    H179334   3.084   5.649   1.862 -0.2586 -0.8587  0.4436
19281TIP3    H279335   2.966   5.621   1.953 -0.6702 -0.3168  0.0779
19282TIP3   OH279336   3.857   6.487   5.351 -0.2567 -0.0668  0.0188
19282TIP3    H179337   3.952   6.496   5.356 -0.1399 -0.0805 -1.5960
19282TIP3    H279338   3.842   6.406   5.303 -1.0362  0.5949 -0.9170
19283TIP3   OH279339   5.767   6.733   3.135 -0.1998 -0.0093  0.2867
19283TIP3    H179340   5.693   6.678   3.160 -0.3953  0.4571  0.7580
19283TIP3    H279341   5.839   6.671   3.118 -0.1350 -0.3745  1.7540
19284TIP3   OH279342   2.608   5.104  12.247 -0.0573  0.2245  0.4704
19284TIP3    H179343   2.610   5.014  12.281  1.1442 -0.6407 -1.6670
19284TIP3    H279344   2.666   5.102  12.171 -0.9250  2.5388 -0.3459
19285TIP3   OH279345   1.528   4.466   5.481  0.3720 -0.6074 -0.3222
19285TIP3    H179346   1.605   4.482   5.535 -1.3592 -1.4700  2.5914
19285TIP3    H279347   1.537   4.527   5.408  3.4727 -0.2788  0.1989
19286TIP3   OH279348   0.414   5.028  16.113 -0.5334 -0.1247 -0.5255
19286TIP3    H179349   0.342   5.005  16.054 -0.5704  1.0771 -0.9865
19286TIP3    H279350   0.413   5.124  16.115  1.5233 -0.0488 -1.1497
19287TIP3   OH279351   2.329   4.444   4.589  0.0454 -0.4291 -0.3091
19287TIP3    H179352   2.330   4.496   4.509 -1.2159 -2.2273 -1.5898
19287TIP3    H279353   2.297   4.504   4.657 -1.8422  0.3837 -1.8130
19288TIP3   OH279354   4.592   1.444   0.781 -0.2525  0.0239 -0.1813
19288TIP3    H179355   4.651   1.519   0.769 -1.1511  1.3592  2.6606
19288TIP3    H279356   4.558   1.426   0.694  4.7422 -1.3223 -2.1731
19289TIP3   OH279357   6.325   5.864  10.896  0.2714 -0.1392 -0.0523
19289TIP3    H179358   6.328   5.783  10.946 -0.7022  0.5011  1.0876
19289TIP3    H279359   6.232   5.879  10.880  0.2642  1.6703  1.3429
19290TIP3   OH279360   2.613   0.962  16.101  0.1641 -0.4834 -0.2876
19290TIP3    H179361   2.703   0.930  16.108  0.8999  1.6914  1.6946
19290TIP3    H279362   2.614   1.044  16.150 -2.3141  0.9183 -2.3535
19291TIP3   OH279363   3.511   6.790   6.259  0.1914 -0.3894  0.6161
19291TIP3    H179364   3.519   6.695   6.250 -0.2832 -0.3922  0.1831
19291TIP3    H279365   3.510   6.823   6.169 -1.2118 -0.1168  0.7136
19292TIP3   OH279366   5.653   3.686   2.547  0.0230  0.4615 -0.1753
19292TIP3    H179367   5.605   3.696   2.630 -0.9946 -1.0814 -0.5396
19292TIP3    H279368   5.677   3.776   2.523 -1.5025  1.1548  0.7291
19293TIP3   OH279369   0.922   4.672  11.585 -0.0475 -0.5537 -0.0295
19293TIP3    H179370   0.839   4.715  11.564 -1.3566 -2.3349  1.2145
19293TIP3    H279371   0.984   4.744  11.596 -1.9688  1.0065  1.3257
19294TIP3   OH279372   2.669   2.784  14.194 -0.1354  0.2371  0.0197
19294TIP3    H179373   2.615   2.786  14.273  1.8509  2.2268  1.4430
19294TIP3    H279374   2.684   2.876  14.173  2.3929 -0.2378 -0.5047
19295TIP3   OH279375   1.567   5.324   4.220  0.0526 -0.3117  0.2691
19295TIP3    H179376   1.488   5.377   4.212 -0.7212 -1.2315  1.5182
19295TIP3    H279377   1.633   5.386   4.253 -0.3127  0.3064 -0.1316
19296TIP3   OH279378   4.002   2.437   0.882 -0.2592 -0.2360  0.0401
19296TIP3    H179379   3.943   2.499   0.925  2.0980  2.6194 -0.4530
19296TIP3    H279380   4.067   2.415   0.949  0.3862 -0.0716 -0.5149
19297TIP3   OH279381   4.374   2.888  16.465  0.1224  0.4666 -0.0397
19297TIP3    H179382   4.433   2.946  16.514 -0.7503  0.1634  1.4375
19297TIP3    H279383   4.409   2.800  16.480  0.7902  0.4894 -1.3421
19298TIP3   OH279384   0.709   3.966  13.540 -0.2284 -0.4907  0.3286
19298TIP3    H179385   0.723   4.060  13.550 -1.1524 -0.1386 -1.3286
19298TIP3    H279386   0.752   3.944  13.458 -3.6106 -0.6015 -1.5770
19299TIP3   OH279387   4.867   4.614  11.718  0.5646 -0.0337 -0.6260
19299TIP3    H179388   4.819   4.694  11.738  2.1829  0.7217  0.4207
19299TIP3    H279389   4.951   4.644  11.685  2.1009 -1.2205  1.9078
19300TIP3   OH279390   3.423   0.761   5.519 -0.1713  0.0891 -0.6747
19300TIP3    H179391   3.431   0.855   5.535  0.9206 -0.0273 -0.4516
19300TIP3    H279392   3.458   0.720   5.598  0.3528 -0.5021 -1.2092
19301TIP3   OH279393   1.905   3.839   5.928  0.2060 -0.4997  0.8635
19301TIP3    H179394   1.907   3.932   5.951 -0.0741 -0.3932  0.4648
19301TIP3    H279395   1.885   3.794   6.010 -0.7360 -0.1284  0.8495
19302TIP3   OH279396   4.684   0.922   4.288 -0.6483  0.5128  0.0097
19302TIP3    H179397   4.661   0.857   4.355 -0.2226 -0.5022 -0.8204
19302TIP3    H279398   4.633   1.000   4.313  0.4699  0.5994  2.2639
19303TIP3   OH279399   0.618   5.821  16.182 -0.4209  0.0543 -0.0564
19303TIP3    H179400   0.592   5.887  16.246  1.5690  0.2824  0.5901
19303TIP3    H279401   0.535   5.789  16.146 -1.6634 -0.1845  2.7274
19304TIP3   OH279402   6.036   6.524   5.312  0.6357  0.5291  0.3339
19304TIP3    H179403   5.949   6.512   5.352 -0.0216 -0.3377 -1.2474
19304TIP3    H279404   6.089   6.454   5.349  0.3821  0.4809  0.6101
19305TIP3   OH279405   0.306   6.141  16.863  0.1594  0.0678  0.5298
19305TIP3    H179406   0.269   6.169  16.946 -0.7165  0.9652 -0.1382
19305TIP3    H279407   0.283   6.048  16.856 -1.5004  0.4575  0.3980
19306TIP3   OH279408   4.478   4.600   2.161 -0.0201 -0.0331 -0.1716
19306TIP3    H179409   4.496   4.510   2.189 -1.2023 -0.0752  0.5403
19306TIP3    H279410   4.400   4.625   2.210  0.5646  1.5665  0.0077
19307TIP3   OH279411   3.214   4.008   3.328  0.4988 -0.1371 -0.0275
19307TIP3    H179412   3.167   4.078   3.372 -0.2996 -1.4013  1.2388
19307TIP3    H279413   3.306   4.034   3.333  0.1657  1.0661 -0.0667
19308TIP3   OH279414   4.417   3.386  17.100 -0.4555 -0.0952  0.3383
19308TIP3    H179415   4.341   3.430  17.062 -0.3510 -0.3334 -0.1469
19308TIP3    H279416   4.490   3.447  17.086  0.0561 -1.1067 -1.9034
19309TIP3   OH279417   4.104   2.084  16.252  0.1767 -0.0160  0.2879
19309TIP3    H179418   4.060   2.043  16.178  0.0015  0.6333  0.0290
19309TIP3    H279419   4.070   2.038  16.329 -1.5791  0.9856  0.1698
19310TIP3   OH279420   2.408   3.255   0.604  0.0294  0.0382  0.0921
19310TIP3    H179421   2.321   3.237   0.640 -1.4766  2.4880 -1.9866
19310TIP3    H279422   2.449   3.312   0.669 -0.3350 -0.2730  0.6066
19311TIP3   OH279423   6.336   3.245  11.455 -0.5802  0.4070 -0.4910
19311TIP3    H179424   6.325   3.165  11.403  0.7417 -0.2202  0.1473
19311TIP3    H279425   6.424   3.238  11.492 -0.4905  2.0931 -0.2883
19312TIP3   OH279426   5.900   1.605   2.606  0.7494  0.7172 -0.0023
19312TIP3    H179427   5.839   1.615   2.534  1.7363 -1.1746 -1.1630
19312TIP3    H279428   5.947   1.689   2.609  1.2513  0.5569 -2.1213
19313TIP3   OH279429   3.750   5.754   4.645  0.4531 -0.3001 -0.3033
19313TIP3    H179430   3.776   5.710   4.726 -1.1325  1.9987  1.5800
19313TIP3    H279431   3.823   5.813   4.625  0.3288  0.0183  0.1667
19314TIP3   OH279432   5.206   6.193  13.506 -0.4092  0.0284 -0.2780
19314TIP3    H179433   5.212   6.181  13.411  1.2104 -0.4339 -0.1502
19314TIP3    H279434   5.221   6.105  13.542 -1.5043  0.1104  0.3984
19315TIP3   OH279435   3.555   0.505   4.607  0.8292  0.2902  0.2204
19315TIP3    H179436   3.549   0.420   4.562 -2.7891  0.0490  0.8902
19315TIP3    H279437   3.536   0.485   4.699  0.6939  1.7498  0.5355
19316TIP3   OH279438   5.124   4.799   4.383 -0.1787 -0.8785 -0.2477
19316TIP3    H179439   5.121   4.809   4.478 -0.7148 -1.6359 -0.1741
19316TIP3    H279440   5.096   4.708   4.367 -1.4414 -0.3706 -1.2007
19317TIP3   OH279441   4.399   1.130   4.774 -0.8467  0.4166  0.0860
19317TIP3    H179442   4.385   1.164   4.863 -2.9358  1.9472 -0.7500
19317TIP3    H279443   4.468   1.187   4.738 -0.0708 -0.1372  0.6499
19318TIP3   OH279444   1.321   2.331  14.427  0.3066 -0.5028  0.1752
19318TIP3    H179445   1.315   2.237  14.410  1.1076 -0.3738 -0.9072
19318TIP3    H279446   1.408   2.342  14.466  1.5185  0.1317 -2.4746
19319TIP3   OH279447   4.714   0.615   1.215 -0.1112  0.0353 -0.7224
19319TIP3    H179448   4.638   0.565   1.247 -0.6053  0.6536 -0.9209
19319TIP3    H279449   4.783   0.549   1.206 -1.4426 -1.1505 -3.4285
19320TIP3   OH279450   1.426   3.237  15.178 -0.3980  0.3585  0.6496
19320TIP3    H179451   1.445   3.330  15.168 -0.5964  0.3382  0.0470
19320TIP3    H279452   1.501   3.202  15.225  0.6818  0.4463 -0.9160
19321TIP3   OH279453   4.241   2.669  14.720  0.3215  0.6147 -0.1570
19321TIP3    H179454   4.256   2.663  14.626 -0.2118  0.0029 -0.2111
19321TIP3    H279455   4.204   2.584  14.744  0.9186  0.5710  0.6915
19322TIP3   OH279456   1.490   3.485   6.948 -0.2260 -0.4283 -0.0852
19322TIP3    H179457   1.528   3.438   6.875  0.3628 -0.9913  0.5800
19322TIP3    H279458   1.395   3.484   6.930 -0.0043  0.7683 -1.6103
19323TIP3   OH279459   3.144   5.626  15.348  0.0585  0.0964  0.2829
19323TIP3    H179460   3.216   5.688  15.338 -0.0308  0.0481 -0.8093
19323TIP3    H279461   3.074   5.662  15.294  0.0452 -1.0071 -0.4570
19324TIP3   OH279462   6.139   3.010   0.272 -0.0546 -0.1403 -0.3205
19324TIP3    H179463   6.226   3.042   0.247  0.4121 -2.3440 -1.7820
19324TIP3    H279464   6.149   2.979   0.362  0.1369  1.3511  0.1966
19325TIP3   OH279465   4.603   1.678   5.212 -0.0236  0.5754  0.7449
19325TIP3    H179466   4.630   1.603   5.265 -2.0085  0.1183  1.1968
19325TIP3    H279467   4.672   1.687   5.147  0.8848 -0.8672  1.4550
19326TIP3   OH279468   4.150   5.501   1.751  0.5481  0.2749  0.1973
19326TIP3    H179469   4.240   5.524   1.775  0.4201 -0.1613  1.1326
19326TIP3    H279470   4.102   5.502   1.834  0.1235 -1.4290  0.0216
19327TIP3   OH279471   6.112   2.937  13.032  0.1062  0.2215 -0.0166
19327TIP3    H179472   6.162   2.897  13.104 -2.0312 -2.7390  0.0168
19327TIP3    H279473   6.037   2.978  13.076 -1.4698 -2.0192 -0.4561
19328TIP3   OH279474   1.734   4.630   3.103  0.1193 -0.0490  0.0572
19328TIP3    H179475   1.654   4.638   3.154 -0.3138 -1.0381 -0.4297
19328TIP3    H279476   1.749   4.536   3.096  0.8648  0.1015 -0.5725
19329TIP3   OH279477   0.372   0.463  12.856 -0.2102 -0.3371 -0.4041
19329TIP3    H179478   0.375   0.558  12.851 -0.4640 -0.2652  0.5850
19329TIP3    H279479   0.438   0.440  12.922 -2.2344 -0.6014  1.6499
19330TIP3   OH279480   2.752   5.775  13.189 -0.4666  0.3036  0.1799
19330TIP3    H179481   2.731   5.817  13.272 -0.5906 -0.0070  0.3049
19330TIP3    H279482   2.701   5.694  13.189 -1.2161  0.7570 -0.6152
19331TIP3   OH279483   0.352   0.519   2.009 -0.2175 -0.6374 -0.0589
19331TIP3    H179484   0.268   0.485   2.040  0.0553 -1.5389 -0.2879
19331TIP3    H279485   0.411   0.445   2.014  0.7122  0.1242  0.6040
19332TIP3   OH279486   4.988   0.563  11.107 -0.0965 -0.2243 -0.4059
19332TIP3    H179487   4.913   0.535  11.160 -0.6927 -1.2564 -1.7393
19332TIP3    H279488   4.950   0.600  11.027  0.7946  0.7086 -0.4278
19333TIP3   OH279489   1.085   5.084  12.655  0.2703  0.1435 -0.4316
19333TIP3    H179490   1.023   5.087  12.729  1.9409  0.6257  1.0287
19333TIP3    H279491   1.038   5.126  12.583 -0.4152  2.4471  1.2104
19334TIP3   OH279492   0.043   4.622   3.974  0.1490  0.1978  0.5570
19334TIP3    H179493   0.070   4.572   4.052 -1.3703 -1.4436  0.1160
19334TIP3    H279494   0.019   4.708   4.008  2.8984  0.7479  1.3541
19335TIP3   OH279495   2.057   2.140   6.721  0.8111 -0.1083  0.3348
19335TIP3    H179496   2.062   2.078   6.793  0.4139  1.8896  2.1834
19335TIP3    H279497   1.994   2.102   6.660  0.8417 -1.6381  1.2129
19336TIP3   OH279498   1.981   4.136   5.298 -0.0585 -0.0070 -0.1660
19336TIP3    H179499   1.929   4.091   5.232  0.6285 -1.1658  0.0661
19336TIP3    H279500   1.987   4.226   5.266  1.6583 -0.8805 -2.5682
19337TIP3   OH279501   4.957   5.996   5.051 -0.4851  0.1741  0.4356
19337TIP3    H179502   5.020   6.057   5.090  1.2720  0.0824 -2.0498
19337TIP3    H279503   5.011   5.928   5.011 -2.1424 -0.0253 -1.6341
19338TIP3   OH279504   1.083   1.816  12.862 -0.2895  0.2585  0.0040
19338TIP3    H179505   1.130   1.852  12.937  0.1402  0.3632 -0.3176
19338TIP3    H279506   1.109   1.870  12.788 -0.3541 -0.1345 -0.3109
19339TIP3   OH279507   1.809   6.192   1.365 -0.1838 -0.2243 -0.1681
19339TIP3    H179508   1.890   6.177   1.415  1.0792 -1.1066 -2.3503
19339TIP3    H279509   1.799   6.287   1.363  1.8703  0.0132 -1.4091
19340TIP3   OH279510   5.422   4.500  15.725 -0.2270 -0.2601  0.2820
19340TIP3    H179511   5.476   4.434  15.682 -0.1125  0.8007 -1.3089
19340TIP3    H279512   5.485   4.564  15.758 -0.3995 -0.1210  0.3422
19341TIP3   OH279513   0.094   0.307   4.969 -0.2241 -0.9612 -0.4905
19341TIP3    H179514   0.122   0.342   5.054 -0.1002  0.1775 -0.9770
19341TIP3    H279515   0.138   0.222   4.962  1.0770 -0.3448 -0.1188
19342TIP3   OH279516   6.683   1.103   4.962  0.4501  0.2168 -0.2728
19342TIP3    H179517   6.595   1.080   4.934  0.1735  0.9737 -0.0337
19342TIP3    H279518   6.679   1.102   5.058  0.9685 -0.7363 -0.2458
19343TIP3   OH279519   3.449   1.337  14.031 -0.5268  0.0382  0.1804
19343TIP3    H179520   3.496   1.255  14.015 -0.6092  0.3722 -2.1742
19343TIP3    H279521   3.458   1.352  14.125  0.7401 -1.9035  0.4290
19344TIP3   OH279522   1.399   5.759   0.789  0.1249  0.4593 -0.1822
19344TIP3    H179523   1.482   5.762   0.743  1.4193  1.4176  2.0170
19344TIP3    H279524   1.405   5.831   0.853 -0.3757 -2.2605  3.2189
19345TIP3   OH279525   4.257   2.585  10.660  0.1574 -0.1655 -0.1275
19345TIP3    H179526   4.171   2.559  10.691  0.5102 -0.5189  0.5901
19345TIP3    H279527   4.245   2.602  10.566 -0.8117  0.3794  0.0782
19346TIP3   OH279528   1.121   5.317  16.557 -0.5719 -0.4916 -0.5895
19346TIP3    H179529   1.088   5.312  16.467 -0.9410  3.3214 -0.8072
19346TIP3    H279530   1.061   5.376  16.602  1.2327 -0.0167  1.3556
19347TIP3   OH279531   2.471   2.871   2.540  0.1488  0.3336  0.3361
19347TIP3    H179532   2.553   2.908   2.508 -0.3194 -0.9230 -2.6718
19347TIP3    H279533   2.421   2.946   2.570  2.3042  1.1411  2.2251
19348TIP3   OH279534   3.292   5.318  11.215  0.4897  0.0333  0.3678
19348TIP3    H179535   3.340   5.331  11.297 -0.1768 -0.5104  0.8591
19348TIP3    H279536   3.222   5.256  11.238 -0.5573  0.9431 -0.2792
19349TIP3   OH279537   5.994   1.954  17.197  0.0150  0.5500 -0.0839
19349TIP3    H179538   6.070   2.004  17.169 -0.6039  1.2111 -0.6412
19349TIP3    H279539   6.030   1.881  17.248  1.1974 -0.5354 -2.3183
19350TIP3   OH279540   6.802   2.332  14.127 -0.2361 -0.6439  0.3766
19350TIP3    H179541   6.712   2.301  14.133 -0.9361  1.2133 -0.0971
19350TIP3    H279542   6.799   2.422  14.157  1.0999  0.0759 -1.4748
19351TIP3   OH279543   3.803   2.088   0.787 -0.2995 -0.7800 -0.7938
19351TIP3    H179544   3.709   2.073   0.773 -0.7548  2.1216 -1.4491
19351TIP3    H279545   3.807   2.149   0.861  1.0359 -0.3729 -1.1787
19352TIP3   OH279546   3.403   1.627   4.730 -0.6115 -0.1093  0.1276
19352TIP3    H179547   3.397   1.627   4.634  0.3546 -0.2904  0.0593
19352TIP3    H279548   3.475   1.686   4.750 -2.0257  1.4491  0.8630
19353TIP3   OH279549   1.167   0.625   3.223  0.5841 -0.1965  0.0664
19353TIP3    H179550   1.255   0.630   3.186  0.1442  2.3752 -0.8772
19353TIP3    H279551   1.171   0.679   3.302 -0.2544  0.4739 -0.3218
19354TIP3   OH279552   1.356   6.361  14.792 -0.4715 -0.1651  0.0433
19354TIP3    H179553   1.365   6.441  14.741  0.3124 -0.2292  0.0709
19354TIP3    H279554   1.352   6.291  14.727 -2.3607 -0.0383 -0.0419
19355TIP3   OH279555   0.405   6.158   2.734 -0.0568 -0.2885 -0.3676
19355TIP3    H179556   0.384   6.156   2.827  0.3233 -0.4371 -0.2840
19355TIP3    H279557   0.398   6.250   2.710  2.1337  0.1442  0.3549
19356TIP3   OH279558   3.529   0.241  12.845 -0.6575 -0.6348  0.0602
19356TIP3    H179559   3.514   0.301  12.918  1.6482 -1.2119  1.0942
19356TIP3    H279560   3.503   0.156  12.878  1.9611 -1.1937  0.9362
19357TIP3   OH279561   4.984   5.798   3.575  0.2864  0.3006 -0.3901
19357TIP3    H179562   5.028   5.740   3.637  0.4942  1.5699  0.7162
19357TIP3    H279563   5.054   5.829   3.517  0.3409  0.1438 -0.4086
19358TIP3   OH279564   2.031   0.711  14.831  0.7449  0.2146  0.0032
19358TIP3    H179565   2.009   0.625  14.795  0.7415  0.3260 -0.2619
19358TIP3    H279566   2.024   0.700  14.926 -1.0193  0.4017 -0.0833
19359TIP3   OH279567   2.787   3.955  13.477 -0.5776 -0.2699 -0.3395
19359TIP3    H179568   2.728   3.912  13.414 -1.5848 -0.6894  0.8468
19359TIP3    H279569   2.730   4.013  13.527 -0.0206 -0.7558  0.9116
19360TIP3   OH279570   0.504   3.939  12.551 -0.4102  1.0664 -0.5795
19360TIP3    H179571   0.532   4.011  12.495  1.0350  1.7037  0.8845
19360TIP3    H279572   0.577   3.926  12.611 -0.6420 -1.6145 -0.7543
19361TIP3   OH279573   6.647   3.685  12.443 -0.8022  0.6638  0.1612
19361TIP3    H179574   6.583   3.632  12.490  0.2509 -1.8773 -1.1209
19361TIP3    H279575   6.610   3.697  12.356  0.3056 -0.6150 -0.5131
19362TIP3   OH279576   1.610   2.369   1.058  0.6660  0.5556 -1.0413
19362TIP3    H179577   1.560   2.408   0.987  0.3024  1.2504 -0.4168
19362TIP3    H279578   1.571   2.282   1.069 -1.5108  1.6230  0.4601
19363TIP3   OH279579   3.170   6.675   4.585 -0.5032 -0.4352  0.0158
19363TIP3    H179580   3.244   6.720   4.626 -0.3853  0.0559 -0.7267
19363TIP3    H279581   3.144   6.609   4.649 -0.7527  0.7525  1.1727
19364TIP3   OH279582   2.141   4.837   4.850  0.3650 -0.7961  0.3618
19364TIP3    H179583   2.083   4.912   4.836  0.9731 -0.3249  0.3284
19364TIP3    H279584   2.111   4.771   4.786 -0.7145 -0.9127  0.9647
19365TIP3   OH279585   4.714   0.154   1.205 -0.2551  0.1658  0.0476
19365TIP3    H179586   4.708   0.105   1.123 -0.5907  0.7391 -0.2859
19365TIP3    H279587   4.725   0.088   1.273  0.1835 -0.3079 -0.4807
19366TIP3   OH279588   3.549   4.006  14.175  0.0040  0.4292 -0.1272
19366TIP3    H179589   3.564   3.932  14.233 -0.0420 -1.2252 -2.1385
19366TIP3    H279590   3.533   3.968  14.089  0.4465  2.7785 -1.3604
19367TIP3   OH279591   2.684   4.969  16.638 -0.4239  0.3895 -0.0778
19367TIP3    H179592   2.685   4.895  16.698 -1.7159 -0.1716 -0.7077
19367TIP3    H279593   2.770   4.968  16.596 -0.4563 -0.8038 -0.1268
19368TIP3   OH279594   0.016   2.133   6.591  0.3787 -0.4893 -0.2435
19368TIP3    H179595  -0.075   2.160   6.583  0.8935  0.9136 -1.9875
19368TIP3    H279596   0.026   2.106   6.683 -1.4271  0.5877  0.3052
19369TIP3   OH279597   4.209   0.094   2.141  0.1471 -0.0423  0.5064
19369TIP3    H179598   4.135   0.070   2.084 -0.5450  0.0728  1.3451
19369TIP3    H279599   4.235   0.011   2.182 -1.1811  0.2989  2.1460
19370TIP3   OH279600   3.622   5.106   5.684  0.3796  0.1756 -0.0798
19370TIP3    H179601   3.536   5.128   5.650  0.5604  0.5168 -0.3165
19370TIP3    H279602   3.670   5.189   5.685  0.7836 -0.0511 -0.1819
19371TIP3   OH279603   5.395   0.065  12.654  0.0928 -0.4289  0.2346
19371TIP3    H179604   5.348   0.135  12.700  1.1247  1.7389 -1.8401
19371TIP3    H279605   5.458   0.032  12.719 -0.6673  0.2777  1.3644
19372TIP3   OH279606   3.097   2.419   3.061 -0.0193  0.0179  0.2366
19372TIP3    H179607   3.047   2.341   3.037  0.7320 -0.1883 -0.7290
19372TIP3    H279608   3.123   2.458   2.977  1.0257  0.3728  0.7083
19373TIP3   OH279609   3.203   0.712  13.313  0.0406  0.2821 -0.6552
19373TIP3    H179610   3.183   0.655  13.387  0.9541  0.6076 -0.1503
19373TIP3    H279611   3.255   0.657  13.254 -0.6675  0.0300 -1.0601
19374TIP3   OH279612   1.737   2.620   2.169  0.4508 -0.0668  0.5214
19374TIP3    H179613   1.799   2.603   2.239  0.9180 -0.8324 -0.0587
19374TIP3    H279614   1.678   2.687   2.204 -1.9635 -3.2548  3.3418
19375TIP3   OH279615   0.871   3.175   3.396 -0.2114 -0.2097  0.0850
19375TIP3    H179616   0.945   3.121   3.367  0.0316  0.3092 -0.2697
19375TIP3    H279617   0.845   3.224   3.318  0.5525  1.3222  0.7598
19376TIP3   OH279618   1.197   1.601  14.278 -0.3562  0.8531  0.1136
19376TIP3    H179619   1.270   1.539  14.278 -0.7135  0.3835 -1.5825
19376TIP3    H279620   1.209   1.652  14.357  0.2674 -1.0092  1.2846
19377TIP3   OH279621   4.212   0.788  16.359 -0.6051  0.2389 -0.5246
19377TIP3    H179622   4.140   0.849  16.341 -1.5442 -1.2822 -2.1970
19377TIP3    H279623   4.181   0.737  16.434 -1.5036 -0.7304 -1.5383
19378TIP3   OH279624   1.726   0.891  14.223 -0.1410  0.1820 -0.4551
19378TIP3    H179625   1.746   0.921  14.312 -0.4147  2.2325 -1.0180
19378TIP3    H279626   1.791   0.936  14.169 -2.1574  1.8623 -1.6276
19379TIP3   OH279627   2.988   6.578   1.887  0.4845  0.2480 -0.2919
19379TIP3    H179628   3.045   6.509   1.852  1.0830  0.9797 -0.7997
19379TIP3    H279629   2.925   6.531   1.942  2.1109 -0.5152  1.0292
19380TIP3   OH279630   5.627   0.679  12.172  0.0114  0.0557 -0.2456
19380TIP3    H179631   5.606   0.634  12.090  1.0585 -2.6426  0.8258
19380TIP3    H279632   5.670   0.760  12.145 -1.7388  0.3719 -2.3271
19381TIP3   OH279633   6.532   4.847   3.755  0.0606 -0.6122 -0.3339
19381TIP3    H179634   6.499   4.917   3.699 -3.1096 -0.7867  1.0715
19381TIP3    H279635   6.513   4.766   3.706  1.3073 -0.6214 -0.8293
19382TIP3   OH279636   4.980   2.435  12.909 -0.3734  0.0481  0.4095
19382TIP3    H179637   5.011   2.353  12.871 -1.4536  0.6577 -1.9538
19382TIP3    H279638   5.051   2.497  12.894 -0.1685 -0.0798  0.8319
19383TIP3   OH279639   3.359   2.054   4.084 -0.2601 -0.1971 -0.6269
19383TIP3    H179640   3.404   2.094   4.158  0.1999 -2.4982  0.3992
19383TIP3    H279641   3.267   2.077   4.097 -0.1199 -0.1849  0.4030
19384TIP3   OH279642   6.653   4.923  17.014 -0.2132 -0.2757  0.4019
19384TIP3    H179643   6.639   5.018  17.014 -1.0379 -0.3888  0.8230
19384TIP3    H279644   6.697   4.906  17.097  0.5926 -0.1880  0.0093
19385TIP3   OH279645   6.760   5.901   5.106 -0.4359 -0.0521  0.1657
19385TIP3    H179646   6.736   5.930   5.018 -3.0411  0.4023  0.9523
19385TIP3    H279647   6.811   5.974   5.142  0.6954 -0.2657 -0.9342
19386TIP3   OH279648   0.279   0.892   3.221  0.0951 -0.4442 -0.3830
19386TIP3    H179649   0.218   0.855   3.158 -0.0167 -1.2798  0.2067
19386TIP3    H279650   0.318   0.817   3.265  0.0591  0.1172  0.6580
19387TIP3   OH279651   2.500   0.123  11.752  0.1615  0.0367 -0.3569
19387TIP3    H179652   2.570   0.180  11.722 -0.2926 -0.5104 -2.5906
19387TIP3    H279653   2.545   0.055  11.803  1.2097 -0.0081 -1.3108
19388TIP3   OH279654   1.405   3.126   6.860 -0.1240 -0.4864  0.1733
19388TIP3    H179655   1.331   3.140   6.919  0.7578 -1.3671  1.5537
19388TIP3    H279656   1.369   3.076   6.787 -1.1791  0.3905  0.0620
19389TIP3   OH279657   6.428   5.156   2.852  0.2221  0.1850 -0.3099
19389TIP3    H179658   6.471   5.185   2.933  1.0639 -1.0005 -0.2963
19389TIP3    H279659   6.439   5.230   2.792 -1.2665  1.4799  0.9030
19390TIP3   OH279660   5.640   6.263   2.208  0.1449  0.1334  0.1348
19390TIP3    H179661   5.614   6.334   2.266  0.8569  1.6553 -1.3062
19390TIP3    H279662   5.611   6.183   2.252  0.3599  1.2195  2.3793
19391TIP3   OH279663   4.640   5.870  13.915  0.4010  0.5004 -0.9047
19391TIP3    H179664   4.656   5.778  13.897 -0.7567 -0.0396  0.6759
19391TIP3    H279665   4.566   5.871  13.975 -0.1719  2.5115 -1.5578
19392TIP3   OH279666   5.839   3.356   0.860  0.7999 -0.2179 -0.3034
19392TIP3    H179667   5.824   3.328   0.951  0.9653 -0.9877 -0.5101
19392TIP3    H279668   5.888   3.284   0.821 -1.1411 -0.9171 -1.6095
19393TIP3   OH279669   3.608   6.189  14.214 -0.4647  0.3915 -0.2514
19393TIP3    H179670   3.571   6.258  14.158  2.9514  1.8211 -0.9852
19393TIP3    H279671   3.641   6.124  14.153 -0.0230  0.1054  0.2874
19394TIP3   OH279672   3.358   5.143  15.362  0.3374 -0.1963 -0.0328
19394TIP3    H179673   3.320   5.222  15.324 -0.4842  0.9327  2.8555
19394TIP3    H279674   3.452   5.152  15.346  0.1688  0.9071 -0.5015
19395TIP3   OH279675   0.556   2.818   0.090  0.3508 -0.2822 -0.2934
19395TIP3    H179676   0.558   2.747   0.025 -2.3590 -1.1105  0.4233
19395TIP3    H279677   0.504   2.887   0.048  1.0790  0.3867 -0.1089
19396TIP3   OH279678   0.003   4.552  17.093 -0.4029  0.5786  0.1967
19396TIP3    H179679   0.057   4.630  17.092 -1.1223  1.0842 -0.9450
19396TIP3    H279680   0.063   4.481  17.072  0.4739  0.6253  2.2658
19397TIP3   OH279681   2.822   4.181  14.032 -0.2708 -0.3914 -0.3970
19397TIP3    H179682   2.903   4.177  14.084 -1.0611 -1.4275  0.8239
19397TIP3    H279683   2.788   4.091  14.036 -2.0723  0.2851  0.0909
19398TIP3   OH279684   5.702   5.951  15.638 -0.1719 -0.1477  0.7679
19398TIP3    H179685   5.649   5.975  15.714 -1.0077  0.8154 -0.1027
19398TIP3    H279686   5.673   5.863  15.615  0.4241 -0.6445  1.8358
19399TIP3   OH279687   4.646   2.942  13.953  0.0787  0.0293 -0.2276
19399TIP3    H179688   4.679   2.856  13.977  0.2510  0.4642  1.1660
19399TIP3    H279689   4.681   2.957  13.865 -0.3911 -1.5283 -0.7113
19400TIP3   OH279690   4.871   3.962  14.100  0.1487 -0.1758 -0.1358
19400TIP3    H179691   4.892   3.915  14.019 -1.8651 -0.4522 -0.5509
19400TIP3    H279692   4.863   4.053  14.073  1.5659  0.0821  0.2002
19401TIP3   OH279693   6.625   2.621  17.144  0.6794 -0.4705  0.0508
19401TIP3    H179694   6.696   2.674  17.107  0.3664 -1.9403 -2.9303
19401TIP3    H279695   6.648   2.531  17.124 -1.7528 -1.0374 -0.5435
19402TIP3   OH279696   4.439   4.189  16.534 -0.0580  0.0687 -0.6211
19402TIP3    H179697   4.482   4.104  16.525  0.2517  0.0709  0.6070
19402TIP3    H279698   4.509   4.248  16.564 -0.6769  0.3028  0.4228
19403TIP3   OH279699   0.441   1.641  14.983  0.3956 -0.3382 -0.3684
19403TIP3    H179700   0.459   1.594  15.064 -0.8210  1.0871  0.7898
19403TIP3    H279701   0.454   1.576  14.914  1.3760 -1.6061  0.9617
19404TIP3   OH279702   3.596   0.738   2.104  0.0067  0.7841  0.3000
19404TIP3    H179703   3.605   0.825   2.064 -0.6080  0.8698  0.3397
19404TIP3    H279704   3.553   0.754   2.187 -0.1140  0.4362  0.3048
19405TIP3   OH279705   5.187   5.397   4.122 -0.9273  0.1870  0.0218
19405TIP3    H179706   5.255   5.439   4.176 -1.1008  1.2616 -0.5600
19405TIP3    H279707   5.143   5.470   4.079 -1.7734 -0.5690 -0.4153
19406TIP3   OH279708   2.935   1.811   3.770  0.3341  0.3365  0.7948
19406TIP3    H179709   3.027   1.837   3.763  0.6961 -1.2495 -1.8227
19406TIP3    H279710   2.887   1.883   3.729  0.7670 -0.1862 -0.7301
19407TIP3   OH279711   2.960   6.101  15.241  0.0105  0.2575 -0.1278
19407TIP3    H179712   3.048   6.114  15.274 -0.6578  0.9607  1.5120
19407TIP3    H279713   2.948   6.007  15.238  0.9374  0.1437 -0.7864
19408TIP3   OH279714   3.523   1.506  11.505  0.3577 -0.3674 -0.9290
19408TIP3    H179715   3.610   1.475  11.478  0.0060 -1.5878 -0.7293
19408TIP3    H279716   3.540   1.558  11.583  0.7754 -2.0208  0.1428
19409TIP3   OH279717   1.430   6.220  11.207 -0.1923 -0.3852 -0.4726
19409TIP3    H179718   1.517   6.187  11.230 -0.4530 -1.8393 -1.4595
19409TIP3    H279719   1.435   6.240  11.114 -0.6280  0.5378 -0.3145
19410TIP3   OH279720   2.006   4.066   4.313  0.1030  0.0671 -0.2789
19410TIP3    H179721   2.040   4.136   4.368  1.8605 -1.8271  1.1842
19410TIP3    H279722   2.083   4.028   4.271 -0.3480 -2.7340  1.1501
19411TIP3   OH279723   5.760   3.899   2.756 -0.1071 -0.1058 -0.2833
19411TIP3    H179724   5.664   3.891   2.755 -0.1770  0.3760  0.8812
19411TIP3    H279725   5.776   3.990   2.731 -0.1778  0.9473  3.0629
19412TIP3   OH279726   5.778   6.354  13.792 -0.2800 -0.1555  0.3511
19412TIP3    H179727   5.794   6.347  13.698  2.2825 -0.9103  0.7472
19412TIP3    H279728   5.693   6.313  13.806 -0.5793 -0.2595 -1.6042
19413TIP3   OH279729   6.603   1.945  14.312 -0.0289 -0.1351  0.2829
19413TIP3    H179730   6.604   1.987  14.398 -2.8609 -0.0427  0.3611
19413TIP3    H279731   6.688   1.901  14.306 -0.0991 -0.9919  3.5561
19414TIP3   OH279732   0.093   3.899  11.797 -0.0003  0.3136  0.2532
19414TIP3    H179733   0.090   3.989  11.831 -1.3215  0.6962 -0.7771
19414TIP3    H279734   0.111   3.909  11.704  1.2415 -0.5944  0.3743
19415TIP3   OH279735   5.590   6.726  15.683  0.7744  0.1145  0.1795
19415TIP3    H179736   5.544   6.645  15.704 -0.1777  1.1105  2.2380
19415TIP3    H279737   5.682   6.709  15.707  0.3899 -0.0467  1.6313
19416TIP3   OH279738   3.652   3.641  15.383  0.0946 -0.1221 -0.2028
19416TIP3    H179739   3.619   3.703  15.448  0.2860  1.9576 -1.9944
19416TIP3    H279740   3.747   3.642  15.396  0.0911 -0.1268 -0.1746
19417TIP3   OH279741   1.931   0.871  11.895  0.1194  1.1241  0.0323
19417TIP3    H179742   1.996   0.849  11.829 -1.5746 -1.5536 -0.8931
19417TIP3    H279743   1.963   0.831  11.976 -0.6392 -0.8187 -0.5833
19418TIP3   OH279744   5.736   5.139  12.138  0.0775  0.1816 -0.4825
19418TIP3    H179745   5.668   5.132  12.072  0.4556 -0.1817 -0.8385
19418TIP3    H279746   5.790   5.213  12.109  0.6562 -0.4217 -0.9725
19419TIP3   OH279747   4.595   4.617   0.573  0.0291 -0.2372  0.0255
19419TIP3    H179748   4.611   4.683   0.640  2.0729 -0.2398 -0.4022
19419TIP3    H279749   4.616   4.534   0.615  0.1721 -0.3452 -0.2511
19420TIP3   OH279750   3.681   0.592   6.517  0.0871 -0.1663  0.4136
19420TIP3    H179751   3.618   0.656   6.548 -2.2599 -2.0034 -0.2432
19420TIP3    H279752   3.738   0.575   6.592 -1.5673 -0.0306  1.7350
19421TIP3   OH279753   5.096   1.998  11.576 -0.0687  1.5842  0.4819
19421TIP3    H179754   5.110   1.999  11.671  2.3043  1.8480  0.1784
19421TIP3    H279755   5.166   1.944  11.541 -2.0679 -0.1902 -1.0344
19422TIP3   OH279756   0.086   1.439  16.056  0.3328  0.6390  0.4929
19422TIP3    H179757   0.162   1.460  16.111  1.1006  0.2133 -0.3762
19422TIP3    H279758   0.032   1.517  16.059  0.8075  0.9553  1.1139
19423TIP3   OH279759   3.481   3.985  11.867  0.1010  0.0395 -0.4246
19423TIP3    H179760   3.515   4.036  11.794 -1.1116  1.0878 -0.2942
19423TIP3    H279761   3.449   4.050  11.930 -0.0939 -0.8576  0.4421
19424TIP3   OH279762   5.012   1.489  16.304  0.4418  0.0737 -0.3720
19424TIP3    H179763   5.048   1.553  16.366  0.6597  0.2792 -0.7089
19424TIP3    H279764   5.063   1.502  16.224 -0.0065 -0.0163 -0.6761
19425TIP3   OH279765   1.450   1.247  16.360  0.6838 -0.3573 -0.2856
19425TIP3    H179766   1.454   1.153  16.348 -0.8370 -0.3391 -1.1631
19425TIP3    H279767   1.497   1.263  16.442 -2.3925 -2.3525  2.1166
19426TIP3   OH279768   6.474   1.540   2.788  0.1565 -0.3751  0.1419
19426TIP3    H179769   6.519   1.624   2.783 -1.0960  0.4103  1.5818
19426TIP3    H279770   6.384   1.559   2.762  0.2248 -1.6215 -1.1507
19427TIP3   OH279771   0.222   5.112   5.567  0.0667  0.4860  0.0866
19427TIP3    H179772   0.251   5.202   5.552 -0.6786  0.7196  0.0347
19427TIP3    H279773   0.297   5.058   5.540  1.0869  1.1189  1.5061
19428TIP3   OH279774   1.531   0.870   5.837  0.7134  0.0494 -0.3131
19428TIP3    H179775   1.495   0.892   5.751 -0.3880  1.7808  0.5254
19428TIP3    H279776   1.456   0.877   5.896  1.0263 -2.9075  0.5828
19429TIP3   OH279777   1.280   4.967   3.945 -0.4033  0.1710 -0.1669
19429TIP3    H179778   1.185   4.970   3.934 -0.3710  0.6337 -0.3087
19429TIP3    H279779   1.294   4.902   4.015 -0.8391  0.3389  0.0748
19430TIP3   OH279780   2.092   1.348  16.451 -0.2803 -0.0702  0.1525
19430TIP3    H179781   2.156   1.382  16.388  0.5485  0.5831  1.3230
19430TIP3    H279782   2.038   1.289  16.399  1.5388 -0.9900 -0.8152
19431TIP3   OH279783   2.627   4.569  13.521 -0.5383  0.0742 -0.6373
19431TIP3    H179784   2.600   4.557  13.429 -0.5625  0.0822 -0.6309
19431TIP3    H279785   2.682   4.493  13.540  0.4087  0.6561 -1.0111
19432TIP3   OH279786   6.782   4.684   5.795  0.0499  0.1227  0.3527
19432TIP3    H179787   6.718   4.625   5.835 -1.9520  0.9782 -1.3893
19432TIP3    H279788   6.856   4.684   5.855  0.1308 -4.0285  0.5692
19433TIP3   OH279789   5.565   1.453  10.347  0.3370  0.8423  0.2294
19433TIP3    H179790   5.565   1.358  10.349  0.5290  0.7619 -1.7669
19433TIP3    H279791   5.572   1.479  10.439 -0.4846 -1.0468  0.8735
19434TIP3   OH279792   5.939   0.515   0.467  0.2537 -0.5798 -0.0008
19434TIP3    H179793   5.971   0.579   0.404 -0.3459  0.3823  0.6436
19434TIP3    H279794   5.844   0.526   0.467  0.3113  0.3073  1.9247
19435TIP3   OH279795   4.511   6.381   3.554 -0.2288 -0.3172  0.0833
19435TIP3    H179796   4.419   6.399   3.532  0.2917  1.3255 -0.8763
19435TIP3    H279797   4.533   6.445   3.621  0.6188  0.2685 -0.7405
19436TIP3   OH279798   3.878   6.185   2.872 -0.1247 -0.1496  0.4052
19436TIP3    H179799   3.796   6.155   2.832  1.1810 -1.8326 -1.1879
19436TIP3    H279800   3.920   6.105   2.902  0.0681  0.8747  3.0905
19437TIP3   OH279801   2.923   3.130   5.308  0.4162 -0.7311  0.4080
19437TIP3    H179802   2.937   3.060   5.244  2.2134  1.2706 -1.5681
19437TIP3    H279803   2.990   3.116   5.374  0.9369 -0.7679 -0.1174
19438TIP3   OH279804   5.827   1.663   1.461  0.4808  0.0910  0.1475
19438TIP3    H179805   5.918   1.637   1.473  0.2010 -0.6490  0.7427
19438TIP3    H279806   5.778   1.582   1.468 -0.4572  0.7657  2.5205
19439TIP3   OH279807   1.269   5.872  12.412 -0.1668 -0.6452  0.0854
19439TIP3    H179808   1.296   5.936  12.478 -0.1611  0.8410 -1.3055
19439TIP3    H279809   1.190   5.831  12.450  0.6153 -0.8456  1.5893
19440TIP3   OH279810   5.704   4.679  12.284 -0.0293  0.1223  0.2104
19440TIP3    H179811   5.653   4.749  12.242  1.7769  2.1155  1.1334
19440TIP3    H279812   5.663   4.598  12.254 -1.3779  1.5247 -2.0228
19441TIP3   OH279813   1.748   2.136   0.770 -0.1267  0.2445 -0.0369
19441TIP3    H179814   1.695   2.058   0.755 -1.1579  0.6356  1.3450
19441TIP3    H279815   1.758   2.140   0.865  2.3641  0.2290 -0.2502
19442TIP3   OH279816   2.838   5.898   4.223 -0.4908 -0.3827 -0.2189
19442TIP3    H179817   2.850   5.805   4.239  1.5006  0.1574  2.0453
19442TIP3    H279818   2.882   5.941   4.296 -1.9440  2.3556 -0.7962
19443TIP3   OH279819   1.599   5.600   4.496 -0.7275  0.0442 -0.2078
19443TIP3    H179820   1.599   5.659   4.572 -2.1890  0.4851 -0.5242
19443TIP3    H279821   1.551   5.648   4.429  1.4076  0.0975 -1.7868
19444TIP3   OH279822   0.636   4.467   6.443  0.0779  0.3948 -0.2434
19444TIP3    H179823   0.709   4.427   6.489 -2.2058 -0.5959  2.8887
19444TIP3    H279824   0.636   4.558   6.472 -0.2350  0.2504  0.2209
19445TIP3   OH279825   4.002   1.175   1.886  1.2202 -0.2172  0.3214
19445TIP3    H179826   4.049   1.155   1.806 -0.5573 -0.9267 -0.6020
19445TIP3    H279827   3.934   1.237   1.859  0.8363 -0.1538  1.3688
19446TIP3   OH279828   3.189   3.197   1.873  0.6058 -0.2296 -0.3392
19446TIP3    H179829   3.172   3.267   1.936 -1.0612 -1.4650  0.6393
19446TIP3    H279830   3.280   3.173   1.889 -0.4318 -2.3152  3.5911
19447TIP3   OH279831   3.992   0.634   6.434  0.5634  0.2848  0.1116
19447TIP3    H179832   3.936   0.595   6.501 -0.8300  0.2730 -1.0103
19447TIP3    H279833   4.080   0.603   6.454 -0.0286 -0.7693  1.1527
19448TIP3   OH279834   5.847   6.663   0.778  0.2929  0.4203  0.2655
19448TIP3    H179835   5.760   6.694   0.754  0.2083 -0.5765 -0.7671
19448TIP3    H279836   5.854   6.681   0.872 -2.0579 -1.8684  0.9942
19449TIP3   OH279837   2.353   2.333  14.906 -0.1237  0.0949  0.1662
19449TIP3    H179838   2.281   2.393  14.886  0.8285  0.9410 -0.8580
19449TIP3    H279839   2.340   2.309  14.998  0.2111  2.9950  1.0880
19450TIP3   OH279840   3.603   2.402  15.767 -0.3346  0.4576 -0.1493
19450TIP3    H179841   3.637   2.354  15.843  0.3517  0.4308 -0.4631
19450TIP3    H279842   3.645   2.488  15.772 -0.2757  0.4514 -0.5060
19451TIP3   OH279843   6.194   2.787  16.482 -0.3670  0.0298  0.4733
19451TIP3    H179844   6.184   2.816  16.391 -0.4537  0.6142  0.6679
19451TIP3    H279845   6.285   2.757  16.487 -0.4830 -0.3946  0.0853
19452TIP3   OH279846   5.806   2.277   4.398  0.0766 -0.0699  0.2290
19452TIP3    H179847   5.885   2.300   4.349  0.7385  1.1051  1.7530
19452TIP3    H279848   5.756   2.359   4.402 -0.5018 -0.4349  0.5456
19453TIP3   OH279849   5.127   2.087  16.524  0.2225 -0.1098  0.1280
19453TIP3    H179850   5.217   2.113  16.505  0.1901 -0.4742 -0.5467
19453TIP3    H279851   5.120   2.093  16.619  0.4857  1.4471  0.0748
19454TIP3   OH279852   3.707   0.560   5.496 -0.0562 -0.5905  0.1188
19454TIP3    H179853   3.694   0.635   5.438 -0.6918 -1.0485 -0.3390
19454TIP3    H279854   3.731   0.599   5.581 -1.1815  0.1624  0.1067
19455TIP3   OH279855   4.065   5.426   5.498  0.0756  0.1562  0.2930
19455TIP3    H179856   4.013   5.397   5.422 -0.4695  0.3701  0.5748
19455TIP3    H279857   4.143   5.371   5.496  0.3645  0.5847 -0.7791
19456TIP3   OH279858   1.011   5.787   0.210  0.1628  0.6186  0.4121
19456TIP3    H179859   1.003   5.692   0.196  0.3902  0.8016 -1.2144
19456TIP3    H279860   0.956   5.826   0.141  0.8870  1.6679  0.4040
19457TIP3   OH279861   1.279   2.897  13.357  0.4636 -0.3940  0.1578
19457TIP3    H179862   1.239   2.853  13.432  0.7890 -1.5964 -0.3482
19457TIP3    H279863   1.245   2.851  13.281 -0.5523  1.3825 -0.5187
19458TIP3   OH279864   5.514   4.068  15.763 -0.1270 -0.4541  0.2183
19458TIP3    H179865   5.469   4.117  15.694  1.1274  1.8504  0.9397
19458TIP3    H279866   5.502   4.120  15.842  1.1093 -1.3971  1.0769
19459TIP3   OH279867   5.590   5.534   3.207 -0.3853  0.0540 -0.5442
19459TIP3    H179868   5.585   5.593   3.132  1.0418  1.0596  0.1138
19459TIP3    H279869   5.582   5.446   3.169 -0.1905  0.5684 -1.8098
19460TIP3   OH279870   2.461   2.233  15.378  0.1384 -0.4407  0.5650
19460TIP3    H179871   2.534   2.208  15.434  1.5648  0.0617 -0.9903
19460TIP3    H279872   2.467   2.175  15.303 -0.1663  0.5633 -0.2665
19461TIP3   OH279873   5.131   1.577   2.893 -0.1814 -0.2228 -0.1417
19461TIP3    H179874   5.078   1.609   2.820 -0.8352 -0.5008  0.1977
19461TIP3    H279875   5.201   1.641   2.902  0.0187 -0.2903 -1.1371
19462TIP3   OH279876   4.840   1.790   1.917 -0.0968 -0.5115  0.7643
19462TIP3    H179877   4.754   1.788   1.874  0.2921 -0.5107 -0.0374
19462TIP3    H279878   4.883   1.868   1.881  0.2977 -0.5903  1.0516
19463TIP3   OH279879   1.814   2.962  16.114 -0.0096  0.1519 -0.7997
19463TIP3    H179880   1.907   2.943  16.112  0.2373  1.0128  0.8622
19463TIP3    H279881   1.805   3.034  16.176 -1.9099 -0.7671  0.0868
19464TIP3   OH279882   2.295   2.593   0.054 -0.1002 -0.3620 -1.0050
19464TIP3    H179883   2.350   2.595  -0.024 -0.6241 -0.3167 -1.3861
19464TIP3    H279884   2.209   2.624   0.023 -0.6826 -1.6222 -0.7175
19465TIP3   OH279885   2.646   4.168  14.756  0.6077 -0.1391  0.4122
19465TIP3    H179886   2.606   4.135  14.675  0.4345 -0.0277  0.4521
19465TIP3    H279887   2.741   4.160  14.741  0.5823  0.1640  0.0767
19466TIP3   OH279888   4.488   0.839  16.353  0.8674  0.3552  0.1154
19466TIP3    H179889   4.392   0.844  16.356  0.9087  0.9088  0.7257
19466TIP3    H279890   4.507   0.750  16.325  0.2022 -0.4083  1.9453
19467TIP3   OH279891   0.183   2.766  11.246  0.1374 -0.1479 -0.2942
19467TIP3    H179892   0.275   2.749  11.265  0.0006  2.2724  3.5286
19467TIP3    H279893   0.135   2.697  11.292 -0.0346 -0.8610 -1.5042
19468TIP3   OH279894   6.557   6.657   3.311  0.5664 -0.0895  0.4017
19468TIP3    H179895   6.496   6.597   3.355  1.7716 -2.9081 -1.4644
19468TIP3    H279896   6.525   6.660   3.221  1.1312  1.3250  0.2340
19469TIP3   OH279897   6.194   3.713  15.668  0.4934 -0.5189 -0.1019
19469TIP3    H179898   6.142   3.721  15.747  2.2160  1.5467  0.9113
19469TIP3    H279899   6.152   3.771  15.605 -1.2657 -2.6585 -1.0268
19470TIP3   OH279900   0.036   6.007   1.005 -0.3679 -0.3336  0.4076
19470TIP3    H179901   0.114   6.006   0.950 -0.0080  0.0444  0.8992
19470TIP3    H279902   0.031   5.919   1.042 -1.3940 -1.0327 -1.2806
19471TIP3   OH279903   2.432   0.040   4.447 -0.1694 -0.4076  0.0182
19471TIP3    H179904   2.486  -0.037   4.466  1.7422  0.7845 -0.2753
19471TIP3    H279905   2.494   0.113   4.447 -1.4272  0.7878 -2.3884
19472TIP3   OH279906   3.260   6.565   4.081  0.5808 -0.4063 -0.1258
19472TIP3    H179907   3.217   6.589   4.163 -1.0895 -2.5051 -0.2838
19472TIP3    H279908   3.347   6.537   4.107  0.9543  1.2962  0.5784
19473TIP3   OH279909   2.566   5.123   1.787 -0.1949 -0.1453 -0.2813
19473TIP3    H179910   2.506   5.154   1.720 -2.8119 -0.9087  1.5530
19473TIP3    H279911   2.640   5.185   1.784 -0.9144  0.6981 -2.7819
19474TIP3   OH279912   3.138   2.164   5.344  0.1343  0.8997  0.0518
19474TIP3    H179913   3.231   2.147   5.363 -0.4545  0.2067  2.7167
19474TIP3    H279914   3.105   2.081   5.309  0.8292  1.6716 -2.7182
19475TIP3   OH279915   2.839   1.671   0.546  0.7198  0.3900 -0.5468
19475TIP3    H179916   2.910   1.647   0.486  0.4186  0.2081 -0.8370
19475TIP3    H279917   2.793   1.742   0.502 -0.8467 -1.1816 -1.6032
19476TIP3   OH279918   4.445   5.374  11.143  0.4943 -0.4131 -0.5523
19476TIP3    H179919   4.442   5.281  11.167  0.9183 -0.7694 -1.7621
19476TIP3    H279920   4.462   5.373  11.048  0.2233  0.8998 -0.6307
19477TIP3   OH279921   2.146   5.878   6.797  0.1110  0.8360 -0.8424
19477TIP3    H179922   2.063   5.924   6.808 -1.9644 -1.5322 -4.5672
19477TIP3    H279923   2.137   5.800   6.852  0.6563  1.4002  0.0703
19478TIP3   OH279924   0.759   0.722  14.551 -0.5739 -0.0262  0.4495
19478TIP3    H179925   0.771   0.777  14.474 -1.0164  0.2176  0.5552
19478TIP3    H279926   0.688   0.662  14.527 -1.2635  0.5773  0.9536
19479TIP3   OH279927   4.094   1.013  12.745  0.4677 -0.7796 -0.2147
19479TIP3    H179928   4.072   1.076  12.678 -0.1839 -1.7882 -0.9774
19479TIP3    H279929   4.146   1.062  12.809  1.1960  0.1642 -1.5056
19480TIP3   OH279930   0.270   1.967   1.573  0.2802 -0.3007 -0.2412
19480TIP3    H179931   0.206   1.903   1.603  1.9527 -1.3050  1.3811
19480TIP3    H279932   0.336   1.915   1.526 -0.1321  0.7333 -2.0662
19481TIP3   OH279933   0.564   1.581  17.002 -0.5515 -0.2237  0.2241
19481TIP3    H179934   0.476   1.564  17.035 -1.5023  0.1446 -1.9504
19481TIP3    H279935   0.600   1.648  17.061 -2.8224  1.7149 -0.4805
19482TIP3   OH279936   2.953   3.309  14.584 -0.7215  0.2198 -0.7238
19482TIP3    H179937   3.023   3.250  14.554  1.0153 -0.2999  3.6019
19482TIP3    H279938   3.000   3.388  14.610 -1.6442 -0.0915  2.1666
19483TIP3   OH279939   3.743   3.934   3.544  0.6969 -0.9306  0.2929
19483TIP3    H179940   3.698   3.854   3.516  2.7602 -2.5639  1.3345
19483TIP3    H279941   3.811   3.948   3.479 -0.5667  0.9588 -0.7299
19484TIP3   OH279942   6.219   1.169   5.463  0.4052 -0.0368  0.1511
19484TIP3    H179943   6.214   1.259   5.432  0.4987  0.6326  1.9361
19484TIP3    H279944   6.307   1.140   5.440  0.7644  0.7224  0.5413
19485TIP3   OH279945   4.440   5.333  13.284  0.1955  0.2520  0.6551
19485TIP3    H179946   4.441   5.238  13.271  3.1578  0.4568 -1.9342
19485TIP3    H279947   4.468   5.346  13.374  1.7680 -1.3870  0.4572
19486TIP3   OH279948   6.678   2.463  16.020  0.0913  0.2292 -0.2892
19486TIP3    H179949   6.618   2.391  16.001 -0.9068  0.8739  0.3108
19486TIP3    H279950   6.722   2.481  15.937 -2.8328  1.7935 -1.6361
19487TIP3   OH279951   0.744   4.754  16.942 -0.1265 -0.2500 -0.3875
19487TIP3    H179952   0.659   4.729  16.978 -0.5456  1.4806 -0.1127
19487TIP3    H279953   0.724   4.802  16.862  0.4719  1.6760  0.5711
19488TIP3   OH279954   0.446   1.469  12.761  0.2613  0.2850 -0.1177
19488TIP3    H179955   0.541   1.480  12.759  0.3636 -0.2200  1.3178
19488TIP3    H279956   0.411   1.551  12.726  1.2264  0.1662 -1.4134
19489TIP3   OH279957   5.794   0.180   0.785 -0.0806 -0.3431 -0.1658
19489TIP3    H179958   5.779   0.144   0.697 -1.2328 -1.7545  0.5671
19489TIP3    H279959   5.860   0.248   0.772 -0.5885 -0.1729 -2.2045
19490TIP3   OH279960   2.902   0.038   2.080 -0.2653  0.3667 -0.2778
19490TIP3    H179961   2.816   0.003   2.059 -0.4476  0.7177 -0.1219
19490TIP3    H279962   2.940   0.063   1.996 -0.4231  0.4586 -0.3211
19491TIP3   OH279963   2.850   6.707  12.180  0.0298 -0.0237 -0.2300
19491TIP3    H179964   2.868   6.665  12.264 -0.4759  1.4152  0.6380
19491TIP3    H279965   2.896   6.653  12.115  1.5496 -0.3938  1.1110
19492TIP3   OH279966   5.873   5.008   1.958  0.3303  0.0788 -0.5043
19492TIP3    H179967   5.818   5.036   1.886  1.7772  0.6038 -1.4510
19492TIP3    H279968   5.893   5.088   2.007  0.6742 -0.0124 -0.4864
19493TIP3   OH279969   1.157   6.447   5.171  0.1570  0.0140 -0.1650
19493TIP3    H179970   1.075   6.425   5.126  0.4913  0.5755 -1.0886
19493TIP3    H279971   1.131   6.474   5.258 -0.8253  1.7804 -0.9518
19494TIP3   OH279972   2.368   6.022  12.706 -0.7691 -0.0936  0.0483
19494TIP3    H179973   2.299   6.030  12.773 -1.0563  0.8112 -0.3366
19494TIP3    H279974   2.355   6.098  12.650 -2.0567 -2.0271 -2.4790
19495TIP3   OH279975   2.480   5.834   6.397  0.4546 -0.0231  0.5225
19495TIP3    H179976   2.394   5.865   6.425  0.2832  0.4725 -0.5297
19495TIP3    H279977   2.542   5.885   6.449  0.1253 -0.7345  1.6536
19496TIP3   OH279978   6.292   0.962   3.223  0.1337  0.0423  0.0123
19496TIP3    H179979   6.273   1.054   3.244 -0.5160  0.2788 -1.4848
19496TIP3    H279980   6.387   0.959   3.216  0.2845  0.2311  1.5613
19497TIP3   OH279981   2.018   4.333  15.684 -0.2746 -0.2527 -0.2061
19497TIP3    H179982   1.957   4.359  15.614 -0.9441 -1.6840 -0.1896
19497TIP3    H279983   2.007   4.238  15.690  3.0770 -0.8275 -1.2402
19498TIP3   OH279984   6.460   4.958   4.682 -0.3759  0.6121  0.0034
19498TIP3    H179985   6.368   4.946   4.706 -0.0474  0.8728  1.4759
19498TIP3    H279986   6.471   5.053   4.674 -0.0105  0.6533  0.8580
19499TIP3   OH279987   6.280   2.892  13.272  0.1048 -0.2697 -0.4497
19499TIP3    H179988   6.348   2.943  13.316  0.4818 -0.0928 -1.2266
19499TIP3    H279989   6.328   2.821  13.229 -0.0046  0.7058 -2.2575
19500TIP3   OH279990   0.107   3.233   4.697  0.2670 -0.8669  0.0130
19500TIP3    H179991   0.152   3.160   4.739  1.8632 -1.1992 -2.0997
19500TIP3    H279992   0.128   3.224   4.604 -2.6144  0.1277 -0.8552
19501TIP3   OH279993   5.171   6.777   1.622  0.3977  0.3418  0.2552
19501TIP3    H179994   5.144   6.773   1.714  0.2344  1.8887  0.3032
19501TIP3    H279995   5.124   6.704   1.581  2.0678 -1.7041  1.7370
19502TIP3   OH279996   5.176   4.577  14.091  0.0722 -0.2322  0.5990
19502TIP3    H179997   5.093   4.575  14.043  0.8504  1.2193 -0.9212
19502TIP3    H279998   5.243   4.583  14.022  1.7336 -4.2320  1.6031
19503TIP3   OH279999   1.382   0.458   2.170  0.7314  0.1200 -0.6251
19503TIP3    H180000   1.325   0.392   2.210  1.3286  0.0073  0.0827
19503TIP3    H280001   1.389   0.432   2.078  0.4305 -0.4283 -0.4963
19504TIP3   OH280002   0.262   1.691  12.213  0.6993  0.3333 -0.6952
19504TIP3    H180003   0.201   1.635  12.261 -0.9204  2.4862 -0.0750
19504TIP3    H280004   0.263   1.654  12.124 -3.4519  1.4733 -1.4174
19505TIP3   OH280005   4.568   2.225   5.002 -0.2869 -0.0324  0.1885
19505TIP3    H180006   4.548   2.239   4.909 -1.1642  3.3631  0.7742
19505TIP3    H280007   4.497   2.168   5.033 -0.5909 -0.3191 -0.9679
19506TIP3   OH280008   4.661   1.259   4.794  0.0375 -0.1135 -0.3422
19506TIP3    H180009   4.656   1.191   4.861  0.4557 -1.0335 -1.2140
19506TIP3    H280010   4.742   1.305   4.813  0.1792 -0.3996 -0.2408
19507TIP3   OH280011   5.193   0.983  17.042  0.0094 -0.6512 -0.1746
19507TIP3    H180012   5.231   1.001  17.128  0.9630 -1.5354 -0.4015
19507TIP3    H280013   5.237   0.904  17.012 -1.0893 -0.9704 -1.0185
19508TIP3   OH280014   2.786   3.452  13.252  0.0562 -0.2832  0.2671
19508TIP3    H180015   2.836   3.396  13.193  0.7068  0.0770  0.4615
19508TIP3    H280016   2.825   3.539  13.242 -1.3987  0.3006 -0.5541
19509TIP3   OH280017   4.841   6.705  10.718 -0.1627  0.6910  0.1572
19509TIP3    H180018   4.780   6.777  10.738  0.1315  0.7075  1.0277
19509TIP3    H280019   4.924   6.732  10.756  0.6282  1.0121 -1.6827
19510TIP3   OH280020   1.843   0.660   4.730 -0.2581 -0.3196  0.2925
19510TIP3    H180021   1.911   0.606   4.690 -0.9452 -0.8223 -0.2364
19510TIP3    H280022   1.789   0.597   4.779  0.2762  0.2197  1.6132
19511TIP3   OH280023   0.353   4.008  15.332  0.2334  0.1514 -0.1953
19511TIP3    H180024   0.348   4.040  15.242 -0.2852  1.1155  0.1560
19511TIP3    H280025   0.428   3.949  15.333 -0.1188 -0.3423 -1.3985
19512TIP3   OH280026   6.404   1.368  13.275 -0.0354  0.4630 -0.4315
19512TIP3    H180027   6.333   1.430  13.290  0.8532  0.8782  2.8425
19512TIP3    H280028   6.368   1.283  13.303  1.3975  1.1195  4.2922
19513TIP3   OH280029   4.213   2.359  10.986 -0.1673  0.3097 -0.1215
19513TIP3    H180030   4.215   2.378  10.892 -0.9575 -0.1448 -0.2374
19513TIP3    H280031   4.146   2.418  11.021 -0.9321 -0.5652 -0.0913
19514TIP3   OH280032   6.681   0.477  16.148  0.2510 -0.0276  0.3818
19514TIP3    H180033   6.715   0.423  16.076 -1.0513  0.2581 -0.4860
19514TIP3    H280034   6.736   0.555  16.147  1.8504 -1.0759  1.3429
19515TIP3   OH280035   4.070   5.159  16.397 -0.0749  0.6255 -0.4674
19515TIP3    H180036   4.040   5.232  16.342  1.2831  1.9643  0.4904
19515TIP3    H280037   4.127   5.199  16.461  2.2164 -1.5139 -1.0107
19516TIP3   OH280038   6.143   0.236   5.968 -0.6178 -0.5798 -0.2567
19516TIP3    H180039   6.188   0.320   5.973 -1.3109 -0.1275 -1.4216
19516TIP3    H280040   6.166   0.192   6.050  0.8893  0.1607 -0.2471
19517TIP3   OH280041   2.644   6.209   5.386  0.2363  0.3334 -0.2091
19517TIP3    H180042   2.671   6.291   5.428  0.5181  0.1599 -0.0517
19517TIP3    H280043   2.710   6.146   5.411  1.3614  0.6019 -2.2668
19518TIP3   OH280044   6.034   4.300  12.334  0.4101 -0.2227 -0.1251
19518TIP3    H180045   6.041   4.288  12.429  3.6257 -1.0741 -0.3698
19518TIP3    H280046   6.082   4.226  12.297 -1.2935 -0.2655 -2.5101
19519TIP3   OH280047   1.015   2.299  14.905  0.1166  0.1571  0.4800
19519TIP3    H180048   1.023   2.369  14.970 -1.0701  1.1771 -0.4327
19519TIP3    H280049   1.104   2.288  14.872  0.6530 -0.0445  1.8991
19520TIP3   OH280050   3.626   2.873  13.527 -0.0091  0.2001  0.3453
19520TIP3    H180051   3.600   2.858  13.618  0.7427 -0.0351  0.5293
19520TIP3    H280052   3.705   2.821  13.516  0.6035  1.1918 -0.0811
19521TIP3   OH280053   4.352   5.715   3.689 -0.2334 -0.0397 -0.9154
19521TIP3    H180054   4.294   5.752   3.756 -0.5747  2.3223 -2.4288
19521TIP3    H280055   4.436   5.706   3.733 -1.2654 -2.0537  0.8569
19522TIP3   OH280056   4.127   4.687   6.448 -0.0427  0.6387  0.1330
19522TIP3    H180057   4.220   4.667   6.461 -0.3116  0.5179  2.1466
19522TIP3    H280058   4.097   4.623   6.383  1.8598  2.4245 -2.7877
19523TIP3   OH280059   5.238   1.045   0.988  0.0361 -0.1036  0.6305
19523TIP3    H180060   5.204   1.125   1.027  1.9005  1.1663 -0.1772
19523TIP3    H280061   5.314   1.073   0.937  0.8142 -2.4031  0.3707
19524TIP3   OH280062   2.687   0.165   2.858  0.2352 -0.9454 -0.2337
19524TIP3    H180063   2.726   0.083   2.889  0.6171 -0.6578  0.0535
19524TIP3    H280064   2.736   0.233   2.903  0.3477 -0.5383 -0.9554
19525TIP3   OH280065   2.255   2.725  13.381  0.1286  0.3289  0.3419
19525TIP3    H180066   2.335   2.684  13.348 -0.1847 -0.1481  0.1722
19525TIP3    H280067   2.246   2.691  13.470  0.1680  0.4588  0.3952
19526TIP3   OH280068   2.486   6.443  13.021 -0.8340 -0.4888 -0.3804
19526TIP3    H180069   2.486   6.384  13.096 -1.6188 -1.3754 -1.0349
19526TIP3    H280070   2.394   6.448  12.995 -1.4009  3.6556  1.5956
19527TIP3   OH280071   6.465   1.370   4.286  0.2912  0.4685 -0.0804
19527TIP3    H180072   6.511   1.454   4.283  0.2306  0.4820 -1.2484
19527TIP3    H280073   6.402   1.375   4.214  0.2243 -0.5447 -0.1055
19528TIP3   OH280074   3.050   3.322   0.107  0.2938  0.0591 -0.5304
19528TIP3    H180075   3.035   3.412   0.138 -2.3630 -0.0159 -1.3529
19528TIP3    H280076   3.061   3.331   0.013 -1.0058 -0.5212 -0.7633
19529TIP3   OH280077   4.314   3.934   1.816  0.1615  0.5290 -0.2915
19529TIP3    H180078   4.283   3.853   1.775  3.3967 -0.4855 -0.9954
19529TIP3    H280079   4.308   4.000   1.747  1.4468 -0.1446 -1.0793
19530TIP3   OH280080   2.900   4.719  14.224  0.1630  0.1614 -0.3955
19530TIP3    H180081   2.961   4.736  14.296  0.7599  0.2667 -0.9193
19530TIP3    H280082   2.842   4.794  14.223 -0.1638 -0.0695  0.2859
19531TIP3   OH280083   1.515   4.790   1.939 -0.7527 -0.0637 -0.5873
19531TIP3    H180084   1.590   4.751   1.984 -1.1681  0.4266  0.5570
19531TIP3    H280085   1.498   4.871   1.986 -1.1763  0.5053 -1.6760
19532TIP3   OH280086   5.111   0.149  15.441 -0.0585  0.0899 -0.4584
19532TIP3    H180087   5.126   0.166  15.348 -0.6931  2.0274 -0.2511
19532TIP3    H280088   5.169   0.210  15.486 -2.7570  2.2549  0.3662
19533TIP3   OH280089   0.644   3.246   5.834 -0.0678  0.0778  0.3451
19533TIP3    H180090   0.684   3.332   5.819  0.5021 -0.3147 -0.4302
19533TIP3    H280091   0.556   3.266   5.867 -0.8453  0.9889 -2.0629
19534TIP3   OH280092   6.155   6.110  12.703 -0.5091 -0.2234  0.3514
19534TIP3    H180093   6.128   6.020  12.720 -2.6440  0.2874 -0.0650
19534TIP3    H280094   6.139   6.156  12.786  0.0218 -0.0871  0.3844
19535TIP3   OH280095   0.572   4.436   3.941 -0.0180  0.5519  0.2116
19535TIP3    H180096   0.499   4.486   3.978 -0.6971 -0.4437  0.2660
19535TIP3    H280097   0.613   4.394   4.017  0.9587  1.5127  0.2469
19536TIP3   OH280098   0.564   4.338  12.243 -0.2279  0.0896  0.1138
19536TIP3    H180099   0.648   4.339  12.288  0.2458 -2.3850 -0.5605
19536TIP3    H280100   0.577   4.279  12.169 -2.4346  0.0050 -0.2830
19537TIP3   OH280101   6.552   3.286   4.543 -0.3134 -0.5513  0.2237
19537TIP3    H180102   6.543   3.241   4.628  0.5755 -1.1594  0.0140
19537TIP3    H280103   6.482   3.249   4.490 -1.3654  0.3920  0.9083
19538TIP3   OH280104   1.752   5.542  11.447  0.1701  0.1879  0.5773
19538TIP3    H180105   1.767   5.453  11.415 -0.3721  0.6802 -1.1929
19538TIP3    H280106   1.825   5.593  11.411 -0.0014  0.6214  0.8320
19539TIP3   OH280107   1.097   6.097  17.164  0.1981 -0.6373 -0.7219
19539TIP3    H180108   1.098   6.106  17.259  1.4681 -1.2079 -0.6724
19539TIP3    H280109   1.043   6.020  17.148 -0.3093 -0.3392 -0.5011
19540TIP3   OH280110   2.261   0.685  15.010  0.2573  0.6564  0.0128
19540TIP3    H180111   2.248   0.694  14.916  3.6366  1.1005 -0.5309
19540TIP3    H280112   2.292   0.596  15.022 -1.0260  0.2903  0.9077
19541TIP3   OH280113   0.998   6.262  15.528  0.2802  0.3187 -0.3756
19541TIP3    H180114   0.939   6.297  15.461  0.0121 -1.0575 -0.8898
19541TIP3    H280115   1.040   6.339  15.566 -0.9801  1.2483 -0.8125
19542TIP3   OH280116   1.332   3.949  12.022 -0.3668 -0.2668  0.2829
19542TIP3    H180117   1.320   4.014  12.091 -3.3966  0.6564 -0.9508
19542TIP3    H280118   1.347   4.000  11.942 -0.0312 -1.1910 -0.2683
19543TIP3   OH280119   5.484   5.221  16.722  0.2051 -0.2511  0.4820
19543TIP3    H180120   5.556   5.278  16.751 -1.1460  1.4842  0.5618
19543TIP3    H280121   5.437   5.273  16.657  0.6452 -2.4474 -1.7271
19544TIP3   OH280122   2.509   5.452   3.914 -0.5301 -0.5236  0.2552
19544TIP3    H180123   2.466   5.499   3.986 -0.4736 -1.9914  1.2724
19544TIP3    H280124   2.467   5.366   3.912  1.2966 -1.4577  0.2929
19545TIP3   OH280125   4.288   0.880   4.829  0.0989 -0.5525 -0.2902
19545TIP3    H180126   4.357   0.867   4.894 -0.5834  1.0444  0.7957
19545TIP3    H280127   4.279   0.975   4.820 -1.5634 -0.7145 -0.8260
19546TIP3   OH280128   0.093   6.831  13.670  0.4195  0.1596 -0.0207
19546TIP3    H180129   0.090   6.913  13.720  0.6408 -1.0345  2.0786
19546TIP3    H280130   0.086   6.762  13.736 -2.6074 -1.5530 -1.9038
19547TIP3   OH280131   3.510   2.376   3.758  0.2965 -0.3087 -0.0889
19547TIP3    H180132   3.535   2.318   3.686  1.8012 -1.3280  1.1850
19547TIP3    H280133   3.593   2.414   3.788 -0.5027  1.4486  0.0304
19548TIP3   OH280134   0.969   4.757  15.524 -0.4151 -0.2398 -0.5126
19548TIP3    H180135   0.940   4.808  15.600  2.1068 -0.1224  0.4851
19548TIP3    H280136   0.958   4.816  15.450 -0.4217  0.6563  0.1792
19549TIP3   OH280137   4.591   2.502   4.216  0.5036  0.9562 -0.5572
19549TIP3    H180138   4.593   2.597   4.222 -0.2895  0.9527 -0.0536
19549TIP3    H280139   4.666   2.473   4.267  1.1712  1.3251 -1.3127
19550TIP3   OH280140   5.313   5.887  15.192 -0.3111  0.3313 -0.4986
19550TIP3    H180141   5.366   5.821  15.149  0.9496 -0.2502  1.7689
19550TIP3    H280142   5.343   5.970  15.154  0.1001 -0.2025 -1.3709
19551TIP3   OH280143   3.081   3.100   3.254 -0.6347 -0.2914  0.3706
19551TIP3    H180144   2.998   3.128   3.216 -0.1495  1.4500  0.5053
19551TIP3    H280145   3.142   3.171   3.234  0.1317 -0.2078  2.6716
19552TIP3   OH280146   5.951   1.058  13.093  0.0086 -0.0671 -0.5198
19552TIP3    H180147   5.907   1.094  13.016 -0.7579  2.1883  0.8637
19552TIP3    H280148   5.886   1.002  13.135 -0.3675  0.5112 -0.3235
19553TIP3   OH280149   0.049   3.380   1.413  0.1561  0.0378 -0.0252
19553TIP3    H180150   0.069   3.391   1.506  3.3668  0.3925 -0.6494
19553TIP3    H280151   0.125   3.334   1.377 -0.4676  0.8972 -2.6991
19554TIP3   OH280152   2.148   4.508   0.713 -0.1288 -0.1648  0.0663
19554TIP3    H180153   2.106   4.459   0.784 -2.1468  0.8515 -0.3349
19554TIP3    H280154   2.170   4.593   0.751 -0.2900  0.0227 -0.2538
19555TIP3   OH280155   3.695   0.160   1.126  0.1750  0.0178  0.4319
19555TIP3    H180156   3.728   0.241   1.166  0.2197  0.2049  0.0246
19555TIP3    H280157   3.700   0.176   1.032 -3.4866  1.1384  0.2373
19556TIP3   OH280158   0.235   3.680   0.937  0.2526 -0.2161  0.3118
19556TIP3    H180159   0.161   3.717   0.985 -0.1370 -0.6003  0.0167
19556TIP3    H280160   0.202   3.598   0.901  0.8935 -0.5098  0.3690
19557TIP3   OH280161   4.704   5.404   3.124 -0.4220  0.3509 -0.8581
19557TIP3    H180162   4.783   5.453   3.146  1.0754 -1.4796 -1.9484
19557TIP3    H280163   4.658   5.394   3.208  0.5908  1.2325 -0.1671
19558TIP3   OH280164   0.206   3.141   5.340  0.0510  0.4728 -0.3936
19558TIP3    H180165   0.276   3.079   5.361  1.8613  2.7169  0.6416
19558TIP3    H280166   0.214   3.155   5.246 -0.2518 -0.6458 -0.6060
19559TIP3   OH280167   5.927   5.410   1.312  0.1407 -0.2773  0.2411
19559TIP3    H180168   5.927   5.504   1.331  1.7349 -0.4103  1.1204
19559TIP3    H280169   5.882   5.371   1.387  1.0554 -0.3350  0.7727
19560TIP3   OH280170   4.299   0.326   0.310  0.1939  0.1877  0.3059
19560TIP3    H180171   4.312   0.344   0.404 -0.0343  3.2774 -0.1424
19560TIP3    H280172   4.211   0.290   0.305  0.7685 -1.5273  1.3632
19561TIP3   OH280173   4.757   1.368  14.920  0.4148  0.2697  0.3152
19561TIP3    H180174   4.676   1.331  14.957 -0.2620  0.3937 -0.9987
19561TIP3    H280175   4.802   1.293  14.881  0.5987  0.3207  0.4264
19562TIP3   OH280176   0.204   5.547  10.528 -0.6933  0.2201  0.3336
19562TIP3    H180177   0.299   5.548  10.522 -0.6611  2.8512  0.0563
19562TIP3    H280178   0.185   5.510  10.614  0.4903 -1.6386 -0.1611
19563TIP3   OH280179   5.329   1.498  14.177 -0.0845 -0.4814  0.5300
19563TIP3    H180180   5.250   1.458  14.140 -0.9733  0.2634  1.5933
19563TIP3    H280181   5.372   1.539  14.102 -2.3830  1.9033  0.3567
19564TIP3   OH280182   4.522   2.920   2.540 -0.2853  0.1847  0.6134
19564TIP3    H180183   4.592   2.862   2.573  1.0995  2.0042  1.0688
19564TIP3    H280184   4.444   2.865   2.540  1.3362 -2.3302 -1.0857
19565TIP3   OH280185   1.156   5.839  15.693 -0.6846  0.1852 -0.0653
19565TIP3    H180186   1.134   5.897  15.620 -1.0536 -1.5859 -1.4261
19565TIP3    H280187   1.246   5.812  15.675 -0.4293  0.5187  0.6948
19566TIP3   OH280188   3.137   4.148   4.155 -0.1816 -0.1939  0.2585
19566TIP3    H180189   3.096   4.187   4.232 -1.0583 -0.0212 -0.2887
19566TIP3    H280190   3.154   4.057   4.181  0.2476  0.0626  0.9175
19567TIP3   OH280191   5.383   2.176  16.528  0.4517  0.5068  0.2724
19567TIP3    H180192   5.357   2.162  16.619  1.3993  0.7091  0.5819
19567TIP3    H280193   5.478   2.170  16.529  0.4904  0.8072 -0.6581
19568TIP3   OH280194   6.419   2.564  11.431  0.3967 -0.0171 -0.0785
19568TIP3    H180195   6.408   2.483  11.482  0.7903  0.9973  1.7254
19568TIP3    H280196   6.472   2.538  11.356  0.0565 -1.5421  0.1722
19569TIP3   OH280197   4.822   0.626  12.148 -0.6938 -0.6683  0.1887
19569TIP3    H180198   4.867   0.662  12.071 -0.3652 -0.0437  0.6643
19569TIP3    H280199   4.804   0.702  12.203 -0.6641 -1.1460  0.8731
19570TIP3   OH280200   2.656   4.199   2.602  0.6164 -0.6538 -0.4753
19570TIP3    H180201   2.561   4.189   2.610  0.5159  0.0310 -0.7489
19570TIP3    H280202   2.677   4.158   2.519  0.5160 -0.5202 -0.5669
19571TIP3   OH280203   0.003   2.980   1.227  0.0307  0.2223  0.5356
19571TIP3    H180204  -0.090   2.964   1.216  0.1333 -0.3352  0.4295
19571TIP3    H280205   0.036   2.992   1.138  0.2312 -0.6193  0.4853
19572TIP3   OH280206   6.729   4.774  14.678 -0.0142 -0.2200 -0.1501
19572TIP3    H180207   6.648   4.722  14.681  0.0248 -0.2333  1.0136
19572TIP3    H280208   6.781   4.732  14.609 -1.2849  0.2396 -1.4303
19573TIP3   OH280209   6.635   1.936   1.125 -0.2337 -0.0242 -0.8233
19573TIP3    H180210   6.641   2.019   1.078 -0.9626  0.7749  0.4216
19573TIP3    H280211   6.591   1.877   1.065  1.3176  0.1208 -2.1663
19574TIP3   OH280212   4.715   0.780  16.626  0.1426  0.0856 -0.1947
19574TIP3    H180213   4.704   0.740  16.540  0.7006 -0.8303  0.1438
19574TIP3    H280214   4.810   0.794  16.634 -0.0454  1.5897 -0.3425
19575TIP3   OH280215   4.259   1.391   1.997  0.7284 -0.0705 -0.1391
19575TIP3    H180216   4.253   1.461   1.932  1.3653 -0.0334 -0.1641
19575TIP3    H280217   4.248   1.311   1.946 -1.0194  0.0295  0.0295
19576TIP3   OH280218   5.178   0.828   5.397  0.6267 -0.2621  0.2205
19576TIP3    H180219   5.233   0.770   5.343 -0.7867 -2.4420  0.9939
19576TIP3    H280220   5.177   0.787   5.483 -2.2655 -0.3899  0.2242
19577TIP3   OH280221   0.347   0.385  16.631  0.2549 -0.8208  0.0917
19577TIP3    H180222   0.442   0.374  16.643  0.3330 -0.6980 -0.3762
19577TIP3    H280223   0.309   0.352  16.712  0.7480 -0.0276  0.6604
19578TIP3   OH280224   0.050   6.498   1.610  0.3025  0.0584 -0.2667
19578TIP3    H180225   0.036   6.505   1.704  1.2873 -0.7707 -0.0466
19578TIP3    H280226   0.002   6.418   1.584  2.5586 -1.5042  0.1044
19579TIP3   OH280227   3.933   4.774  14.807  0.9178  0.2877 -0.1492
19579TIP3    H180228   3.937   4.791  14.901 -0.2894  0.1792 -0.0588
19579TIP3    H280229   3.877   4.843  14.772 -1.7094 -1.7109 -0.1989
19580TIP3   OH280230   2.215   3.448   2.006 -0.2816 -0.2844 -0.5023
19580TIP3    H180231   2.290   3.392   2.028 -0.6508 -0.6811 -0.2340
19580TIP3    H280232   2.238   3.487   1.922 -0.1147 -1.0240 -0.8079
19581TIP3   OH280233   3.313   6.549  15.727  0.2138 -0.4118  0.3928
19581TIP3    H180234   3.269   6.611  15.668  0.2320  0.3261  1.1420
19581TIP3    H280235   3.258   6.548  15.805  0.0983 -1.5184  0.3095
19582TIP3   OH280236   0.867   4.537  14.919  0.5068 -0.5772  0.1399
19582TIP3    H180237   0.836   4.543  14.829 -3.3339 -0.8409  1.2591
19582TIP3    H280238   0.882   4.627  14.946  0.0222 -0.3582 -0.3089
19583TIP3   OH280239   0.732   6.799   2.744 -0.0772 -0.4333 -0.4571
19583TIP3    H180240   0.675   6.781   2.670 -1.4185 -0.8254  0.6273
19583TIP3    H280241   0.755   6.713   2.779  0.8775 -0.2646 -0.6428
19584TIP3   OH280242   6.763   4.592  14.444 -0.4489  0.0830  0.0179
19584TIP3    H180243   6.695   4.537  14.406  0.5703 -0.7120 -0.7057
19584TIP3    H280244   6.820   4.614  14.371  1.1245 -0.8288  0.9218
19585TIP3   OH280245   2.624   0.046   5.332  0.2688  0.4197 -0.0379
19585TIP3    H180246   2.633   0.137   5.303 -1.7110  1.2948  1.8106
19585TIP3    H280247   2.688   0.037   5.402 -0.3186  0.7755  0.5548
19586TIP3   OH280248   2.503   1.542  15.351 -0.6030  0.3229  0.3199
19586TIP3    H180249   2.408   1.535  15.342 -0.6586 -0.3001  1.2547
19586TIP3    H280250   2.518   1.629  15.388 -0.8286  0.3220  0.4111
19587TIP3   OH280251   1.413   6.801  11.580  0.3794  0.1959  0.2880
19587TIP3    H180252   1.492   6.803  11.526  0.4847  3.2229  0.3847
19587TIP3    H280253   1.443   6.829  11.667 -0.7626  1.4802  0.3004
19588TIP3   OH280254   3.432   5.426   2.303  0.2343  0.1018 -0.2546
19588TIP3    H180255   3.403   5.364   2.370 -1.1380  1.3035  0.3319
19588TIP3    H280256   3.395   5.392   2.221  0.8708 -0.7134 -0.2127
19589TIP3   OH280257   0.820   0.121  12.698  0.4150 -0.6467 -0.1223
19589TIP3    H180258   0.869   0.099  12.619 -0.1253 -0.7029 -0.4509
19589TIP3    H280259   0.836   0.214  12.712  0.1544 -0.5296 -0.5653
19590TIP3   OH280260   2.465   1.056   2.958  0.4994  0.5966  0.0538
19590TIP3    H180261   2.530   1.101   3.013  0.3327  0.2438  0.5506
19590TIP3    H280262   2.468   0.965   2.987 -0.8693  0.7409  0.7297
19591TIP3   OH280263   0.609   1.887   0.527  0.7945 -0.2952  0.1862
19591TIP3    H180264   0.687   1.923   0.570  2.8250 -2.4642 -1.4207
19591TIP3    H280265   0.602   1.935   0.445  0.6285 -0.3291  0.1795
19592TIP3   OH280266   5.901   4.589   2.196  0.2280  0.7666 -0.3781
19592TIP3    H180267   5.902   4.677   2.158 -0.6014  1.2323  0.6193
19592TIP3    H280268   5.907   4.531   2.121  0.2993  1.6731 -1.0996
19593TIP3   OH280269   4.819   0.515  11.568  0.1505 -0.4920  0.0415
19593TIP3    H180270   4.775   0.561  11.497 -1.2439 -0.2376  1.0357
19593TIP3    H280271   4.750   0.463  11.609  0.8138 -0.2341  1.5288
19594TIP3   OH280272   5.429   5.948  16.673 -0.3528 -0.0037 -0.4538
19594TIP3    H180273   5.503   6.007  16.663  0.6477 -1.0800  0.2525
19594TIP3    H280274   5.354   5.996  16.638  0.5190  1.4431 -0.3996
19595TIP3   OH280275   3.832   1.697   0.024  0.2324  0.3563 -0.6522
19595TIP3    H180276   3.851   1.747   0.104  1.9340 -1.6253  0.2960
19595TIP3    H280277   3.749   1.653   0.042  0.7986 -0.3953  0.2651
19596TIP3   OH280278   3.476   2.723   4.883 -0.4172  0.2507  0.3160
19596TIP3    H180279   3.460   2.799   4.939  1.8160 -0.0998  1.5186
19596TIP3    H280280   3.396   2.670   4.891 -0.7916  0.9951  1.8613
19597TIP3   OH280281   2.559   5.826  15.236 -0.8520  1.4123  0.2190
19597TIP3    H180282   2.490   5.892  15.228 -2.5580 -0.2716  0.3915
19597TIP3    H280283   2.519   5.745  15.206  0.9405  0.2701  0.7154
19598TIP3   OH280284   1.564   4.156  17.138  0.7165  0.0082  0.3585
19598TIP3    H180285   1.522   4.177  17.054 -1.1532  0.2508  1.2951
19598TIP3    H280286   1.626   4.086  17.117 -0.9436 -1.1620 -0.9727
19599TIP3   OH280287   2.577   5.718   4.977  0.3237 -0.6799  0.3356
19599TIP3    H180288   2.494   5.734   5.022  0.7750  1.4542  0.4861
19599TIP3    H280289   2.644   5.732   5.044  1.0585  3.3899 -1.0040
19600TIP3   OH280290   1.554   4.633  11.501  0.3386 -0.3002 -0.0857
19600TIP3    H180291   1.627   4.667  11.553  1.0699 -1.2886 -0.4558
19600TIP3    H280292   1.578   4.543  11.480  0.1201  0.0819 -2.2278
19601TIP3   OH280293   4.223   5.049  12.867  0.2240  0.2570  0.3353
19601TIP3    H180294   4.208   4.997  12.788  3.0669  0.3767 -0.3714
19601TIP3    H280295   4.290   5.112  12.841  2.1407 -0.4770  3.1157
19602TIP3   OH280296   1.452   1.142   3.351  0.0091  0.0103  0.0046
19602TIP3    H180297   1.522   1.203   3.374 -0.1641 -0.2406  1.2545
19602TIP3    H280298   1.379   1.167   3.407 -0.1145 -1.2399  0.4254
19603TIP3   OH280299   3.061   2.146  12.473  0.0112  0.5063  0.7713
19603TIP3    H180300   3.063   2.227  12.422  0.1886 -0.3057 -0.5694
19603TIP3    H280301   3.057   2.175  12.564  0.9710  2.0245  0.3747
19604TIP3   OH280302   4.062   5.712   5.436  0.2566  0.3803 -0.1372
19604TIP3    H180303   4.080   5.618   5.439  0.8857  0.5000  0.0053
19604TIP3    H280304   3.974   5.718   5.400  0.6726 -0.2240 -1.3082
19605TIP3   OH280305   0.407   2.204  14.822 -0.8958 -0.2553  0.5454
19605TIP3    H180306   0.478   2.149  14.856  1.2827  2.4120  0.6873
19605TIP3    H280307   0.362   2.237  14.900 -1.0567 -0.4250  0.5250
19606TIP3   OH280308   0.465   4.399  13.572  0.9100  1.0119 -0.5622
19606TIP3    H180309   0.373   4.394  13.597  0.5790 -0.1665 -1.9042
19606TIP3    H280310   0.481   4.493  13.559 -0.0336  1.2529 -0.1055
19607TIP3   OH280311   1.316   3.841  17.167  0.2218 -0.5782  0.5261
19607TIP3    H180312   1.376   3.767  17.162  0.8390 -0.0972  0.7413
19607TIP3    H280313   1.325   3.885  17.082  0.1255 -0.5396  0.5359
19608TIP3   OH280314   0.569   6.142   2.398 -0.1643  0.1278 -0.6207
19608TIP3    H180315   0.657   6.128   2.431 -0.0443 -3.6139 -2.0968
19608TIP3    H280316   0.513   6.093   2.459 -0.9107  0.2186 -1.2209
19609TIP3   OH280317   4.876   5.112   4.152  0.5445 -0.9435 -0.3649
19609TIP3    H180318   4.926   5.072   4.082  0.0315 -0.9522 -0.7325
19609TIP3    H280319   4.810   5.165   4.108  1.1246  0.2172  0.1125
19610TIP3   OH280320   2.928   0.889   5.124 -0.5249  0.1391  0.2502
19610TIP3    H180321   2.916   0.795   5.118  2.0513 -0.2504  0.3094
19610TIP3    H280322   3.021   0.901   5.143 -0.8329  2.6906  0.5598
19611TIP3   OH280323   3.577   1.613  11.742  0.0439  0.2892  0.0942
19611TIP3    H180324   3.672   1.616  11.755 -0.1450  0.2157  1.6691
19611TIP3    H280325   3.548   1.704  11.751 -0.2301  0.0878  1.4399
19612TIP3   OH280326   2.249   5.702   2.400  0.3566  0.1030 -0.6934
19612TIP3    H180327   2.264   5.783   2.450  2.2240  0.5416 -1.8839
19612TIP3    H280328   2.167   5.719   2.353  0.5252  1.1665 -0.6367
19613TIP3   OH280329   5.537   4.175   1.421  0.6016  0.1357  0.2735
19613TIP3    H180330   5.549   4.080   1.418  1.0667  0.2275 -1.9675
19613TIP3    H280331   5.462   4.188   1.479 -0.7004 -1.7417 -0.8916
19614TIP3   OH280332   0.758   2.810   0.926 -0.1652 -0.3618  0.0613
19614TIP3    H180333   0.677   2.846   0.889  0.4173  0.1411 -0.7632
19614TIP3    H280334   0.738   2.796   1.019 -1.2305 -0.3618 -0.1579
19615TIP3   OH280335   1.429   5.016  16.878 -0.1723  0.4756 -0.2260
19615TIP3    H180336   1.473   5.077  16.820  0.3645 -0.2899 -0.6460
19615TIP3    H280337   1.495   4.950  16.899 -0.7453  0.0015  0.1644
19616TIP3   OH280338   5.565   1.390  13.713  0.1627  0.0909 -0.2798
19616TIP3    H180339   5.626   1.319  13.694  0.8824  0.0531  1.8734
19616TIP3    H280340   5.569   1.446  13.636  0.6834 -1.4169 -1.4138
19617TIP3   OH280341   4.233   3.245  13.248  0.5424 -0.0680  0.9316
19617TIP3    H180342   4.318   3.276  13.218 -0.0369 -0.0884 -0.8887
19617TIP3    H280343   4.177   3.252  13.171 -0.7144 -1.5256  1.6594
19618TIP3   OH280344   5.874   2.937   2.923  0.0720  0.4712  0.8543
19618TIP3    H180345   5.916   2.998   2.862 -0.3677 -0.3724 -0.3047
19618TIP3    H280346   5.922   2.855   2.912 -1.0152 -0.1322  0.4816
19619TIP3   OH280347   4.712   3.820  16.814 -0.3163 -0.2987  0.4779
19619TIP3    H180348   4.625   3.819  16.854 -0.6668 -0.2349 -0.2580
19619TIP3    H280349   4.724   3.910  16.784 -1.3483 -0.9370 -2.2078
19620TIP3   OH280350   5.390   6.817   3.609  0.3744 -0.3417  0.2765
19620TIP3    H180351   5.306   6.853   3.579 -0.0571 -1.1009  0.5477
19620TIP3    H280352   5.450   6.834   3.536  0.1543  0.7666  0.3297
19621TIP3   OH280353   1.956   6.670   2.894 -0.0290 -0.1453 -0.1124
19621TIP3    H180354   1.868   6.667   2.857 -1.0848  1.7715  2.0232
19621TIP3    H280355   1.947   6.720   2.975  2.9504 -0.3277  0.4567
19622TIP3   OH280356   6.055   3.720   5.066 -0.4623 -0.0803  0.0274
19622TIP3    H180357   6.141   3.688   5.039 -0.4902 -0.3728  0.2815
19622TIP3    H280358   6.066   3.743   5.158 -0.6796 -0.2018  0.0832
19623TIP3   OH280359   0.502   2.801  11.781  0.3545  0.3074  0.5668
19623TIP3    H180360   0.505   2.733  11.847  2.3440 -0.0698  0.1442
19623TIP3    H280361   0.430   2.775  11.723  0.4392 -0.8831  0.9765
19624TIP3   OH280362   4.198   6.297   1.515 -0.7365  0.1038  0.2307
19624TIP3    H180363   4.186   6.206   1.486  1.3407 -0.3294  0.5756
19624TIP3    H280364   4.156   6.300   1.601 -2.8772  0.1504 -0.7523
19625TIP3   OH280365   0.386   3.757   5.704  0.2291 -0.8820 -0.1148
19625TIP3    H180366   0.396   3.839   5.655 -0.2632 -1.9609 -2.1724
19625TIP3    H280367   0.400   3.781   5.795  1.0757  1.2993 -0.7539
19626TIP3   OH280368   6.454   1.932   2.857  0.0184 -0.0838 -0.6005
19626TIP3    H180369   6.434   1.925   2.764 -2.0794  0.4603 -0.2459
19626TIP3    H280370   6.477   2.024   2.870  0.5026 -0.2012 -0.5948
19627TIP3   OH280371   6.612   2.238   6.159 -0.8937 -0.3487  0.2006
19627TIP3    H180372   6.694   2.265   6.199 -0.6209  1.5271 -1.4751
19627TIP3    H280373   6.607   2.144   6.176  0.2673 -0.0549  2.6043
19628TIP3   OH280374   6.675   4.119   5.442  0.5742  0.3325  0.1029
19628TIP3    H180375   6.728   4.044   5.412  1.5063  1.3522 -0.9288
19628TIP3    H280376   6.711   4.142   5.527 -0.4598 -1.0679  0.9502
19629TIP3   OH280377   0.180   2.780  13.530  0.0042 -0.2442  0.1397
19629TIP3    H180378   0.201   2.796  13.622 -0.2943  0.8719  0.0331
19629TIP3    H280379   0.228   2.848  13.482 -2.1751  1.1319 -0.2629
19630TIP3   OH280380   0.930   5.684   3.334  0.3912  0.2534  0.3356
19630TIP3    H180381   1.000   5.671   3.271 -0.0911  0.5694 -0.2734
19630TIP3    H280382   0.905   5.776   3.324  0.1991  0.2625  0.8660
19631TIP3   OH280383   4.236   0.668   0.097  0.5621 -0.1189 -0.6861
19631TIP3    H180384   4.147   0.700   0.082  1.0697  1.7549 -0.0985
19631TIP3    H280385   4.262   0.629   0.014 -1.2634 -1.9949 -0.4591
19632TIP3   OH280386   4.699   2.016   4.401  0.9679  0.3631 -0.0179
19632TIP3    H180387   4.790   2.019   4.428  0.3095  1.0995  2.3125
19632TIP3    H280388   4.650   2.050   4.475 -1.0585  2.3262 -2.0825
19633TIP3   OH280389   1.470   2.654   2.557  0.3112 -0.1073  0.3150
19633TIP3    H180390   1.408   2.608   2.614  1.2568 -1.5030  0.2529
19633TIP3    H280391   1.540   2.591   2.542  1.7486  1.4149  0.3464
19634TIP3   OH280392   4.597   4.312  16.281 -0.4605 -0.2845  0.0472
19634TIP3    H180393   4.676   4.357  16.310 -0.9007  0.8313 -0.4586
19634TIP3    H280394   4.621   4.219  16.282  0.6054 -0.0148  0.6480
19635TIP3   OH280395   3.534   5.986  14.646  0.1528  0.1652  0.1960
19635TIP3    H180396   3.456   6.025  14.685  1.3755  1.1831  1.7625
19635TIP3    H280397   3.589   6.061  14.622  1.9613 -0.4838  1.9790
19636TIP3   OH280398   3.406   6.794  14.425  0.5510 -0.3913  0.1931
19636TIP3    H180399   3.400   6.700  14.438  2.6430 -0.4980  0.5803
19636TIP3    H280400   3.456   6.827  14.500  0.7832  0.8789 -0.4780
19637TIP3   OH280401   0.551   2.934  13.014  0.2773 -0.3822  0.0686
19637TIP3    H180402   0.597   3.012  12.983  1.2146  0.2795  2.8362
19637TIP3    H280403   0.495   2.908  12.940  1.1363  1.9199 -1.5069
19638TIP3   OH280404   0.184   2.927   4.596 -0.1566  0.5449 -0.6830
19638TIP3    H180405   0.155   2.998   4.538  1.7746  1.6078 -0.4327
19638TIP3    H280406   0.273   2.951   4.620 -0.2180 -0.8871  1.1704
19639TIP3   OH280407   0.936   6.595  15.006  0.2765 -0.0270  0.2197
19639TIP3    H180408   0.927   6.611  14.912 -2.1968 -0.2455  0.3541
19639TIP3    H280409   0.997   6.522  15.012  0.4200 -0.0578 -1.2352
19640TIP3   OH280410   3.376   3.279  12.420 -0.2206  0.1404 -0.0814
19640TIP3    H180411   3.451   3.336  12.404  0.2090 -0.5927 -0.7298
19640TIP3    H280412   3.409   3.210  12.477  0.0495 -1.0563 -1.6028
19641TIP3   OH280413   3.818   2.947   5.409 -0.3104 -0.3509 -0.2125
19641TIP3    H180414   3.905   2.974   5.380 -0.5441  2.2899  1.2435
19641TIP3    H280415   3.835   2.880   5.475  0.9134  1.9508  2.0202
19642TIP3   OH280416   6.354   0.032  12.450  0.1938 -0.0133  0.0003
19642TIP3    H180417   6.287  -0.036  12.438  0.6678 -0.4716 -0.0765
19642TIP3    H280418   6.309   0.114  12.429 -1.0881 -0.0081  2.3622
19643TIP3   OH280419   5.409   1.376  14.427 -0.2559 -0.1027  0.4278
19643TIP3    H180420   5.408   1.445  14.360 -0.1534 -0.5791 -0.0705
19643TIP3    H280421   5.399   1.423  14.510 -1.3168  0.4276  0.0215
19644TIP3   OH280422   4.088   1.192   0.289 -0.2269  0.0592 -0.4251
19644TIP3    H180423   4.126   1.150   0.366 -0.7037 -0.0025 -0.2192
19644TIP3    H280424   4.151   1.175   0.219  0.0685 -0.1350 -0.1152
19645TIP3   OH280425   3.204   3.453   5.752 -0.8035  0.5997 -0.5062
19645TIP3    H180426   3.296   3.479   5.743 -0.6567 -0.2922 -1.9914
19645TIP3    H280427   3.205   3.381   5.814 -0.6069  1.0636  0.0373
19646TIP3   OH280428   2.742   4.391  16.244  0.1000 -0.0535 -0.3468
19646TIP3    H180429   2.779   4.309  16.278 -1.1587 -0.9574 -1.0363
19646TIP3    H280430   2.649   4.385  16.265 -0.1348  0.8403 -1.0965
19647TIP3   OH280431   0.424   1.198  11.912  0.1884  0.3343 -0.5462
19647TIP3    H180432   0.339   1.204  11.955  1.0866 -1.9159  1.7700
19647TIP3    H280433   0.468   1.280  11.936  0.4078 -0.5523  2.4373
19648TIP3   OH280434   2.060   6.113  14.495 -0.3951 -0.1013  0.2085
19648TIP3    H180435   2.060   6.161  14.577 -0.8116 -0.0629  0.1896
19648TIP3    H280436   2.050   6.181  14.428  0.5434 -0.0713  0.0809
19649TIP3   OH280437   1.317   5.155   3.246 -0.4394 -0.3447 -0.1727
19649TIP3    H180438   1.315   5.241   3.205  0.4832 -0.0537  0.3443
19649TIP3    H280439   1.389   5.109   3.203  0.2763 -0.1813  0.7995
19650TIP3   OH280440   6.776   2.200   4.581 -0.1854  0.2998 -0.3161
19650TIP3    H180441   6.690   2.218   4.542 -0.5871  1.1056  0.8996
19650TIP3    H280442   6.830   2.176   4.506 -1.9388 -2.1958 -0.9063
19651TIP3   OH280443   1.852   4.346  12.445  0.3197  0.2568 -0.4227
19651TIP3    H180444   1.833   4.434  12.415 -1.5564 -0.5259 -1.7152
19651TIP3    H280445   1.816   4.289  12.376 -2.3437 -1.6050  2.2811
19652TIP3   OH280446   0.366   0.310   0.882  0.0200 -0.4717 -0.8770
19652TIP3    H180447   0.392   0.220   0.861  0.5520 -0.6636  0.5212
19652TIP3    H280448   0.276   0.317   0.848  0.5545 -0.9588 -2.5111
19653TIP3   OH280449   1.315   2.317  13.839 -0.5448 -0.1278  0.7001
19653TIP3    H180450   1.409   2.312  13.820 -0.0298  0.2705  2.8447
19653TIP3    H280451   1.302   2.254  13.911 -1.7176  0.4934  1.0511
19654TIP3   OH280452   0.094   6.091   2.094  0.2630 -0.4328  0.1728
19654TIP3    H180453   0.040   6.125   2.165  0.7159 -1.7695  1.1971
19654TIP3    H280454   0.182   6.124   2.114  0.0929  0.6928 -0.7992
19655TIP3   OH280455   1.122   1.072   5.472  0.1207  0.8228  0.1210
19655TIP3    H180456   1.049   1.118   5.513  0.2494  1.8740 -0.7765
19655TIP3    H280457   1.150   1.130   5.401  1.2088 -0.0038 -0.1556
19656TIP3   OH280458   5.498   2.554  16.382  0.1490 -0.3522 -0.3451
19656TIP3    H180459   5.493   2.649  16.368 -0.3623 -0.2428  0.5364
19656TIP3    H280460   5.481   2.542  16.475  1.6778 -1.2070 -0.1431
19657TIP3   OH280461   6.480   2.658  13.812  0.1668  0.4870  0.2248
19657TIP3    H180462   6.405   2.712  13.786  0.2058 -0.1427 -1.2911
19657TIP3    H280463   6.556   2.712  13.792  0.4224 -1.2095 -4.6895
19658TIP3   OH280464   5.537   5.187  10.682 -0.2491  0.6135 -0.0256
19658TIP3    H180465   5.531   5.183  10.777  0.1602 -1.0610 -0.0450
19658TIP3    H280466   5.448   5.205  10.653 -0.2999  1.5632  0.6743
19659TIP3   OH280467   4.232   2.843   5.508  0.2555 -0.5597 -0.3156
19659TIP3    H180468   4.212   2.834   5.601 -0.5486 -0.0586 -0.4342
19659TIP3    H280469   4.165   2.902   5.474  0.4680 -0.8321 -1.2417
19660TIP3   OH280470   0.893   0.773  16.000  0.4650  0.3798  0.6832
19660TIP3    H180471   0.981   0.795  16.031  1.0568  0.1114 -0.6969
19660TIP3    H280472   0.897   0.790  15.905 -0.7814 -0.2514  0.5014
19661TIP3   OH280473   6.423   2.404   4.724 -0.2150  0.0259 -0.3445
19661TIP3    H180474   6.484   2.474   4.747 -0.5205 -0.1009  0.8700
19661TIP3    H280475   6.362   2.399   4.797 -0.8813 -0.7570 -0.9312
19662TIP3   OH280476   4.027   4.017  14.892 -0.2675 -0.1361 -0.0841
19662TIP3    H180477   4.115   4.019  14.931 -0.1666  2.2075 -0.2544
19662TIP3    H280478   3.972   4.063  14.955 -0.9013  0.3243 -0.9415
19663TIP3   OH280479   3.102   6.030   6.520 -0.7365  0.6502 -0.1554
19663TIP3    H180480   3.128   5.941   6.542 -2.2398  0.1322 -0.3660
19663TIP3    H280481   3.025   6.047   6.575 -0.9019  1.5468 -0.6405
19664TIP3   OH280482   1.002   5.701  16.523 -0.1133  0.0085 -0.1106
19664TIP3    H180483   1.066   5.766  16.552 -1.0418 -0.1139  2.4445
19664TIP3    H280484   0.950   5.747  16.457  0.1802  1.3932  0.5715
19665TIP3   OH280485   4.470   3.381   2.056  0.2762 -0.5649  0.3942
19665TIP3    H180486   4.523   3.398   1.977 -0.5216  1.7899  0.2716
19665TIP3    H280487   4.384   3.358   2.022 -0.3332  1.3841  0.5028
19666TIP3   OH280488   3.857   3.771   2.631 -0.0698  0.4665 -0.7387
19666TIP3    H180489   3.813   3.733   2.707 -2.7933  1.5215 -1.7012
19666TIP3    H280490   3.915   3.837   2.668  0.7337 -0.9001  0.5642
19667TIP3   OH280491   3.689   0.184  12.405  0.5584 -0.1462 -0.2265
19667TIP3    H180492   3.630   0.158  12.476 -0.2976  0.2536 -0.7702
19667TIP3    H280493   3.654   0.267  12.374  1.6095  0.2700 -0.3584
19668TIP3   OH280494   1.335   3.667   2.495  0.3543 -0.8901 -0.3837
19668TIP3    H180495   1.327   3.718   2.414 -0.3269  1.3660  0.9835
19668TIP3    H280496   1.409   3.706   2.541 -0.6495 -0.5588  1.0475
19669TIP3   OH280497   0.376   4.150  13.387  0.3131 -0.0244  0.2151
19669TIP3    H180498   0.402   4.225  13.440 -0.0342  0.3878 -0.1997
19669TIP3    H280499   0.293   4.122  13.424 -0.5443  1.0154 -0.8593
19670TIP3   OH280500   4.102   0.122   0.242 -0.0707  0.5792 -0.0888
19670TIP3    H180501   4.134   0.165   0.163 -0.1601 -0.0845 -0.4892
19670TIP3    H280502   4.124   0.030   0.231  0.0597  0.5012  0.7329
19671TIP3   OH280503   4.144   3.460  17.000 -0.4602 -0.4489  0.7397
19671TIP3    H180504   4.084   3.446  16.927 -1.0379 -0.8854  1.2832
19671TIP3    H280505   4.110   3.404  17.070  0.3429 -0.3832  1.1967
19672TIP3   OH280506   4.344   3.043   3.832  0.3027 -0.6090  0.0753
19672TIP3    H180507   4.355   3.073   3.742  0.7915 -1.3104 -0.1101
19672TIP3    H280508   4.397   3.102   3.884 -0.2086 -0.0223 -0.0581
19673TIP3   OH280509   3.438   3.886  16.866 -0.8833  0.6102  0.0338
19673TIP3    H180510   3.519   3.854  16.828 -0.4148 -0.1736  1.5994
19673TIP3    H280511   3.414   3.821  16.932 -2.0296  1.5221  0.5721
19674TIP3   OH280512   1.522   3.720   5.938 -0.2538  0.3116  0.0318
19674TIP3    H180513   1.554   3.775   6.010 -4.5672  1.8471  1.0840
19674TIP3    H280514   1.550   3.632   5.961 -0.0267  0.9932  2.7240
19675TIP3   OH280515   1.869   3.549   5.896  0.2845  0.4689  0.4463
19675TIP3    H180516   1.857   3.621   5.835  2.7993  0.0535 -0.6428
19675TIP3    H280517   1.853   3.588   5.982 -3.8123  0.9557 -0.3175
19676TIP3   OH280518   0.987   5.234  15.382 -0.0543 -0.0269  0.2061
19676TIP3    H180519   0.943   5.283  15.313 -0.5010 -1.3834 -0.5110
19676TIP3    H280520   1.079   5.232  15.355  0.6760  3.1586  1.9094
19677TIP3   OH280521   1.884   4.409  14.286  0.4213  0.3692  0.1407
19677TIP3    H180522   1.867   4.358  14.365  1.3612 -1.3414 -0.6952
19677TIP3    H280523   1.801   4.451  14.266 -0.8926 -2.1415 -0.0158
19678TIP3   OH280524   2.141   1.976   6.492 -0.1350  0.2115  0.5554
19678TIP3    H180525   2.116   1.890   6.525  0.1080 -1.0802 -2.2940
19678TIP3    H280526   2.060   2.028   6.496 -1.2826 -1.3532 -1.0599
19679TIP3   OH280527   0.943   5.979   0.675 -0.1077 -0.1859 -0.3428
19679TIP3    H180528   0.947   5.996   0.581  0.2756 -0.5145 -0.3858
19679TIP3    H280529   0.924   6.065   0.714 -0.7634 -0.1374 -0.7520
19680TIP3   OH280530   5.417   6.549  15.776  0.5785 -0.1228 -0.1000
19680TIP3    H180531   5.360   6.616  15.814 -0.8809 -1.1817 -0.3194
19680TIP3    H280532   5.363   6.507  15.709  1.5926 -1.2353 -0.2600
19681TIP3   OH280533   1.777   4.045   6.106  0.4040 -0.1517  0.0902
19681TIP3    H180534   1.704   4.089   6.062  0.3727 -0.8812 -0.5967
19681TIP3    H280535   1.740   3.962   6.136  0.3953  0.3522  1.5938
19682TIP3   OH280536   6.703   2.959  11.704  0.4141 -0.6823 -0.6754
19682TIP3    H180537   6.776   2.961  11.642  0.8880  0.1399 -0.1120
19682TIP3    H280538   6.729   3.020  11.774  0.1514 -2.0005  0.6232
19683TIP3   OH280539   0.252   4.579   0.900  0.0617 -0.1976  0.2539
19683TIP3    H180540   0.275   4.601   0.810  0.5622 -1.4000  0.0600
19683TIP3    H280541   0.292   4.493   0.914 -1.1416 -0.6267  1.1849
19684TIP3   OH280542   4.722   5.726   2.985 -0.1593  0.4053 -0.6168
19684TIP3    H180543   4.764   5.673   2.917 -1.3831 -0.5303 -0.7009
19684TIP3    H280544   4.670   5.790   2.936 -1.0426 -0.2704 -0.5959
19685TIP3   OH280545   6.785   1.310  14.820 -0.1096  0.3820 -0.0161
19685TIP3    H180546   6.771   1.302  14.915  3.5940 -0.0062  0.6411
19685TIP3    H280547   6.867   1.358  14.812 -0.6435  0.9711 -3.1112
19686TIP3   OH280548   6.392   4.872  13.002 -0.7125 -0.3097  0.2476
19686TIP3    H180549   6.385   4.830  13.087  1.1374 -0.2533  0.4572
19686TIP3    H280550   6.387   4.966  13.021 -0.4046 -0.3008  0.2942
19687TIP3   OH280551   4.478   6.754  11.684 -0.8010 -0.4767  0.8847
19687TIP3    H180552   4.489   6.841  11.722  0.8115 -0.6149  0.8133
19687TIP3    H280553   4.539   6.752  11.610  0.9312 -2.4045  2.2444
19688TIP3   OH280554   1.559   4.720  14.486  0.0652  0.0094 -0.0374
19688TIP3    H180555   1.562   4.706  14.581 -0.4242 -0.5035 -0.0944
19688TIP3    H280556   1.515   4.805  14.476  1.3869  0.7593  0.2400
19689TIP3   OH280557   2.165   3.466   0.753  0.2734 -0.4919 -0.0702
19689TIP3    H180558   2.190   3.378   0.781  0.5451 -0.7670 -1.1037
19689TIP3    H280559   2.070   3.460   0.739  0.2555 -0.5581  0.0780
19690TIP3   OH280560   0.396   5.088  12.871  0.2680  0.1752  0.6968
19690TIP3    H180561   0.310   5.128  12.885  0.5349  0.1743  2.7060
19690TIP3    H280562   0.382   4.995  12.889  0.6523  0.1463  0.8598
19691TIP3   OH280563   3.826   6.554  15.523 -0.3745  0.1414  0.6761
19691TIP3    H180564   3.769   6.613  15.474 -3.1026 -1.6307  1.4744
19691TIP3    H280565   3.791   6.555  15.612 -1.6032 -3.6610  0.4363
19692TIP3   OH280566   1.325   1.544  17.176  0.3886  0.2120 -0.4428
19692TIP3    H180567   1.235   1.519  17.196  0.2030  0.6334 -0.7539
19692TIP3    H280568   1.359   1.576  17.260 -0.0751  1.0239 -0.5581
19693TIP3   OH280569   5.391   6.550  17.127 -0.0619  0.5606  0.0638
19693TIP3    H180570   5.388   6.601  17.208 -1.7641  2.3297 -1.0281
19693TIP3    H280571   5.458   6.594  17.074 -1.4590  1.6608 -0.8401
19694TIP3   OH280572   1.038   0.882  17.000 -0.3189  0.5295  0.0888
19694TIP3    H180573   1.089   0.951  16.958 -1.0853  0.0734 -1.6573
19694TIP3    H280574   1.088   0.802  16.985 -1.6232  0.0273 -1.9114
19695TIP3   OH280575   5.223   1.895  15.618 -0.0459 -0.5076  0.0402
19695TIP3    H180576   5.301   1.936  15.580 -0.3858 -1.0823 -1.3277
19695TIP3    H280577   5.156   1.964  15.614 -0.3126 -0.8229 -1.2242
19696TIP3   OH280578   0.366   3.619  11.803  0.1342  0.3954  0.2905
19696TIP3    H180579   0.369   3.705  11.846  0.0586  0.0107  1.0711
19696TIP3    H280580   0.407   3.634  11.718  2.1029  0.7332  1.2300
19697TIP3   OH280581   6.778   3.790   3.086  0.0855  0.4031 -0.3746
19697TIP3    H180582   6.774   3.821   2.996 -1.0645  0.7511 -0.2168
19697TIP3    H280583   6.723   3.711   3.087  0.6754 -0.0111 -0.1357
19698TIP3   OH280584   2.266   4.528   3.706  0.3069  0.0048  1.0597
19698TIP3    H180585   2.205   4.484   3.647  1.2409  1.3374 -1.0078
19698TIP3    H280586   2.211   4.591   3.753 -0.4024 -0.8426  1.3897
19699TIP3   OH280587   3.765   5.007   2.912  0.4908  0.5279 -0.5153
19699TIP3    H180588   3.701   5.008   2.841 -0.2711  2.2447  0.1598
19699TIP3    H280589   3.727   4.947   2.976  0.7169 -0.2710 -1.0995
19700TIP3   OH280590   0.962   2.154   0.113  0.2258  0.1738 -0.4248
19700TIP3    H180591   0.884   2.100   0.121  0.1346  0.5114  1.3975
19700TIP3    H280592   0.954   2.196   0.028 -0.3721 -1.6118 -1.2890
19701TIP3   OH280593   0.657   4.828   2.041 -0.2529 -0.2513  0.3009
19701TIP3    H180594   0.660   4.912   2.087 -1.3996 -0.1053  0.1464
19701TIP3    H280595   0.727   4.776   2.081 -0.8085  0.0901  1.7983
19702TIP3   OH280596   0.877   0.337   4.482 -0.3565 -0.1751  0.0804
19702TIP3    H180597   0.916   0.303   4.401 -1.8511 -0.6623 -0.4843
19702TIP3    H280598   0.931   0.301   4.552 -0.9483 -2.5454 -0.5687
19703TIP3   OH280599   4.086   2.572  13.503  0.0514 -0.0150 -0.1941
19703TIP3    H180600   4.008   2.524  13.480 -0.4664  1.4096 -1.5898
19703TIP3    H280601   4.134   2.514  13.562 -1.4751 -1.3758 -0.2362
19704TIP3   OH280602   4.901   0.606  12.580 -0.0044 -0.4155  0.1467
19704TIP3    H180603   4.921   0.642  12.666 -1.0978  1.0769 -0.1820
19704TIP3    H280604   4.980   0.622  12.528  0.5034 -0.9442  0.7378
19705TIP3   OH280605   4.552   5.209  16.270 -0.0651  0.0081  0.0194
19705TIP3    H180606   4.625   5.262  16.301 -1.4828  2.1218 -0.0878
19705TIP3    H280607   4.511   5.175  16.349  0.8770 -1.0256  0.0859
19706TIP3   OH280608   1.341   5.659   1.305 -0.0746  0.5864  0.1783
19706TIP3    H180609   1.322   5.565   1.306  1.1136  0.1675  4.8534
19706TIP3    H280610   1.429   5.666   1.267 -0.6218  0.0289 -1.2657
19707TIP3   OH280611   1.129   6.271   0.618 -0.4635 -0.3919 -0.2414
19707TIP3    H180612   1.083   6.321   0.551 -0.8257 -0.4496 -0.0349
19707TIP3    H280613   1.173   6.201   0.569 -0.4054 -0.2024 -0.4624
19708TIP3   OH280614   3.072   2.723  15.458 -0.0005 -0.5355 -0.0969
19708TIP3    H180615   2.995   2.778  15.472  0.4397  0.2385 -0.5663
19708TIP3    H280616   3.144   2.771  15.500  0.2001 -1.3432  0.5083
19709TIP3   OH280617   1.235   2.923  11.261 -0.1800  0.1542 -0.0527
19709TIP3    H180618   1.273   2.901  11.176 -0.2829 -0.3823  0.0390
19709TIP3    H280619   1.230   3.019  11.260 -0.3345  0.1478 -0.7183
19710TIP3   OH280620   1.261   3.694   6.588  0.5460 -0.3692  1.0527
19710TIP3    H180621   1.235   3.644   6.511  2.2555 -1.8789  1.3823
19710TIP3    H280622   1.182   3.744   6.612 -0.3624 -0.7463 -0.9573
19711TIP3   OH280623   6.256   3.716  14.395 -0.3267 -0.2773 -0.4117
19711TIP3    H180624   6.174   3.748  14.357 -0.6876 -0.7363 -0.0356
19711TIP3    H280625   6.307   3.685  14.320 -1.4181 -2.0515 -0.4858
19712TIP3   OH280626   2.031   6.260   4.949  0.0311 -0.2283  0.0209
19712TIP3    H180627   2.050   6.183   5.003  0.2639 -0.9632 -1.0888
19712TIP3    H280628   2.008   6.225   4.863  0.3432  0.9451 -0.5685
19713TIP3   OH280629   6.475   1.314  11.746  0.1348 -0.5042 -0.0893
19713TIP3    H180630   6.399   1.356  11.706 -0.8127 -1.4367  0.6775
19713TIP3    H280631   6.549   1.339  11.690 -0.8353 -0.1414 -1.2383
19714TIP3   OH280632   1.062   1.499  11.872  0.0901  0.0584  0.4413
19714TIP3    H180633   1.148   1.487  11.913  0.1289  0.0871  0.3686
19714TIP3    H280634   1.019   1.565  11.926  0.0342 -0.1058  0.5982
19715TIP3   OH280635   2.724   1.291  11.941  0.1565  0.1858  0.7293
19715TIP3    H180636   2.685   1.378  11.944 -0.5607 -0.1351  0.9993
19715TIP3    H280637   2.681   1.243  12.012  0.9682 -0.2165  0.9633
19716TIP3   OH280638   4.542   5.571   4.928  0.8070 -0.0812 -0.1362
19716TIP3    H180639   4.509   5.490   4.967  1.7686 -0.3761  0.0702
19716TIP3    H280640   4.618   5.545   4.876  1.7559  0.8130  0.7568
19717TIP3   OH280641   3.746   1.471   4.480 -0.2000 -0.1673 -0.7726
19717TIP3    H180642   3.692   1.420   4.540 -1.0681  0.4527 -1.0205
19717TIP3    H280643   3.694   1.477   4.400  1.0311 -1.1640 -1.6840
19718TIP3   OH280644   0.624   3.136   1.318  0.1019  0.3386 -0.5324
19718TIP3    H180645   0.615   3.078   1.394 -1.2950  2.0692  0.7035
19718TIP3    H280646   0.557   3.204   1.332  0.7292  1.4557 -2.6291
19719TIP3   OH280647   6.816   5.710   1.857  0.1652  0.4839 -0.5371
19719TIP3    H180648   6.736   5.674   1.895  0.9586 -1.5650 -0.6820
19719TIP3    H280649   6.806   5.694   1.763  0.3165  1.1489 -0.6693
19720TIP3   OH280650   0.185   1.013   4.351  0.4324  0.1390  0.4199
19720TIP3    H180651   0.271   0.986   4.384  0.9120  1.2208  0.0924
19720TIP3    H280652   0.160   1.086   4.408 -1.2779 -1.4879  1.9024
19721TIP3   OH280653   4.313   3.112  12.262 -0.1627  0.2915  0.3778
19721TIP3    H180654   4.348   3.140  12.347 -0.4324  0.7558  0.3398
19721TIP3    H280655   4.390   3.087  12.211 -0.0663 -1.0056  1.1076
19722TIP3   OH280656   4.599   4.526   5.791 -0.1879  0.3382  0.0109
19722TIP3    H180657   4.636   4.594   5.735 -0.5267  1.0084  0.5791
19722TIP3    H280658   4.653   4.529   5.870  0.3679 -0.6849 -0.3206
19723TIP3   OH280659   0.950   3.720  15.840  0.2428  0.6975 -0.3908
19723TIP3    H180660   0.961   3.682  15.753  0.8985 -1.0598  0.4135
19723TIP3    H280661   0.863   3.692  15.868  0.1949  0.9141 -0.3207
19724TIP3   OH280662   2.419   2.003  14.854  0.4921 -0.2526  0.4185
19724TIP3    H180663   2.360   2.025  14.927  0.2952  0.5302  0.0432
19724TIP3    H280664   2.391   1.916  14.826 -0.4539  0.0705  0.3025
19725TIP3   OH280665   2.111   1.142  11.364  0.1037  0.2281  0.6462
19725TIP3    H180666   2.192   1.178  11.400 -0.7325  1.4251  1.4035
19725TIP3    H280667   2.113   1.167  11.271  0.5232  0.4065  0.7021
19726TIP3   OH280668   2.222   1.674   5.819 -0.2480 -0.0655  0.0490
19726TIP3    H180669   2.214   1.651   5.912 -1.3450 -1.5757 -0.3817
19726TIP3    H280670   2.148   1.630   5.777 -1.2487  2.5990 -1.2125
19727TIP3   OH280671   3.310   1.864  16.937 -0.1443  0.2446  0.5998
19727TIP3    H180672   3.316   1.899  16.849 -0.2769 -3.9741 -1.3519
19727TIP3    H280673   3.274   1.935  16.990 -0.2310  2.8963 -2.7130
19728TIP3   OH280674   2.587   3.267  16.686 -0.2577  0.0003  0.3175
19728TIP3    H180675   2.520   3.316  16.734 -0.2921  1.3304 -1.0370
19728TIP3    H280676   2.661   3.262  16.746  0.4113  3.2856 -0.0758
19729TIP3   OH280677   4.567   6.113   3.797  0.1472 -0.5690 -0.0501
19729TIP3    H180678   4.517   6.110   3.879 -1.7907  0.7959 -1.0982
19729TIP3    H280679   4.506   6.082   3.730  0.9222  0.4522 -1.2806
19730TIP3   OH280680   1.222   0.900  16.378 -0.2303  0.0933  0.0975
19730TIP3    H180681   1.137   0.893  16.421 -1.0415  1.4795 -1.1888
19730TIP3    H280682   1.285   0.888  16.449 -1.4805 -0.4251  1.1767
19731TIP3   OH280683   5.612   1.127   5.320 -0.0030 -0.1081  0.0833
19731TIP3    H180684   5.691   1.076   5.340 -1.2624 -2.0323  0.3449
19731TIP3    H280685   5.578   1.087   5.240  0.2158  1.8824 -1.0674
19732TIP3   OH280686   3.351   2.539  14.227 -0.4336 -0.5930 -0.1169
19732TIP3    H180687   3.401   2.474  14.178  1.8792  1.3924 -0.5769
19732TIP3    H280688   3.313   2.596  14.161 -0.2184  0.0648  0.3123
19733TIP3   OH280689   3.703   1.548  13.551  0.3647 -0.1267 -0.2243
19733TIP3    H180690   3.670   1.541  13.462 -0.0355  0.1356 -0.0992
19733TIP3    H280691   3.746   1.633  13.555  0.0000  0.0488 -0.0428
19734TIP3   OH280692   0.096   5.645   5.318  0.1508  0.0595 -0.8470
19734TIP3    H180693   0.174   5.667   5.370 -0.5080  0.5104 -0.0224
19734TIP3    H280694   0.029   5.705   5.351 -0.4903 -0.1852 -1.6953
19735TIP3   OH280695   2.075   2.386   2.393  0.4621  0.0773  0.0829
19735TIP3    H180696   2.026   2.467   2.386  1.2528  0.5190 -0.4764
19735TIP3    H280697   2.083   2.355   2.303  0.9906 -0.1179  0.1950
19736TIP3   OH280698   0.580   6.684   1.626 -0.0075 -0.2157 -0.3342
19736TIP3    H180699   0.629   6.745   1.681 -1.4189  0.7713 -0.1248
19736TIP3    H280700   0.632   6.678   1.546  0.4034  0.9142 -0.1779
19737TIP3   OH280701   3.681   4.118  14.445  0.0418  0.0841  0.1426
19737TIP3    H180702   3.731   4.173  14.384 -0.7965 -1.3110 -1.9315
19737TIP3    H280703   3.663   4.175  14.520  2.5172  1.3932 -0.1408
19738TIP3   OH280704   2.399   6.027   2.794 -0.0199 -0.1020 -0.0765
19738TIP3    H180705   2.493   6.044   2.793 -0.0844  0.2567 -0.3516
19738TIP3    H280706   2.386   5.967   2.867  0.5058 -0.6190 -0.3969
19739TIP3   OH280707   1.644   0.463   0.231 -0.8805 -0.2969 -0.6197
19739TIP3    H180708   1.698   0.451   0.310 -2.3960  1.6541  0.8041
19739TIP3    H280709   1.581   0.391   0.235 -2.6741  1.2322  1.5664
19740TIP3   OH280710   3.641   2.491   5.297  0.4069  0.0398 -0.1066
19740TIP3    H180711   3.618   2.406   5.335 -0.4966 -0.2996 -1.3621
19740TIP3    H280712   3.737   2.493   5.298  0.4498 -1.2338 -0.5552
19741TIP3   OH280713   3.788   2.667  15.534  0.5538 -0.1831 -0.0502
19741TIP3    H180714   3.714   2.723  15.509  0.9131 -0.2645 -1.3696
19741TIP3    H280715   3.789   2.670  15.630 -0.5441  0.6134 -0.0444
19742TIP3   OH280716   6.375   5.015   5.782 -0.1030  0.0830 -0.1820
19742TIP3    H180717   6.378   4.927   5.819 -0.4842  0.3339  0.4529
19742TIP3    H280718   6.418   5.006   5.697 -0.2684 -0.7429 -0.1883
19743TIP3   OH280719   4.874   0.939  15.953  0.6891 -0.1998  0.3740
19743TIP3    H180720   4.894   0.942  16.047  0.1804 -0.2111  0.4828
19743TIP3    H280721   4.922   0.862  15.922  2.5916  0.9802  0.2081
19744TIP3   OH280722   2.779   4.221   5.006 -0.6884  0.6008 -0.0240
19744TIP3    H180723   2.818   4.308   5.010 -1.5140  0.9683  0.1325
19744TIP3    H280724   2.722   4.217   5.083  1.0470 -0.9255  1.2914
19745TIP3   OH280725   1.716   2.153   3.981  0.0991 -0.0888  0.1967
19745TIP3    H180726   1.641   2.097   4.001 -0.2406  1.1254  2.8164
19745TIP3    H280727   1.772   2.101   3.924 -1.6616 -1.8683  0.0120
19746TIP3   OH280728   1.119   5.622  14.973  0.2916 -0.5437 -0.0448
19746TIP3    H180729   1.204   5.652  14.939  0.3056  0.2900  0.6653
19746TIP3    H280730   1.137   5.536  15.011  0.6460 -0.7081 -0.5754
19747TIP3   OH280731   0.782   0.518   0.785  0.1792 -0.4442 -0.4745
19747TIP3    H180732   0.830   0.448   0.829  1.7127  0.7247 -0.2046
19747TIP3    H280733   0.711   0.473   0.739  0.8885 -2.1213 -0.0136
19748TIP3   OH280734   3.375   0.191   1.409  0.4336  0.0168 -0.4721
19748TIP3    H180735   3.464   0.226   1.405  0.3624  0.7146  2.0603
19748TIP3    H280736   3.374   0.140   1.490 -1.1941 -0.8481 -1.0084
19749TIP3   OH280737   6.780   2.052  13.832  0.1195  0.1565  0.4882
19749TIP3    H180738   6.715   2.022  13.895  0.5643  0.1146  0.9251
19749TIP3    H280739   6.760   2.145  13.820  0.4706  0.3327  1.2246
19750TIP3   OH280740   5.198   4.632  15.183 -0.3959  0.0107 -0.1049
19750TIP3    H180741   5.124   4.589  15.227 -1.8267  0.8938 -1.5498
19750TIP3    H280742   5.238   4.686  15.251 -0.6775 -0.9617  0.8657
19751TIP3   OH280743   3.426   6.794  16.847 -0.4972 -0.4229 -0.2030
19751TIP3    H180744   3.358   6.861  16.855  0.8288  0.9775 -0.0875
19751TIP3    H280745   3.413   6.756  16.761 -1.1748  0.1094 -0.3453
19752TIP3   OH280746   0.814   5.116   3.506 -0.3796  0.0819  0.2454
19752TIP3    H180747   0.907   5.101   3.522 -0.1335  1.7339  0.5123
19752TIP3    H280748   0.786   5.039   3.457  1.3351 -0.0678 -0.5894
19753TIP3   OH280749   0.983   0.009  17.074 -0.2206 -0.4210  0.2617
19753TIP3    H180750   1.000  -0.080  17.107  0.3696  0.6613  3.1465
19753TIP3    H280751   0.911   0.041  17.128  1.0116  1.6086  0.8054
19754TIP3   OH280752   3.040   6.188   4.007  0.3376 -0.4609 -0.3941
19754TIP3    H180753   2.948   6.173   4.032  0.5149  0.7138  1.1077
19754TIP3    H280754   3.088   6.118   4.051  0.4268  0.4821  1.0869
19755TIP3   OH280755   6.771   5.373   3.177  0.1337 -0.1533  0.6260
19755TIP3    H180756   6.859   5.336   3.186  1.0404  1.6765 -0.1103
19755TIP3    H280757   6.733   5.366   3.264  0.3445 -2.4259  0.6120
19756TIP3   OH280758   0.754   1.486  15.021  0.0487 -0.0377 -0.0476
19756TIP3    H180759   0.824   1.434  15.061 -0.2104 -1.8040 -1.7462
19756TIP3    H280760   0.797   1.534  14.950  0.0640  1.2149  0.7846
19757TIP3   OH280761   4.568   4.109  13.107 -0.4673 -0.0324  0.0148
19757TIP3    H180762   4.568   4.117  13.011 -1.8753  0.6686  0.0563
19757TIP3    H280763   4.528   4.024  13.124  0.2090 -0.3679 -0.0086
19758TIP3   OH280764   3.943   4.612   0.961 -0.4544  0.0164  0.0044
19758TIP3    H180765   3.955   4.673   1.033 -1.5619  0.3718 -0.0974
19758TIP3    H280766   4.002   4.539   0.981  2.0976  1.7516 -0.6528
19759TIP3   OH280767   5.028   0.462  16.364 -0.4789  0.7157 -0.0607
19759TIP3    H180768   5.010   0.371  16.338 -1.4222  1.3708 -1.8950
19759TIP3    H280769   4.950   0.489  16.412 -0.0028  0.4413  0.8954
19760TIP3   OH280770   5.139   5.829  16.724  0.5023 -0.2163 -0.0830
19760TIP3    H180771   5.147   5.919  16.757 -0.0569 -0.3171  0.3389
19760TIP3    H280772   5.051   5.802  16.750  1.2634 -1.4725  1.2632
19761TIP3   OH280773   4.840   1.027   2.008  0.4296  0.0026 -0.0786
19761TIP3    H180774   4.853   0.968   2.083  0.2026 -0.1724 -0.1730
19761TIP3    H280775   4.888   1.106   2.031 -0.4277  0.3166  0.6821
19762TIP3   OH280776   5.979   2.334  13.625 -0.1008 -0.3768  0.4944
19762TIP3    H180777   5.901   2.285  13.651 -1.2002  0.0720 -1.7047
19762TIP3    H280778   6.047   2.268  13.618 -0.7188 -1.0646  0.8024
19763TIP3   OH280779   3.362   2.446   1.354  0.0424 -0.2974 -0.1928
19763TIP3    H180780   3.370   2.392   1.276 -0.0334 -0.6724  0.0582
19763TIP3    H280781   3.273   2.430   1.386  0.5052 -1.1631  0.7100
19764TIP3   OH280782   6.683   6.571   0.757 -0.1116 -0.5372  0.6642
19764TIP3    H180783   6.747   6.625   0.711  0.9710 -2.1572  0.1890
19764TIP3    H280784   6.698   6.588   0.850  2.5732 -2.4664  0.6950
19765TIP3   OH280785   3.855   4.743  12.152 -0.4397  0.5172  0.2094
19765TIP3    H180786   3.810   4.824  12.173  1.0995  1.7171 -0.8760
19765TIP3    H280787   3.830   4.724  12.062  0.1469  0.4738  0.0476
19766TIP3   OH280788   0.489   6.484   1.984 -0.1895 -1.1107 -1.0395
19766TIP3    H180789   0.405   6.528   2.001 -0.1831 -1.4561 -0.0855
19766TIP3    H280790   0.491   6.411   2.046  0.7301 -1.2221 -1.1907
19767TIP3   OH280791   1.518   2.664  14.885 -0.1735  0.0230  0.1925
19767TIP3    H180792   1.607   2.681  14.914 -0.8260  0.0701  2.3029
19767TIP3    H280793   1.462   2.713  14.945 -1.6155  1.7947 -2.4002
19768TIP3   OH280794   2.724   6.686  14.196 -0.4963  0.0366 -0.5777
19768TIP3    H180795   2.660   6.637  14.248  0.7274 -0.5880  0.3829
19768TIP3    H280796   2.702   6.778  14.213 -1.3049 -0.1603 -0.4811
19769TIP3   OH280797   5.617   1.812  11.688  0.0976 -0.1059 -0.7391
19769TIP3    H180798   5.647   1.790  11.776  0.9086  1.6071 -0.5372
19769TIP3    H280799   5.610   1.908  11.689 -2.3528 -0.2002 -1.7653
19770TIP3   OH280800   2.059   2.606  17.095  0.3829  0.0911  0.1181
19770TIP3    H180801   2.003   2.529  17.098  0.7325 -0.1573  2.2973
19770TIP3    H280802   2.001   2.677  17.067 -0.8027 -0.3643  1.2886
19771TIP3   OH280803   1.818   5.490  15.211  0.2525 -0.0816  0.5600
19771TIP3    H180804   1.740   5.538  15.236  0.7100  0.6155  0.6789
19771TIP3    H280805   1.806   5.403  15.248 -1.1228 -0.4388 -0.6613
19772TIP3   OH280806   1.443   2.867  15.080  0.0168 -0.5868 -0.2074
19772TIP3    H180807   1.419   2.910  14.998  1.5378  0.4856 -0.1427
19772TIP3    H280808   1.386   2.907  15.146  0.0178 -0.1309 -0.4788
19773TIP3   OH280809   1.926   2.613   4.760 -0.9188 -0.0713 -0.2118
19773TIP3    H180810   1.912   2.708   4.770 -1.8624  0.0330 -2.0990
19773TIP3    H280811   1.917   2.597   4.666  0.6151 -1.8542 -0.1132
19774TIP3   OH280812   0.028   2.506   2.700  0.4697  0.5018  0.2957
19774TIP3    H180813  -0.060   2.519   2.664  0.5958  1.7287  0.3955
19774TIP3    H280814   0.021   2.427   2.753 -0.1172 -0.4533 -1.1501
19775TIP3   OH280815   3.115   3.479   3.302 -0.5262 -0.0147  0.2886
19775TIP3    H180816   3.173   3.403   3.312 -0.7302 -0.0855  0.9822
19775TIP3    H280817   3.172   3.554   3.315 -0.6804 -0.0937  1.5774
19776TIP3   OH280818   2.180   0.235   4.467 -0.2784 -0.4284 -0.0779
19776TIP3    H180819   2.264   0.198   4.496 -0.1835  0.0943  0.3236
19776TIP3    H280820   2.204   0.298   4.399 -0.3596 -0.4241 -0.1025
19777TIP3   OH280821   5.221   0.927  13.575 -0.2172  0.7470 -0.3065
19777TIP3    H180822   5.192   1.007  13.619  0.6697 -0.3598  2.5095
19777TIP3    H280823   5.313   0.943  13.555  0.3478  0.0597  1.4746
19778TIP3   OH280824   3.232   3.902  15.497  0.1753  0.2726  0.3239
19778TIP3    H180825   3.298   3.864  15.438  1.3652  0.6367  1.3739
19778TIP3    H280826   3.185   3.965  15.443  0.6176 -0.0676 -0.4768
19779TIP3   OH280827   1.932   3.378  11.735  0.0385  0.9096  0.5627
19779TIP3    H180828   1.849   3.372  11.687  0.4470 -0.6601  0.0139
19779TIP3    H280829   1.924   3.313  11.805  1.1585  0.0879 -0.0556
19780TIP3   OH280830   1.700   6.528   5.886 -0.4233  0.3646  0.1100
19780TIP3    H180831   1.694   6.502   5.794  0.5243  1.6290 -0.3265
19780TIP3    H280832   1.781   6.486   5.918 -0.0956  0.9296  0.0254
19781TIP3   OH280833   3.109   3.991  17.203 -0.3991 -0.5425  0.4270
19781TIP3    H180834   3.202   3.974  17.191  0.0702  1.4250  0.9402
19781TIP3    H280835   3.095   4.079  17.169 -2.2702 -1.1156 -0.4446
19782TIP3   OH280836   3.233   4.906   0.295  0.6755 -0.0657 -0.5117
19782TIP3    H180837   3.245   4.877   0.386  0.2056 -0.9952 -0.7356
19782TIP3    H280838   3.168   4.975   0.300 -0.6010 -1.2517 -0.3152
19783TIP3   OH280839   0.947   3.794  14.490 -0.4465 -0.4161  0.4693
19783TIP3    H180840   0.907   3.713  14.458 -0.8200 -0.6487  1.4964
19783TIP3    H280841   1.001   3.766  14.564 -2.1791  0.4940  2.1603
19784TIP3   OH280842   3.510   4.570  11.788 -0.0916 -0.1692  0.3482
19784TIP3    H180843   3.457   4.553  11.710 -0.1212 -0.2989  0.3959
19784TIP3    H280844   3.515   4.666  11.793 -0.7233 -0.1429  0.6084
19785TIP3   OH280845   1.562   5.717  16.748 -0.0949 -0.3744  0.2344
19785TIP3    H180846   1.503   5.699  16.674 -0.8146 -3.1093  1.3744
19785TIP3    H280847   1.645   5.677  16.723 -0.1414 -0.7093  0.6099
19786TIP3   OH280848   2.459   6.269  16.610 -0.4615 -0.1586  0.0875
19786TIP3    H180849   2.473   6.357  16.574 -0.9235 -0.4103 -0.7435
19786TIP3    H280850   2.459   6.282  16.705 -2.6773  1.1376  0.0054
19787TIP3   OH280851   0.748   1.680  16.206  0.2535  0.6174  0.4045
19787TIP3    H180852   0.688   1.695  16.133  0.6763  0.5885  0.0489
19787TIP3    H280853   0.830   1.720  16.178  0.7376 -0.3517  0.3990
19788TIP3   OH280854   2.162   1.991   4.651 -0.4793  0.2557 -0.2006
19788TIP3    H180855   2.234   1.991   4.714 -0.1125 -0.1322 -0.6138
19788TIP3    H280856   2.135   2.083   4.646 -1.5160  0.0899  1.6326
19789TIP3   OH280857   0.494   1.857   2.054 -0.0506 -0.5236 -0.6042
19789TIP3    H180858   0.578   1.864   2.100 -0.3005 -1.1811 -0.0299
19789TIP3    H280859   0.518   1.856   1.961  0.4971  0.3269 -0.4817
19790TIP3   OH280860   5.952   5.040   6.177  0.7191  0.0676 -0.5155
19790TIP3    H180861   5.897   5.113   6.147 -0.0853  0.2518  1.2777
19790TIP3    H280862   5.892   4.983   6.225  2.1402  0.7366  2.3165
19791TIP3   OH280863   3.383   2.928  13.412 -0.5364 -0.0015 -0.5078
19791TIP3    H180864   3.339   2.845  13.431 -0.4506  0.1976  0.5974
19791TIP3    H280865   3.474   2.915  13.438 -0.8185  0.8779  1.0318
19792TIP3   OH280866   1.864   3.459  12.465 -0.2031 -0.2019  0.1355
19792TIP3    H180867   1.853   3.507  12.546  0.4689 -0.0842  0.1632
19792TIP3    H280868   1.890   3.525  12.401 -1.1972 -0.2115 -0.2986
19793TIP3   OH280869   4.136   2.556   0.644  0.1534 -0.1046  0.0618
19793TIP3    H180870   4.075   2.551   0.571  0.4918  0.2229 -0.2499
19793TIP3    H280871   4.094   2.507   0.714  0.1711 -1.0898 -0.5974
19794TIP3   OH280872   3.177   0.198  10.772  0.5387  0.4168  0.4620
19794TIP3    H180873   3.106   0.134  10.767 -0.4243  1.5132 -0.5592
19794TIP3    H280874   3.242   0.158  10.831  0.0991 -1.5879 -0.3407
19795TIP3   OH280875   0.299   6.183   3.637  0.4303 -0.2545  0.4982
19795TIP3    H180876   0.208   6.208   3.619 -0.0066 -2.3533 -0.5441
19795TIP3    H280877   0.297   6.149   3.726  0.0668 -0.8129  0.2804
19796TIP3   OH280878   3.206   0.289  10.438 -0.2174 -0.7389  0.3508
19796TIP3    H180879   3.224   0.378  10.407 -0.2280 -0.8411  0.0496
19796TIP3    H280880   3.117   0.294  10.474 -0.9262 -1.0282 -1.2651
19797TIP3   OH280881   0.236   6.516   5.497 -0.3402 -0.1130 -0.5216
19797TIP3    H180882   0.176   6.584   5.529  1.9364  1.8879 -0.2106
19797TIP3    H280883   0.227   6.445   5.560 -1.2741  0.7493  0.3659
19798TIP3   OH280884   1.146   6.265  13.592  0.7244  0.0719  0.3328
19798TIP3    H180885   1.238   6.240  13.583  0.4738 -0.5619 -0.4621
19798TIP3    H280886   1.115   6.278  13.503  0.4311  1.7615  0.6432
19799TIP3   OH280887   6.321   6.447   3.845 -0.1537 -0.4746 -0.1051
19799TIP3    H180888   6.405   6.447   3.801  0.7430  0.2154  1.5286
19799TIP3    H280889   6.257   6.466   3.776  1.2804  1.6859 -0.9168
19800TIP3   OH280890   1.054   4.831   4.188 -0.2339 -0.3912  0.1564
19800TIP3    H180891   1.132   4.776   4.194 -0.9995 -1.3404  3.0288
19800TIP3    H280892   0.984   4.771   4.161 -0.3663 -0.0047 -0.3637
19801TIP3   OH280893   6.451   6.443   4.580 -0.4951 -0.5701 -0.1053
19801TIP3    H180894   6.491   6.517   4.624  1.2181 -1.3472 -0.2963
19801TIP3    H280895   6.405   6.395   4.649 -0.2462 -0.2194  0.3035
19802TIP3   OH280896   5.222   3.919  16.527  0.2867 -0.9603 -0.6043
19802TIP3    H180897   5.257   4.005  16.550 -3.1341  0.5982 -0.6025
19802TIP3    H280898   5.210   3.874  16.610 -1.2513  0.0655 -0.2312
19803TIP3   OH280899   2.149   5.362  12.831 -0.0141 -0.2165  0.2695
19803TIP3    H180900   2.163   5.410  12.750 -3.0899 -1.9264 -1.4657
19803TIP3    H280901   2.228   5.308  12.841 -0.0118 -0.7999 -2.2442
19804TIP3   OH280902   2.799   2.599  15.171  0.6193  0.4773 -0.4518
19804TIP3    H180903   2.805   2.694  15.181 -0.6098  0.5661 -0.3585
19804TIP3    H280904   2.855   2.579  15.095  1.4420  1.1741 -0.0396
19805TIP3   OH280905   2.672   2.884  14.460  0.2512  0.4612 -0.4286
19805TIP3    H180906   2.720   2.963  14.484 -0.2289  0.8490 -0.7235
19805TIP3    H280907   2.691   2.822  14.531  1.3013  0.5451 -0.6099
19806TIP3   OH280908   2.190   1.022   2.070  0.6403  0.3082 -0.0796
19806TIP3    H180909   2.266   1.078   2.087  2.0971 -1.5309 -0.1516
19806TIP3    H280910   2.222   0.958   2.006 -0.9479 -0.5974 -0.0160
19807TIP3   OH280911   1.930   3.570   2.304 -0.2717 -0.5531  0.1307
19807TIP3    H180912   1.883   3.566   2.387  0.4738  2.5697  0.8394
19807TIP3    H280913   2.023   3.575   2.329 -0.1230  3.4649 -0.5355
19808TIP3   OH280914   3.617   2.569  15.074 -0.4429 -0.2559 -0.3029
19808TIP3    H180915   3.552   2.609  15.131  1.1504  1.6056  0.3229
19808TIP3    H280916   3.651   2.495  15.124 -0.4427  0.1840  0.3623
19809TIP3   OH280917   0.501   4.907  16.354 -0.3791 -0.0696 -0.0539
19809TIP3    H180918   0.499   4.929  16.261 -1.0664 -0.2704 -0.0910
19809TIP3    H280919   0.592   4.923  16.380  0.3112 -1.8586 -1.1920
19810TIP3   OH280920   5.221   0.520  15.243  0.0071 -0.1805 -0.0208
19810TIP3    H180921   5.281   0.593  15.230 -1.0990  1.3887  2.7073
19810TIP3    H280922   5.276   0.447  15.272  0.9437  0.0649 -1.1353
19811TIP3   OH280923   0.109   5.291   1.019 -0.3499  0.4153 -0.6854
19811TIP3    H180924   0.164   5.241   1.079  2.8701  2.6731 -1.4531
19811TIP3    H280925   0.100   5.235   0.942  0.0015 -0.4282 -0.1244
19812TIP3   OH280926   6.163   1.664  15.546  0.2248  0.3142 -0.3348
19812TIP3    H180927   6.073   1.686  15.570  0.1840 -0.5505  0.3335
19812TIP3    H280928   6.210   1.747  15.552 -0.0571  0.3741  1.4690
19813TIP3   OH280929   1.457   4.700   6.335  0.5621  0.5364 -0.0703
19813TIP3    H180930   1.462   4.763   6.407 -0.1667  0.5213 -0.0005
19813TIP3    H280931   1.523   4.634   6.356  1.0570  1.0712  0.0581
19814TIP3   OH280932   4.864   1.694  14.341  0.0092  0.6153  0.0189
19814TIP3    H180933   4.926   1.674  14.412  1.8276 -3.5103 -2.3392
19814TIP3    H280934   4.917   1.739  14.275 -1.1715  2.6455  0.3887
19815TIP3   OH280935   6.239   0.315  12.499  0.4168 -0.2587 -0.3580
19815TIP3    H180936   6.248   0.408  12.480  2.0179 -0.6416 -1.6448
19815TIP3    H280937   6.208   0.312  12.590 -1.4926  1.5326 -0.8591
19816TIP3   OH280938   0.737   2.808   0.518 -0.5153 -0.5156  0.0943
19816TIP3    H180939   0.798   2.848   0.456 -1.0472 -0.6435 -0.5201
19816TIP3    H280940   0.652   2.843   0.493 -0.8072 -1.0016  0.4038
19817TIP3   OH280941   5.833   5.707   0.575  0.3221  0.7405  0.4874
19817TIP3    H180942   5.811   5.794   0.609  0.8624  1.3400 -0.6580
19817TIP3    H280943   5.897   5.724   0.506  1.8114 -0.7010  1.4317
19818TIP3   OH280944   0.194   1.443   3.165 -0.0744 -0.6873 -0.3647
19818TIP3    H180945   0.270   1.385   3.162  0.8382  0.4673 -0.4928
19818TIP3    H280946   0.150   1.428   3.081  0.3836 -0.8897 -0.5763
19819TIP3   OH280947   4.944   6.792   5.326 -0.3388 -0.0462 -0.0828
19819TIP3    H180948   4.961   6.871   5.275 -2.2059  0.9453  0.7135
19819TIP3    H280949   4.908   6.730   5.263  0.8154 -0.1833 -0.6442
19820TIP3   OH280950   0.898   2.534  11.958 -0.0556 -0.5203  0.5331
19820TIP3    H180951   0.864   2.530  11.869  0.8653  1.9648 -0.0199
19820TIP3    H280952   0.840   2.596  12.003 -0.8659 -2.1703  1.8879
19821TIP3   OH280953   2.588   5.889   3.691  0.0732  0.2379 -0.1106
19821TIP3    H180954   2.613   5.807   3.734 -0.0926 -0.9974 -2.2131
19821TIP3    H280955   2.499   5.906   3.723  0.8711  0.7939  1.9523
19822TIP3   OH280956   2.796   3.679  12.670  0.9616 -0.2352 -0.1130
19822TIP3    H180957   2.733   3.718  12.732  1.3291 -0.4151  0.3775
19822TIP3    H280958   2.744   3.614  12.623  0.9549 -0.9440  0.8390
19823TIP3   OH280959   2.505   4.724   1.513 -0.4412  0.0452 -0.1083
19823TIP3    H180960   2.561   4.710   1.590  0.9074 -0.2982 -1.0956
19823TIP3    H280961   2.563   4.765   1.449 -0.6764 -2.3049 -1.9463
19824TIP3   OH280962   4.879   3.907   5.606 -0.0800  0.0155  0.3109
19824TIP3    H180963   4.928   3.964   5.546 -0.2196 -0.6082 -0.4067
19824TIP3    H280964   4.788   3.917   5.579 -0.1659 -0.1321  0.5460
19825TIP3   OH280965   4.602   4.081   3.922  0.0366 -0.1741 -0.0907
19825TIP3    H180966   4.653   4.011   3.881  2.1329  2.0288 -1.5251
19825TIP3    H280967   4.667   4.139   3.960 -1.7121  0.0921  2.7832
19826TIP3   OH280968   6.757   5.567   6.209 -0.1757  0.0568  0.1277
19826TIP3    H180969   6.825   5.516   6.165 -0.4517  0.0153 -0.2503
19826TIP3    H280970   6.795   5.590   6.294  0.0147 -0.6470  0.2368
19827TIP3   OH280971   6.654   4.615   4.203 -0.5620 -0.6000 -0.0309
19827TIP3    H180972   6.607   4.694   4.228  0.0047 -0.5480  0.8998
19827TIP3    H280973   6.740   4.646   4.175 -0.9629 -0.7192 -1.4986
19828TIP3   OH280974   3.748   2.588  16.034 -0.5463 -0.1462 -0.2505
19828TIP3    H180975   3.755   2.664  15.977  1.1663 -0.0513  0.0149
19828TIP3    H280976   3.831   2.587  16.083  0.6503 -3.5560 -1.9855
19829TIP3   OH280977   4.188   4.023   2.419  0.2958  0.0320  0.4065
19829TIP3    H180978   4.259   4.085   2.400 -0.2219  0.1358 -1.3943
19829TIP3    H280979   4.120   4.077   2.459  0.9838  0.0367  1.6200
19830TIP3   OH280980   4.433   2.252  13.864 -0.2457 -0.5148  0.0576
19830TIP3    H180981   4.397   2.164  13.872  0.0103 -0.6177  0.0836
19830TIP3    H280982   4.505   2.255  13.928 -0.4147 -0.2058  0.2349
19831TIP3   OH280983   5.522   5.062   0.245  0.1368  0.1901 -0.1259
19831TIP3    H180984   5.593   5.048   0.183 -0.7198 -1.7021 -0.7410
19831TIP3    H280985   5.452   5.004   0.216 -0.4676 -0.4765  2.3517
19832TIP3   OH280986   5.847   3.985  13.932 -0.5519  0.2200 -0.1787
19832TIP3    H180987   5.768   3.932  13.920 -1.3072  0.9784  1.1394
19832TIP3    H280988   5.814   4.070  13.962  0.7850  0.3344  1.0538
19833TIP3   OH280989   5.330   5.989  16.090  0.3356 -0.9172 -0.3557
19833TIP3    H180990   5.340   6.049  16.165 -2.1097 -0.6208 -0.2024
19833TIP3    H280991   5.395   6.020  16.027 -2.2057  3.5742 -1.2498
19834TIP3   OH280992   1.548   4.689  12.220 -0.1049 -0.2405 -0.0555
19834TIP3    H180993   1.454   4.672  12.222 -0.1218 -0.6161 -1.8730
19834TIP3    H280994   1.555   4.783  12.204 -0.3171 -0.6411 -3.2128
19835TIP3   OH280995   1.091   1.673   3.359  0.0590 -0.0779  0.2730
19835TIP3    H180996   1.121   1.696   3.271  0.2396 -0.6602  0.1811
19835TIP3    H280997   1.156   1.611   3.392 -0.3184 -0.3095  0.5944
19836TIP3   OH280998   3.505   3.461   1.725 -0.8253  0.1848  0.2187
19836TIP3    H180999   3.587   3.414   1.742 -0.9250 -2.6804 -5.0063
19836TIP3    H281000   3.533   3.546   1.690 -0.0850 -0.2306 -0.2300
19837TIP3   OH281001   5.750   3.326  15.613  0.3683 -0.2848  0.2247
19837TIP3    H181002   5.661   3.294  15.622 -0.1349  0.6831 -0.9490
19837TIP3    H281003   5.797   3.287  15.687 -1.2896  0.1402  1.5807
19838TIP3   OH281004   3.604   6.263   5.461 -0.0200  0.4053 -0.1957
19838TIP3    H181005   3.660   6.340   5.454 -0.0050  0.3049 -1.4888
19838TIP3    H281006   3.660   6.195   5.497  0.5458  0.4625 -0.9476
19839TIP3   OH281007   4.518   1.676   4.884  0.0887  0.0738 -0.0871
19839TIP3    H181008   4.486   1.657   4.796 -2.9460  0.8507  0.7446
19839TIP3    H281009   4.515   1.592   4.930 -0.6793  0.1101 -0.0628
19840TIP3   OH281010   6.278   2.821   0.876 -0.2221  0.0858  0.2322
19840TIP3    H181011   6.299   2.913   0.889 -1.3816  0.3715  0.1684
19840TIP3    H281012   6.310   2.801   0.788 -1.3798  0.8676 -0.3868
19841TIP3   OH281013   2.361   5.438  13.186  0.0873  0.8336  0.0926
19841TIP3    H181014   2.432   5.398  13.136  0.6766  0.4402  1.2034
19841TIP3    H281015   2.354   5.527  13.151  0.5603  0.6034 -0.6050
19842TIP3   OH281016   5.601   5.400  15.634 -0.0811  0.3305  0.1866
19842TIP3    H181017   5.666   5.381  15.701 -0.6820  1.0852  1.0092
19842TIP3    H281018   5.521   5.420  15.683 -1.0272 -0.8500 -0.8076
19843TIP3   OH281019   6.526   5.136  14.177  0.1612 -0.6218 -0.2799
19843TIP3    H181020   6.459   5.181  14.127 -0.8602 -1.1988  0.5215
19843TIP3    H281021   6.480   5.063  14.219  1.3362 -1.1761  0.1033
19844TIP3   OH281022   6.686   1.209  12.209  0.0533 -0.2361 -0.1660
19844TIP3    H181023   6.681   1.113  12.209 -5.2043 -0.2220 -0.7757
19844TIP3    H281024   6.648   1.235  12.126  3.0101  2.5854 -0.8415
19845TIP3   OH281025   1.504   2.344  12.761  0.8721 -0.2637  0.0336
19845TIP3    H181026   1.471   2.262  12.725 -1.1910  1.2446 -1.8147
19845TIP3    H281027   1.433   2.376  12.816  1.5962  0.3508  0.6252
19846TIP3   OH281028   1.362   0.722   3.452  0.2723  0.1214  0.1602
19846TIP3    H181029   1.430   0.789   3.447 -0.1066  0.6352  1.4915
19846TIP3    H281030   1.409   0.639   3.443  1.1562  0.4428  1.5569
19847TIP3   OH281031   0.439   3.536   0.577 -0.1647 -0.4758  0.3207
19847TIP3    H181032   0.455   3.631   0.580  1.5032 -0.7541  1.4202
19847TIP3    H281033   0.386   3.524   0.498 -1.3197  1.4782  0.7145
19848TIP3   OH281034   6.564   2.113   5.898 -0.5161  0.1093  0.0591
19848TIP3    H181035   6.613   2.165   5.962 -0.3904  0.5701 -0.4033
19848TIP3    H281036   6.497   2.173   5.865 -0.6380 -0.1544 -0.1725
19849TIP3   OH281037   1.828   3.829  14.539  0.4795 -0.2076 -0.3617
19849TIP3    H181038   1.905   3.834  14.483 -0.7099 -0.8136 -2.1146
19849TIP3    H281039   1.795   3.740  14.528  0.3874 -0.4734  1.6025
19850TIP3   OH281040   3.708   1.600  12.303  0.0528  0.0018 -0.5830
19850TIP3    H181041   3.779   1.659  12.280 -1.0410  0.4096 -3.3167
19850TIP3    H281042   3.633   1.658  12.319  0.4540 -0.3292  3.4204
19851TIP3   OH281043   4.720   0.151   0.289  0.6774 -0.2125 -0.1875
19851TIP3    H181044   4.635   0.128   0.328  1.1213 -1.0369  0.3317
19851TIP3    H281045   4.699   0.217   0.224 -0.4363 -0.7417 -0.4026
19852TIP3   OH281046   6.809   3.960  15.316 -0.4303  0.1385 -0.4199
19852TIP3    H181047   6.796   3.892  15.250  3.5185  0.6363 -1.9964
19852TIP3    H281048   6.743   4.027  15.296 -1.1009 -0.9752 -2.0689
19853TIP3   OH281049   1.810   5.055   5.427 -0.2674 -0.1169 -0.1222
19853TIP3    H181050   1.727   5.014   5.451 -1.1870  2.2359  0.9556
19853TIP3    H281051   1.873   5.019   5.490 -0.6620 -1.1249 -0.2862
19854TIP3   OH281052   5.461   1.561   1.574  0.0065  0.0701 -0.1872
19854TIP3    H181053   5.492   1.567   1.664 -1.2804  1.3516  0.2263
19854TIP3    H281054   5.366   1.577   1.581 -0.3604 -1.2528 -1.6153
19855TIP3   OH281055   3.739   4.135   4.522  0.3818 -0.4649  0.0415
19855TIP3    H181056   3.673   4.068   4.538 -0.1095  0.2432  1.0700
19855TIP3    H281057   3.801   4.126   4.594  2.1468 -1.9332 -1.5501
19856TIP3   OH281058   6.084   6.008   5.398 -0.7240  0.1297  0.3023
19856TIP3    H181059   6.105   5.938   5.459 -1.2600 -1.0462 -0.8154
19856TIP3    H281060   6.001   6.044   5.430  0.1801  1.1192  1.5915
19857TIP3   OH281061   3.693   3.868   3.196 -0.0058  0.2908 -0.5694
19857TIP3    H181062   3.768   3.811   3.213  0.3966  0.3528 -2.0473
19857TIP3    H281063   3.733   3.952   3.172 -0.5734  0.6566 -0.2401
19858TIP3   OH281064   2.492   2.856  11.315 -0.0307  0.0977  0.0031
19858TIP3    H181065   2.508   2.793  11.245  0.2181  0.2652 -0.0921
19858TIP3    H281066   2.490   2.941  11.271  0.4399  0.2349  0.2380
19859TIP3   OH281067   4.922   0.063   4.001  0.0344  0.0885  0.0748
19859TIP3    H181068   4.853   0.093   3.942  0.3276  1.9919  0.6456
19859TIP3    H281069   4.932  -0.030   3.980 -1.8207  0.0621 -0.8790
19860TIP3   OH281070   6.754   5.159  14.528  0.1603 -0.0957  0.3726
19860TIP3    H181071   6.670   5.200  14.506 -0.6086 -2.3714 -1.3657
19860TIP3    H281072   6.789   5.130  14.443  1.2341 -1.8502  1.3540
19861TIP3   OH281073   2.025   4.073  15.645 -0.1828 -0.0667  0.0467
19861TIP3    H181074   2.005   4.046  15.735 -0.6221 -1.8560 -0.5384
19861TIP3    H281075   2.046   3.991  15.600  0.1976  0.8183 -1.4437
19862TIP3   OH281076   0.625   5.279  11.890  0.3508 -0.5076  0.1105
19862TIP3    H181077   0.684   5.301  11.962  1.4409 -1.8905 -0.3117
19862TIP3    H281078   0.616   5.360  11.840  1.0988 -0.0264  0.7341
19863TIP3   OH281079   1.768   6.114   4.435  0.4603 -0.4936  0.0786
19863TIP3    H181080   1.808   6.161   4.361  0.2076 -1.2182 -0.5296
19863TIP3    H281081   1.780   6.022   4.413 -1.9958 -0.7460 -0.3921
19864TIP3   OH281082   0.024   5.455   4.828 -0.0926  0.1037 -0.3920
19864TIP3    H181083   0.044   5.549   4.827 -3.3003  0.9052 -0.2406
19864TIP3    H281084   0.047   5.427   4.916 -0.0866  1.0059 -0.0897
19865TIP3   OH281085   2.161   4.102   6.262 -0.1248  0.2776  0.4098
19865TIP3    H181086   2.185   4.010   6.280 -0.5661  0.2647  0.9535
19865TIP3    H281087   2.127   4.134   6.345 -0.2263  0.8616  0.1445
19866TIP3   OH281088   5.590   1.330  12.759 -0.0472 -0.1484  0.0112
19866TIP3    H181089   5.590   1.255  12.701  0.0772  0.3961 -0.7114
19866TIP3    H281090   5.649   1.393  12.717 -1.6926  1.1583 -0.4718
19867TIP3   OH281091   3.366   2.807   4.257 -0.3576  0.2455  0.2891
19867TIP3    H181092   3.346   2.801   4.164  1.1486 -0.0847 -0.0542
19867TIP3    H281093   3.284   2.786   4.302 -1.0019  0.0214 -0.9614
19868TIP3   OH281094   1.865   4.549   1.428 -0.3760  0.0971  0.6984
19868TIP3    H181095   1.879   4.498   1.348 -0.2574  1.3364 -0.0963
19868TIP3    H281096   1.774   4.532   1.451 -0.5574  0.1152  0.0162
19869TIP3   OH281097   5.670   2.117  16.235  0.1002 -0.1615 -0.2639
19869TIP3    H181098   5.616   2.115  16.156  0.2515  0.7406 -0.3923
19869TIP3    H281099   5.698   2.208  16.243  1.2853 -0.5383  0.0189
19870TIP3   OH281100   2.465   5.514   2.613  0.2477 -0.3385  0.1710
19870TIP3    H181101   2.502   5.535   2.528  0.0168 -1.1303 -0.1373
19870TIP3    H281102   2.537   5.525   2.675  0.3611  0.4364 -0.0934
19871TIP3   OH281103   0.297   3.113  10.984  0.6233 -0.0459  0.1657
19871TIP3    H181104   0.340   3.031  11.012 -1.6386 -1.4770 -0.2985
19871TIP3    H281105   0.209   3.086  10.958  0.0423  2.4662 -0.7303
19872TIP3   OH281106   4.486   5.166   1.720  0.5853  0.2955 -0.1168
19872TIP3    H181107   4.412   5.146   1.663  0.1091  2.1374 -0.1992
19872TIP3    H281108   4.446   5.187   1.805  1.0719  0.4587  0.0767
19873TIP3   OH281109   4.399   6.686   1.249  0.1295  0.0787  0.2107
19873TIP3    H181110   4.350   6.734   1.183 -0.4617  0.2905  0.7899
19873TIP3    H281111   4.483   6.667   1.208 -1.0223 -1.7982 -1.4756
19874TIP3   OH281112   1.930   2.796   0.151 -0.0377 -0.0670 -0.2095
19874TIP3    H181113   1.887   2.787   0.066 -0.8414 -3.0411  0.3893
19874TIP3    H281114   1.999   2.729   0.151 -1.2925 -1.5061  2.1081
19875TIP3   OH281115   4.238   6.545   0.940 -0.1193 -0.2012 -0.0358
19875TIP3    H181116   4.281   6.620   0.980 -0.5710 -0.0332  0.1441
19875TIP3    H281117   4.151   6.578   0.915 -0.8764 -1.0347  1.3581
19876TIP3   OH281118   3.160   2.769  13.171 -0.0823 -0.5891  0.3373
19876TIP3    H181119   3.155   2.770  13.076 -1.5528 -1.6432  0.3856
19876TIP3    H281120   3.246   2.807  13.190 -0.8363  2.2517 -1.2806
19877TIP3   OH281121   6.815   6.181  11.322  0.0123  0.5296  0.1614
19877TIP3    H181122   6.872   6.117  11.364  1.2608  1.6269  0.2078
19877TIP3    H281123   6.865   6.210  11.245 -2.0412 -1.1313 -1.9400
19878TIP3   OH281124   2.270   4.856   3.939  0.3702 -0.2159  0.3936
19878TIP3    H181125   2.243   4.768   3.967  0.0266 -0.0500  0.5925
19878TIP3    H281126   2.189   4.898   3.912  0.5620 -0.0248  0.1105
19879TIP3   OH281127   3.085   3.348   2.093 -0.9197 -0.2479 -0.0010
19879TIP3    H181128   3.077   3.442   2.077  1.4771 -0.0097 -0.1115
19879TIP3    H281129   3.015   3.329   2.157 -0.7254  1.8312  0.9178
19880TIP3   OH281130   0.684   5.892   0.686  0.5199 -0.1843 -0.5016
19880TIP3    H181131   0.728   5.840   0.620 -1.4611  0.2556 -2.2917
19880TIP3    H281132   0.754   5.939   0.732  1.9601 -0.4751 -2.3272
19881TIP3   OH281133   5.002   5.038   2.820  0.0583  0.3296  0.0288
19881TIP3    H181134   5.086   5.002   2.790  0.3959  0.6353  0.5930
19881TIP3    H281135   4.994   5.007   2.911 -1.0045 -0.6849 -0.3765
19882TIP3   OH281136   6.728   5.394  13.181  0.2514  0.6782  0.8704
19882TIP3    H181137   6.817   5.360  13.168 -0.7026 -1.4419 -0.4453
19882TIP3    H281138   6.729   5.428  13.271  1.7826 -1.3653  1.7082
19883TIP3   OH281139   3.417   1.884  13.286  0.4836  0.4377 -0.1176
19883TIP3    H181140   3.377   1.797  13.296 -1.6185  1.2983 -0.5552
19883TIP3    H281141   3.376   1.921  13.208  0.4685  2.2833  0.7131
19884TIP3   OH281142   4.222   5.863   1.043  0.1326  0.0979  0.0614
19884TIP3    H181143   4.315   5.846   1.035  0.2182 -0.7591  2.2974
19884TIP3    H281144   4.180   5.792   0.993  0.6266  1.1490 -1.9429
19885TIP3   OH281145   3.776   2.383  14.185 -0.1139 -0.3566  0.2334
19885TIP3    H181146   3.683   2.395  14.166  0.0392 -0.4615 -0.6269
19885TIP3    H281147   3.801   2.308  14.131  0.6540  0.1742 -0.1556
19886TIP3   OH281148   0.279   6.685   0.621  0.1799  0.6599  0.1437
19886TIP3    H181149   0.330   6.614   0.660 -0.9406 -0.1543  0.1938
19886TIP3    H281150   0.275   6.663   0.528 -1.5430 -0.2806  0.3964
19887TIP3   OH281151   0.136   3.036   6.320 -0.6160  0.0802  0.1270
19887TIP3    H181152   0.063   3.071   6.372 -0.4118 -0.2650  0.6616
19887TIP3    H281153   0.115   2.943   6.311 -1.0448  0.2817 -1.0922
19888TIP3   OH281154   1.028   2.398   5.951  0.2670  0.2866 -0.2056
19888TIP3    H181155   0.962   2.456   5.912  0.0350 -0.5796 -1.1251
19888TIP3    H281156   0.977   2.329   5.993  0.5295  0.9422  1.2705
19889TIP3   OH281157   5.007   5.344   1.330  0.2885  0.6093  0.0755
19889TIP3    H181158   4.934   5.338   1.269 -0.8366  1.6702  1.2675
19889TIP3    H281159   5.012   5.257   1.370 -1.1717  0.8744  0.9004
19890TIP3   OH281160   3.572   3.793   4.318  0.4336 -0.7275  0.1875
19890TIP3    H181161   3.574   3.848   4.396 -0.6598  0.2786 -0.4523
19890TIP3    H281162   3.606   3.849   4.248 -1.7711 -0.3760 -0.7125
19891TIP3   OH281163   5.031   3.884   1.421  0.0977  0.1630 -0.9180
19891TIP3    H181164   4.972   3.914   1.352 -0.7446 -0.4699 -0.4877
19891TIP3    H281165   5.004   3.793   1.438 -0.1225  0.4965  0.6631
19892TIP3   OH281166   5.907   4.061  16.777  0.3294 -0.1524 -0.5025
19892TIP3    H181167   5.886   4.145  16.737 -0.3336 -0.4216 -0.7321
19892TIP3    H281168   5.900   4.077  16.871 -3.9552 -0.8927 -0.4922
19893TIP3   OH281169   0.454   3.633  11.538 -0.1810  0.0768  0.1994
19893TIP3    H181170   0.452   3.715  11.489 -0.1112  0.0963  0.2295
19893TIP3    H281171   0.547   3.609  11.542 -0.4165 -1.6175 -2.4743
19894TIP3   OH281172   6.223   2.413   0.467 -0.4617 -0.6588  0.7117
19894TIP3    H181173   6.236   2.508   0.476 -0.8279 -0.4121 -1.0954
19894TIP3    H281174   6.250   2.393   0.377  1.5733 -2.6338  1.6320
19895TIP3   OH281175   0.851   3.352   2.910  0.3479  0.4346  0.3524
19895TIP3    H181176   0.852   3.260   2.887 -1.0576  0.6253 -0.6079
19895TIP3    H281177   0.907   3.394   2.844  0.9817  0.2855  0.7860
19896TIP3   OH281178   3.074   0.992  14.522 -0.0451  0.0674 -0.3579
19896TIP3    H181179   3.095   0.908  14.481  0.7777 -0.9036  1.8734
19896TIP3    H281180   3.156   1.020  14.562 -0.7032  1.1415  0.2967
19897TIP3   OH281181   5.617   3.409   4.636 -0.7573  0.0569  0.5362
19897TIP3    H181182   5.573   3.333   4.674 -0.3098  0.0442  1.0344
19897TIP3    H281183   5.696   3.373   4.595 -1.3458  0.0366 -0.6211
19898TIP3   OH281184   5.615   6.494  10.302 -0.0453 -0.2295  0.0153
19898TIP3    H181185   5.588   6.402  10.298 -0.5074 -0.0561 -1.4177
19898TIP3    H281186   5.534   6.543  10.289  0.3564  0.3667 -0.2630
19899TIP3   OH281187   6.726   4.070  12.564  0.1049 -0.5389 -0.0358
19899TIP3    H181188   6.717   4.100  12.474  0.2716 -0.2127  0.0551
19899TIP3    H281189   6.750   4.148  12.613 -1.1789 -0.4428  0.4983
19900TIP3   OH281190   6.532   6.521   5.185  0.2026 -0.3407  0.1219
19900TIP3    H181191   6.531   6.433   5.147  2.0257 -0.3215 -0.0255
19900TIP3    H281192   6.608   6.522   5.243 -0.7792  0.6117  1.4740
19901TIP3   OH281193   3.103   3.877   4.237 -0.0104 -0.8524  0.5793
19901TIP3    H181194   3.183   3.826   4.221  0.6914  0.3626 -0.0030
19901TIP3    H281195   3.085   3.864   4.331  3.5213  2.3341  1.9669
19902TIP3   OH281196   1.076   0.178   3.853  0.0315 -0.6926  0.4741
19902TIP3    H181197   1.049   0.102   3.905 -3.1548  0.5997  0.9506
19902TIP3    H281198   1.092   0.247   3.917  2.8458 -0.8075  0.0433
19903TIP3   OH281199   4.904   6.233  10.813  0.1566 -0.2311  0.2519
19903TIP3    H181200   4.857   6.299  10.863 -1.1876 -0.4373 -0.6639
19903TIP3    H281201   4.957   6.283  10.751 -1.1206  0.0517 -0.6755
19904TIP3   OH281202   6.602   2.764   3.573 -0.6424 -0.1352 -0.0020
19904TIP3    H181203   6.587   2.697   3.507 -0.4884  1.2943 -1.5606
19904TIP3    H281204   6.688   2.799   3.552 -1.3667  1.6172 -0.2699
19905TIP3   OH281205   1.576   4.222  14.588  0.0598  0.0367  0.3603
19905TIP3    H181206   1.609   4.225  14.677  0.0619 -1.0408  0.4161
19905TIP3    H281207   1.587   4.130  14.562 -1.8251 -0.1243 -0.0219
19906TIP3   OH281208   5.187   0.859  16.447  0.5369  0.1939  0.2017
19906TIP3    H181209   5.178   0.945  16.407 -0.3971 -0.1489 -0.3545
19906TIP3    H281210   5.108   0.848  16.499  0.4430 -0.4971 -0.0729
19907TIP3   OH281211   4.294   4.412  15.924 -0.1491 -0.1098 -0.4104
19907TIP3    H181212   4.366   4.385  15.981 -0.5416  0.0372  0.1643
19907TIP3    H281213   4.229   4.450  15.983 -0.3283  0.5561 -1.0161
19908TIP3   OH281214   1.818   6.608   1.152 -0.2044  0.2378 -0.4474
19908TIP3    H181215   1.825   6.688   1.203 -0.4909  1.5822 -2.4393
19908TIP3    H281216   1.908   6.586   1.128 -0.0155 -0.6679  0.9371
19909TIP3   OH281217   5.049   6.674   5.555 -0.2872  0.2305  0.3769
19909TIP3    H181218   4.981   6.607   5.547 -2.1456  2.0965 -0.4546
19909TIP3    H281219   5.032   6.734   5.483  1.1207  1.7513  1.2384
19910TIP3   OH281220   0.841   0.111  14.399  0.3892 -0.2844  0.2578
19910TIP3    H181221   0.843   0.203  14.370 -0.3419 -0.3580 -0.0709
19910TIP3    H281222   0.929   0.093  14.431  0.4189  0.6725  0.7537
19911TIP3   OH281223   5.279   3.046  12.824 -0.3473 -0.5749  0.6039
19911TIP3    H181224   5.265   2.964  12.777 -1.2979  0.6578 -1.3823
19911TIP3    H281225   5.230   3.111  12.775 -0.0943  1.1183  2.4526
19912TIP3   OH281226   4.997   6.009   4.213  0.2243  0.0770  0.7971
19912TIP3    H181227   5.092   6.013   4.224  0.0999  0.8256  1.6647
19912TIP3    H281228   4.979   5.916   4.195  1.1327 -0.0340  0.4071
19913TIP3   OH281229   5.679   2.659   1.649 -0.3733  0.3603  0.3136
19913TIP3    H181230   5.663   2.749   1.620 -0.6660 -0.0161 -0.7508
19913TIP3    H281231   5.604   2.637   1.703 -0.4410  0.6562  0.3412
19914TIP3   OH281232   5.671   1.971  16.609 -0.2474 -0.4018  0.0343
19914TIP3    H181233   5.735   1.961  16.538 -1.9759 -0.0403 -1.6616
19914TIP3    H281234   5.652   1.882  16.637  1.5655 -0.4747  1.1235
19915TIP3   OH281235   1.924   6.423   3.265  0.2462  0.2439  0.4293
19915TIP3    H181236   1.872   6.499   3.240 -2.7072 -1.7916 -0.2032
19915TIP3    H281237   1.870   6.377   3.329  2.2251 -0.9972  1.3006
19916TIP3   OH281238   0.870   1.168  15.848  0.3150 -0.5683 -0.3391
19916TIP3    H181239   0.957   1.158  15.808  0.6890  1.7356 -0.2352
19916TIP3    H281240   0.812   1.187  15.775  0.4663  0.7693 -0.1373
19917TIP3   OH281241   2.292   4.105   5.625 -0.7540 -0.1445 -0.1811
19917TIP3    H181242   2.315   4.119   5.717 -0.3380  2.3878 -0.5836
19917TIP3    H281243   2.351   4.036   5.595  0.2669  0.1586  1.0429
19918TIP3   OH281244   5.072   5.744  14.318 -0.2967 -0.1716 -0.0110
19918TIP3    H181245   5.134   5.675  14.294 -1.1291 -1.3002  0.9581
19918TIP3    H281246   5.107   5.780  14.400  0.4031  0.9304 -0.7689
19919TIP3   OH281247   5.986   2.711   2.819  0.0959 -0.3784  0.1283
19919TIP3    H181248   6.065   2.677   2.862  0.2787  0.1310  0.1962
19919TIP3    H281249   5.997   2.687   2.727  1.0301  0.9633 -0.1309
19920TIP3   OH281250   4.229   3.212  10.916 -0.4660 -0.1898  0.5222
19920TIP3    H181251   4.222   3.308  10.919 -0.0129 -0.1482  3.5287
19920TIP3    H281252   4.141   3.182  10.895 -1.2932  0.8924  2.2267
19921TIP3   OH281253   3.486   0.164   3.028 -0.0712  0.0357  0.2398
19921TIP3    H181254   3.557   0.179   3.089  0.8784 -1.6551 -0.3685
19921TIP3    H281255   3.410   0.145   3.083  0.8751 -1.9444  0.9554
19922TIP3   OH281256   5.503   4.603   5.272 -0.8096  0.0217 -0.4739
19922TIP3    H181257   5.512   4.619   5.366  0.9349  1.6625 -0.8565
19922TIP3    H281258   5.511   4.508   5.263  1.4435  0.0161  0.8629
19923TIP3   OH281259   3.809   2.883   4.913 -0.2433 -0.0588  0.4552
19923TIP3    H181260   3.793   2.799   4.870 -1.5181  0.0763  0.6266
19923TIP3    H281261   3.750   2.944   4.869  1.4262  1.0022 -0.3734
19924TIP3   OH281262   3.250   4.991   2.748 -0.2037 -0.1617 -0.1221
19924TIP3    H181263   3.216   5.033   2.668  0.5070  1.1576  0.2314
19924TIP3    H281264   3.324   4.938   2.718 -2.5491 -3.2504 -0.9365
19925TIP3   OH281265   1.079   1.907   5.439  0.7511  0.2053 -0.5042
19925TIP3    H181266   1.150   1.896   5.501  0.0163  0.6260  0.4462
19925TIP3    H281267   1.099   1.847   5.367  1.6795 -0.2016  0.0875
19926TIP3   OH281268   1.108   2.533  16.447 -0.2315 -0.1102  0.4051
19926TIP3    H181269   1.123   2.510  16.355 -1.2830 -0.1221  0.2277
19926TIP3    H281270   1.086   2.450  16.489  1.9782 -0.4237  1.0702
19927TIP3   OH281271   2.900   1.994   4.092 -0.3811 -0.1454 -0.1557
19927TIP3    H181272   2.806   1.989   4.074 -0.6643 -0.0365  1.1971
19927TIP3    H281273   2.924   1.905   4.120 -1.0115  0.7231  3.5817
19928TIP3   OH281274   0.248   0.096   4.987  0.0507 -0.3595  0.7733
19928TIP3    H181275   0.232   0.090   5.081 -1.1867  2.1657  0.7861
19928TIP3    H281276   0.343   0.088   4.979  0.4963  1.9382  2.5561
19929TIP3   OH281277   2.892   2.925   3.010  0.1899 -0.4672  0.1155
19929TIP3    H181278   2.885   2.830   3.004  1.0603 -0.4571 -2.4511
19929TIP3    H281279   2.809   2.953   3.048 -0.5114 -2.1712 -0.0745
19930TIP3   OH281280   1.532   0.141   2.090  0.2795  0.0459 -0.2754
19930TIP3    H181281   1.562   0.104   2.008  0.2036  0.4128 -0.4713
19930TIP3    H281282   1.438   0.154   2.077  0.2884  0.2162 -0.1775
19931TIP3   OH281283   5.163   3.552  16.465  0.4800  0.9297 -0.0586
19931TIP3    H181284   5.242   3.503  16.444 -0.9675 -1.0131 -1.2641
19931TIP3    H281285   5.097   3.520  16.403 -2.0850  0.2088  2.7847
19932TIP3   OH281286   6.571   0.785   4.016 -0.8247  0.3818  0.2033
19932TIP3    H181287   6.498   0.845   4.030 -0.7757  0.1757  1.4174
19932TIP3    H281288   6.640   0.840   3.980 -0.4059  1.3121  2.3219
19933TIP3   OH281289   0.892   3.812  16.529 -0.2148 -0.0197  0.0260
19933TIP3    H181290   0.861   3.899  16.506  2.9196  1.3130  0.2655
19933TIP3    H281291   0.925   3.776  16.447  1.3849  0.4101  0.4333
19934TIP3   OH281292   4.948   3.815  14.497  0.2212  0.1339  0.1572
19934TIP3    H181293   4.924   3.749  14.432 -1.7399  0.7037  0.2635
19934TIP3    H281294   5.039   3.836  14.476 -0.1972 -0.0386 -2.0977
19935TIP3   OH281295   2.937   2.733   4.810 -0.4022 -0.7254  0.1311
19935TIP3    H181296   2.860   2.730   4.754 -1.2115  0.5038  1.1323
19935TIP3    H281297   3.007   2.697   4.756 -1.7348 -2.2731 -0.6628
19936TIP3   OH281298   5.609   0.440   2.196  0.7426 -0.1358 -0.2643
19936TIP3    H181299   5.678   0.464   2.257  0.4237  0.9963 -0.3268
19936TIP3    H281300   5.655   0.418   2.115  1.3971 -4.0413  0.9408
19937TIP3   OH281301   5.400   6.050  11.538  0.3002 -0.0693 -0.0353
19937TIP3    H181302   5.356   6.055  11.622 -0.3078 -0.1900 -0.3455
19937TIP3    H281303   5.396   6.140  11.504 -0.5837 -0.2846 -0.5072
19938TIP3   OH281304   5.551   4.059   2.582  0.2086  0.0037 -0.0786
19938TIP3    H181305   5.567   4.148   2.615 -0.6974 -0.2304  1.0732
19938TIP3    H281306   5.456   4.055   2.572  0.3326 -0.5310 -1.0566
19939TIP3   OH281307   0.346   1.873  12.422 -0.1114 -0.3881  0.6700
19939TIP3    H181308   0.437   1.856  12.400 -0.3722 -1.7491  0.5085
19939TIP3    H281309   0.296   1.815  12.363 -1.0235 -0.4516  1.4722
19940TIP3   OH281310   1.613   4.316  13.713  0.0084  0.4995 -0.3875
19940TIP3    H181311   1.636   4.268  13.793  0.0175 -0.0774 -0.7285
19940TIP3    H281312   1.530   4.277  13.685  1.3401 -1.2165 -2.1488
19941TIP3   OH281313   5.070   6.763   1.872 -0.6851 -0.2650  0.0013
19941TIP3    H181314   4.995   6.719   1.831 -0.6769  1.6375 -2.2542
19941TIP3    H281315   5.031   6.831   1.927 -0.6138 -1.1312  1.1840
19942TIP3   OH281316   4.692   3.458   3.508  0.1789 -0.1550 -0.0633
19942TIP3    H181317   4.689   3.391   3.577 -1.1911 -0.0030  0.0497
19942TIP3    H281318   4.603   3.459   3.472 -0.1196  2.2789  0.5804
19943TIP3   OH281319   0.316   3.630  12.217 -0.1412 -0.5207 -0.0144
19943TIP3    H181320   0.287   3.646  12.127  0.4360  1.6920  0.1301
19943TIP3    H281321   0.253   3.678  12.271  1.0516  0.4421  0.5663
19944TIP3   OH281322   2.656   2.851   2.183 -0.1263 -0.1252  0.4119
19944TIP3    H181323   2.592   2.909   2.142 -1.6271 -0.6527  1.9050
19944TIP3    H281324   2.670   2.781   2.119 -0.9962  0.0333  0.0388
19945TIP3   OH281325   2.878   5.360  16.951 -0.0933  0.8650  0.4769
19945TIP3    H181326   2.909   5.420  16.883  1.2596  1.3589  1.4778
19945TIP3    H281327   2.785   5.347  16.931  0.2795  0.9239 -1.4961
19946TIP3   OH281328   2.415   1.039   1.670 -0.4165  0.1921  0.6825
19946TIP3    H181329   2.355   1.109   1.646  0.5350  0.7997 -0.0119
19946TIP3    H281330   2.383   0.962   1.622  1.1334  1.2495 -2.3255
19947TIP3   OH281331   1.954   3.601  12.221 -0.2020  0.6752  0.1627
19947TIP3    H181332   1.987   3.612  12.132 -0.7807 -1.2563 -0.3450
19947TIP3    H281333   1.867   3.640  12.220  0.1801  1.5400  0.1711
19948TIP3   OH281334   6.386   1.035   2.610 -0.6376  0.0631 -0.3935
19948TIP3    H181335   6.298   1.042   2.647 -0.1244  1.0319  0.7244
19948TIP3    H281336   6.423   1.124   2.618  0.4288 -0.3145 -0.8704
19949TIP3   OH281337   3.956   3.266  14.069  0.1546 -0.5923  0.1208
19949TIP3    H181338   3.924   3.202  14.132 -3.4221  0.4682 -0.3913
19949TIP3    H281339   3.975   3.344  14.121 -1.3911 -0.1916  0.1474
19950TIP3   OH281340   4.639   5.876   0.144 -0.4030 -0.6534 -0.5746
19950TIP3    H181341   4.577   5.900   0.213  0.9229 -0.4180  0.5592
19950TIP3    H281342   4.724   5.902   0.177  0.4871 -2.1438 -1.5532
19951TIP3   OH281343   4.556   2.030  15.360  0.3067 -0.1069  0.2281
19951TIP3    H181344   4.610   1.952  15.373  1.1126 -0.0223 -2.1575
19951TIP3    H281345   4.606   2.085  15.300 -1.6607  0.7748 -0.7270
19952TIP3   OH281346   6.098   0.301  14.106  0.5525 -0.8861 -0.5281
19952TIP3    H181347   6.038   0.334  14.174 -0.3071 -3.0371 -0.1458
19952TIP3    H281348   6.167   0.256  14.155  2.7675  1.7449 -0.9498
19953TIP3   OH281349   4.480   6.429  12.472 -0.3386  0.0615  0.0814
19953TIP3    H181350   4.547   6.464  12.530  0.5060 -0.3107 -0.6372
19953TIP3    H281351   4.462   6.341  12.506  0.0443 -0.0990 -0.1250
19954TIP3   OH281352   0.905   4.249  10.873  0.2212  0.2210 -0.2210
19954TIP3    H181353   0.972   4.291  10.927  0.8848 -0.2448 -0.6603
19954TIP3    H281354   0.837   4.315  10.864  0.2615  0.4324  0.8820
19955TIP3   OH281355   2.834   6.791   2.990 -0.1980 -0.8281 -0.1863
19955TIP3    H181356   2.904   6.813   3.052 -2.6751 -0.2193  2.5964
19955TIP3    H281357   2.830   6.696   2.991  0.4181 -0.8598 -0.2087
19956TIP3   OH281358   0.190   6.038  11.454  0.3197  0.0583 -0.4339
19956TIP3    H181359   0.224   5.975  11.517  0.6842 -1.2895 -1.9108
19956TIP3    H281360   0.265   6.058  11.397 -0.1998  0.6096 -0.9421
19957TIP3   OH281361   6.519   3.891  16.313  0.5138  0.1984 -0.3657
19957TIP3    H181362   6.534   3.801  16.284  2.3849 -0.1392  1.4618
19957TIP3    H281363   6.585   3.906  16.379 -0.6242  2.4969  0.3393
19958TIP3   OH281364   1.808   5.818   4.848  0.2590  0.2926  0.6283
19958TIP3    H181365   1.752   5.861   4.783  2.4722  1.0059 -0.9070
19958TIP3    H281366   1.761   5.737   4.869  0.0377 -0.7182 -2.9879
19959TIP3   OH281367   0.974   2.326   3.895  0.2497  0.4407  0.3572
19959TIP3    H181368   0.888   2.363   3.875  0.1145 -0.7929 -1.6172
19959TIP3    H281369   1.034   2.371   3.835  0.2594 -1.6066 -1.2704
19960TIP3   OH281370   5.127   3.884   2.237 -0.0417  0.7008  0.0929
19960TIP3    H181371   5.082   3.893   2.153 -1.2578  1.6779  0.8120
19960TIP3    H281372   5.137   3.789   2.248  0.9149  0.5673 -1.5172
19961TIP3   OH281373   1.829   3.025   1.096 -0.0640 -0.4809  0.1881
19961TIP3    H181374   1.752   2.972   1.120  0.3852 -1.6281 -0.7873
19961TIP3    H281375   1.842   3.007   1.003  0.7971  0.4841  0.1038
19962TIP3   OH281376   0.832   3.200  14.835  0.2969 -0.2450  0.6268
19962TIP3    H181377   0.761   3.257  14.806  1.2133  0.1118 -0.9807
19962TIP3    H281378   0.907   3.258  14.846  0.4679 -0.6699  2.0203
19963TIP3   OH281379   1.402   2.308   4.226 -0.4243  0.5614  0.2788
19963TIP3    H181380   1.316   2.268   4.212 -0.2910 -0.9798  3.1861
19963TIP3    H281381   1.464   2.239   4.206  0.0160  0.8120  0.7519
19964TIP3   OH281382   1.405   5.056   1.491 -0.3020  0.0197  0.1342
19964TIP3    H181383   1.419   5.150   1.474  0.0283 -0.3137 -1.6410
19964TIP3    H281384   1.482   5.029   1.540 -0.6836  0.7732  1.2111
19965TIP3   OH281385   0.139   2.036  14.775  0.1614  0.2990  0.1303
19965TIP3    H181386   0.081   2.110  14.756  0.6208  0.3145 -1.4272
19965TIP3    H281387   0.169   2.050  14.864  1.7832  3.1467 -0.7301
19966TIP3   OH281388   6.331   1.992  15.204  0.6948  0.0585 -0.9128
19966TIP3    H181389   6.390   1.940  15.260 -0.8256 -0.7333  0.0374
19966TIP3    H281390   6.376   2.076  15.194  1.0147  0.2835  1.6169
19967TIP3   OH281391   0.988   5.862  17.040 -0.6461 -0.0114 -0.0747
19967TIP3    H181392   0.919   5.899  16.985 -0.4905  1.2969  0.5598
19967TIP3    H281393   0.944   5.794  17.091 -1.1671 -0.0709 -0.5909
19968TIP3   OH281394   6.054   5.729  17.035 -0.0737  0.1250 -0.3029
19968TIP3    H181395   6.015   5.784  16.968 -0.5976  0.0237 -0.0851
19968TIP3    H281396   6.128   5.687  16.992 -0.5870 -0.1779 -0.9088
19969TIP3   OH281397   1.057   5.019   3.223  0.2683  0.4305 -0.1898
19969TIP3    H181398   1.106   5.033   3.143  0.1866 -0.7432 -0.4699
19969TIP3    H281399   1.090   5.085   3.284  1.2801  0.4794 -0.7728
19970TIP3   OH281400   5.251   5.852  11.426 -0.2284 -0.5279  0.1894
19970TIP3    H181401   5.308   5.927  11.409 -0.2619 -0.6903 -0.6482
19970TIP3    H281402   5.267   5.792  11.354 -1.0302 -0.8373  0.2562
19971TIP3   OH281403   0.663   3.030   2.612 -0.0075  0.1961  0.2511
19971TIP3    H181404   0.659   2.995   2.701 -0.0115 -0.1613  0.1080
19971TIP3    H281405   0.650   3.125   2.624  1.0278  0.2945  0.7286
19972TIP3   OH281406   4.041   1.663  13.429 -0.2138  0.6986 -0.3028
19972TIP3    H181407   4.013   1.618  13.349 -2.7801  0.8411  0.4401
19972TIP3    H281408   4.047   1.594  13.495  0.2726  0.8203 -0.2160
19973TIP3   OH281409   2.270   2.189   2.177  0.1307 -0.3548  0.2408
19973TIP3    H181410   2.217   2.267   2.159  0.3766 -0.1783  0.2894
19973TIP3    H281411   2.360   2.221   2.179  0.0907 -0.2533  2.3753
19974TIP3   OH281412   0.317   0.552  11.540 -0.1692  0.0698  0.4155
19974TIP3    H181413   0.272   0.474  11.509 -0.2138  0.0410  0.5553
19974TIP3    H281414   0.368   0.522  11.615 -0.4381  0.2439  0.6693
19975TIP3   OH281415   6.316   3.855  15.214  0.6903  0.3407  0.0736
19975TIP3    H181416   6.251   3.786  15.199 -1.2610  2.1666 -0.3649
19975TIP3    H281417   6.400   3.813  15.195 -0.4776 -1.6565 -1.0551
19976TIP3   OH281418   3.905   2.840   4.115 -0.4091  0.2571 -1.0178
19976TIP3    H181419   3.822   2.840   4.164 -0.1052  1.2601 -0.4748
19976TIP3    H281420   3.908   2.927   4.075  0.3780  0.2273 -1.0265
19977TIP3   OH281421   4.286   6.606  16.172 -0.6032 -0.3952 -0.6300
19977TIP3    H181422   4.323   6.556  16.245 -1.5412  0.8822  0.7910
19977TIP3    H281423   4.336   6.687  16.171 -1.1649 -0.0476 -0.8487
19978TIP3   OH281424   6.127   1.487   3.653  0.1591  0.4149  0.4607
19978TIP3    H181425   6.170   1.563   3.693  1.9393 -0.7123  0.7482
19978TIP3    H281426   6.150   1.414   3.710 -0.8677 -0.4942 -0.2608
19979TIP3   OH281427   3.909   6.430   4.604  0.0348  0.5256  0.1858
19979TIP3    H181428   3.844   6.495   4.632 -0.4846  0.4176 -0.7258
19979TIP3    H281429   3.982   6.481   4.571  0.0388  0.6495  0.3849
19980TIP3   OH281430   1.649   4.458  12.988 -0.1366 -0.3147  0.1368
19980TIP3    H181431   1.681   4.372  13.014 -0.7341 -0.4869  0.3114
19980TIP3    H281432   1.663   4.461  12.893  0.5373 -0.3228  0.2331
19981TIP3   OH281433   6.535   3.874   3.520  0.3646  0.0283 -0.0340
19981TIP3    H181434   6.622   3.914   3.520  0.3979 -0.0440 -0.1027
19981TIP3    H281435   6.505   3.881   3.430  1.1399 -1.7691 -0.4641
19982TIP3   OH281436   0.654   5.113   6.523 -0.4652  0.1649 -0.1475
19982TIP3    H181437   0.725   5.061   6.483 -0.8324 -0.3461 -0.1428
19982TIP3    H281438   0.684   5.127   6.613 -1.1879 -1.6427  0.4166
19983TIP3   OH281439   5.782   4.478  14.557  0.0225 -0.1958  0.5002
19983TIP3    H181440   5.752   4.466  14.647 -0.5507  0.7469  0.4450
19983TIP3    H281441   5.808   4.390  14.529 -0.0084 -0.5381  1.5039
19984TIP3   OH281442   1.356   2.120  14.038  0.3745 -1.0157  0.4446
19984TIP3    H181443   1.403   2.084  13.962  0.0735 -1.8206  0.6353
19984TIP3    H281444   1.401   2.083  14.114 -1.0405 -2.4733  0.6336
19985TIP3   OH281445   5.050   5.678  13.073 -0.6615  0.5904 -0.3318
19985TIP3    H181446   5.083   5.694  12.985  0.7252 -0.5925 -0.0625
19985TIP3    H281447   4.965   5.637  13.059  0.4185 -1.5299 -1.2326
19986TIP3   OH281448   3.566   1.231   0.965  0.3371 -0.0255  0.2718
19986TIP3    H181449   3.527   1.294   0.904 -0.5979  0.0766  0.9546
19986TIP3    H281450   3.626   1.284   1.018  0.2223  0.1158  0.2617
19987TIP3   OH281451   0.643   6.131  15.317  0.4212 -0.2091  0.8201
19987TIP3    H181452   0.696   6.203  15.283 -1.8817  0.9046 -0.6751
19987TIP3    H281453   0.553   6.164  15.314 -0.6306 -2.8394  0.9215
19988TIP3   OH281454   4.857   3.271  15.723 -0.0767  0.0799  0.0017
19988TIP3    H181455   4.880   3.221  15.801 -0.1380 -0.3007 -0.2181
19988TIP3    H281456   4.765   3.253  15.709  0.1260 -0.5262 -0.6257
19989TIP3   OH281457   3.510   6.242   1.362  0.9331  0.6026 -0.1699
19989TIP3    H181458   3.445   6.194   1.413  0.2990 -0.7601 -2.1562
19989TIP3    H281459   3.528   6.320   1.415 -1.1719  0.2760  1.1697
19990TIP3   OH281460   5.893   0.983   0.832 -0.8048  0.5187  0.1412
19990TIP3    H181461   5.962   0.937   0.785  0.0579  2.7034 -0.8204
19990TIP3    H281462   5.909   0.962   0.924  1.0986  0.8865 -0.0647
19991TIP3   OH281463   6.672   6.547  14.046  0.1996  0.0191  0.2595
19991TIP3    H181464   6.581   6.562  14.020  0.5327  0.3088 -0.8134
19991TIP3    H281465   6.714   6.633  14.038  1.4319 -0.7116 -3.0282
19992TIP3   OH281466   3.856   1.171  16.414  0.0306 -0.2304 -0.1595
19992TIP3    H181467   3.891   1.246  16.367 -1.1267  0.0072 -0.6931
19992TIP3    H281468   3.817   1.208  16.493  3.2346 -0.7811  1.8280
19993TIP3   OH281469   5.451   5.616   5.437 -0.0677  0.0832  0.0010
19993TIP3    H181470   5.508   5.582   5.506  0.4090  2.1391  0.6873
19993TIP3    H281471   5.408   5.538   5.401  1.4837 -1.2941  0.9637
19994TIP3   OH281472   3.217   0.970  15.303  0.2955  0.0929 -0.6877
19994TIP3    H181473   3.197   0.922  15.223 -1.1300  2.1350 -1.6390
19994TIP3    H281474   3.176   1.056  15.291 -1.8804 -0.1623  3.0998
19995TIP3   OH281475   3.804   1.718  14.193  0.4306  0.2347 -0.3604
19995TIP3    H181476   3.859   1.652  14.152 -1.1969 -1.6589  0.3436
19995TIP3    H281477   3.797   1.690  14.284 -0.8742  0.9564 -0.2079
19996TIP3   OH281478   4.303   1.508  13.513 -0.4665 -0.2057 -0.4472
19996TIP3    H181479   4.232   1.463  13.558 -0.6721  1.5960  1.2050
19996TIP3    H281480   4.382   1.458  13.535 -0.8155 -0.3746  0.4532
19997TIP3   OH281481   1.217   5.814   3.670 -0.3355 -0.1598  0.5269
19997TIP3    H181482   1.166   5.738   3.641 -0.0215  0.3977 -1.6725
19997TIP3    H281483   1.292   5.776   3.716  0.0003 -1.2415 -0.8394
19998TIP3   OH281484   0.464   1.894   1.184 -0.6044 -0.1102  0.0123
19998TIP3    H181485   0.483   1.915   1.093  0.5978  0.2543  0.3220
19998TIP3    H281486   0.413   1.813   1.180  0.1612 -0.5678 -0.9534
19999TIP3   OH281487   3.311   6.323  15.392 -0.4558  0.0881 -0.6387
19999TIP3    H181488   3.385   6.322  15.452  1.5296 -0.0889 -2.9336
19999TIP3    H281489   3.286   6.231  15.383 -1.3304  0.1912  0.5019
20000TIP3   OH281490   4.571   5.931   5.168  0.4016 -0.2716 -0.1208
20000TIP3    H181491   4.497   5.887   5.126  0.1361 -0.2807  0.3523
20000TIP3    H281492   4.624   5.964   5.095  0.4810 -1.1673 -0.4904
20001TIP3   OH281493   2.218   0.697  16.124 -0.2950 -0.3086  0.1613
20001TIP3    H181494   2.270   0.664  16.197  0.3777 -0.1389 -0.2291
20001TIP3    H281495   2.280   0.749  16.073 -0.8318 -0.1793 -0.3619
20002TIP3   OH281496   4.758   5.018  11.541 -0.2830  0.0442  0.3405
20002TIP3    H181497   4.722   5.101  11.511 -0.3089 -0.1863 -0.2774
20002TIP3    H281498   4.845   5.040  11.575 -0.8296  0.5391  1.4781
20003TIP3   OH281499   5.160   5.833   5.284  0.5959 -0.1269 -0.0752
20003TIP3    H181500   5.128   5.756   5.237 -1.3241  0.8959 -0.5886
20003TIP3    H281501   5.123   5.825   5.372  0.1678  0.2961 -0.2067
20004TIP3   OH281502   1.948   3.436   2.066  0.1192  0.3433  0.1325
20004TIP3    H181503   1.943   3.474   2.153  1.4534 -0.7059  0.7057
20004TIP3    H281504   2.041   3.438   2.044 -0.0883 -0.2783 -0.8627
20005TIP3   OH281505   3.885   1.084  14.997  0.4051  0.4131 -0.1070
20005TIP3    H181506   3.979   1.076  14.984  0.5140 -1.9163  1.5599
20005TIP3    H281507   3.847   1.057  14.914  1.1897  0.7053 -0.5717
20006TIP3   OH281508   0.081   0.177   1.540 -0.0093 -0.4461 -0.3051
20006TIP3    H181509   0.056   0.192   1.631 -1.5992  0.3607 -0.8241
20006TIP3    H281510   0.175   0.190   1.538 -0.2378  2.0893  0.7896
20007TIP3   OH281511   0.452   3.978  12.988 -0.5128  0.4175  0.0371
20007TIP3    H181512   0.501   3.898  13.010  1.4168  1.6854  0.5878
20007TIP3    H281513   0.384   3.983  13.056  0.6110  0.2534  1.2313
20008TIP3   OH281514   0.466   3.796   0.907  0.6579  0.2190 -0.2510
20008TIP3    H181515   0.543   3.762   0.953  0.8003 -1.2731 -1.5111
20008TIP3    H281516   0.396   3.735   0.930  0.9263 -1.0761 -2.5803
20009TIP3   OH281517   2.872   3.661  14.592 -0.0191 -0.5538  0.8096
20009TIP3    H181518   2.816   3.586  14.573  0.7215 -0.8661 -0.1847
20009TIP3    H281519   2.922   3.634  14.670  2.6788 -2.5334 -1.4075
20010TIP3   OH281520   6.813   0.304  15.993  0.2273  0.1156 -0.3671
20010TIP3    H181521   6.905   0.331  16.000  0.9594 -2.2301  0.2361
20010TIP3    H281522   6.815   0.209  16.011 -2.4800  0.2308  1.0782
20011TIP3   OH281523   1.767   5.348   0.946  1.3138 -0.1522 -0.0183
20011TIP3    H181524   1.842   5.289   0.942  0.1394 -1.6521 -1.5876
20011TIP3    H281525   1.725   5.340   0.860  0.1599  1.7413  0.2961
20012TIP3   OH281526   4.058   2.949  13.386  0.1911 -0.0706  0.2158
20012TIP3    H181527   4.153   2.959  13.382  0.0049  2.3358  0.4207
20012TIP3    H281528   4.040   2.924  13.476  0.5917 -0.2685  0.2461
20013TIP3   OH281529   1.890   2.946   2.493 -0.0954 -0.1445 -0.3151
20013TIP3    H181530   1.838   2.870   2.520  0.7972 -1.8896 -3.0914
20013TIP3    H281531   1.847   2.978   2.414  0.8750  0.7958 -0.4865
20014TIP3   OH281532   2.976   3.372   1.253 -0.2888  0.0101  0.0842
20014TIP3    H181533   3.017   3.375   1.166  1.3225 -0.6998  0.7776
20014TIP3    H281534   3.044   3.336   1.310 -1.4193  0.1817  1.5932
20015TIP3   OH281535   3.608   0.952   5.810 -0.1936 -0.4708 -0.4286
20015TIP3    H181536   3.565   0.926   5.892  0.6083 -0.5637 -0.0280
20015TIP3    H281537   3.547   1.013   5.770 -0.4421 -0.1431  0.4150
20016TIP3   OH281538   6.613   1.884   3.649 -0.0221  0.1372 -0.3921
20016TIP3    H181539   6.660   1.854   3.727  1.8283  0.7111 -1.2184
20016TIP3    H281540   6.617   1.810   3.588  1.3130  0.7140 -1.0607
20017TIP3   OH281541   2.717   2.753  17.061 -0.5122 -0.1286  0.4536
20017TIP3    H181542   2.799   2.714  17.029 -0.6633  0.7193 -1.0658
20017TIP3    H281543   2.739   2.845  17.078 -0.9575 -0.0858  0.8104
20018TIP3   OH281544   3.027   3.245   2.919 -0.5424 -0.4366 -0.2407
20018TIP3    H181545   3.085   3.238   2.843 -0.9016  0.9561 -0.6836
20018TIP3    H281546   3.086   3.247   2.994 -0.0568 -0.0468 -0.6203
20019TIP3   OH281547   5.635   6.755   0.650  0.0448  0.1891  0.4716
20019TIP3    H181548   5.685   6.794   0.578  0.5901 -1.6793 -0.2219
20019TIP3    H281549   5.544   6.753   0.618  0.3923 -1.2916 -0.5082
20020TIP3   OH281550   5.065   4.505  10.548  0.2131 -0.4345 -0.5544
20020TIP3    H181551   5.110   4.547  10.474  2.0756 -0.3650  0.5422
20020TIP3    H281552   5.037   4.577  10.603 -1.7084 -0.4608 -1.4324
20021TIP3   OH281553   0.590   1.264   5.001 -0.1866  0.0071 -0.1776
20021TIP3    H181554   0.514   1.221   5.039 -0.9607  1.1293 -0.4138
20021TIP3    H281555   0.661   1.248   5.063 -0.6327 -0.9392  0.1062
20022TIP3   OH281556   0.254   1.710  16.484  0.2781 -0.0244 -0.2992
20022TIP3    H181557   0.319   1.658  16.436 -0.1662  0.3816 -1.3870
20022TIP3    H281558   0.195   1.742  16.416  1.0172  2.6141  0.1970
20023TIP3   OH281559   4.366   5.083   2.259  0.2398 -0.0238 -0.0809
20023TIP3    H181560   4.374   5.018   2.329  1.2044  0.7827  0.5725
20023TIP3    H281561   4.449   5.079   2.212  1.1432  2.1328  1.2179
20024TIP3   OH281562   6.260   6.484  16.928  0.1455  0.0198  0.1553
20024TIP3    H181563   6.187   6.483  16.867  0.7353 -0.5575 -0.5590
20024TIP3    H281564   6.238   6.553  16.991 -1.2536 -0.4860  0.2669
20025TIP3   OH281565   1.621   5.201   1.896  0.1027  0.6467 -0.0154
20025TIP3    H181566   1.612   5.119   1.846 -1.3396 -0.2293  1.5446
20025TIP3    H281567   1.699   5.188   1.949  0.3636  0.6469 -0.3955
20026TIP3   OH281568   2.541   4.006   3.393  0.1269  0.4601 -0.0232
20026TIP3    H181569   2.524   4.072   3.460  1.9562  1.3092 -0.3326
20026TIP3    H281570   2.637   4.005   3.384  0.0522 -1.1650 -1.1067
20027TIP3   OH281571   3.756   6.807  13.168 -0.0111 -0.1425 -0.6034
20027TIP3    H181572   3.769   6.853  13.251  0.8875 -0.4297 -0.5699
20027TIP3    H281573   3.735   6.876  13.105 -0.7582  0.0732 -0.1342
20028TIP3   OH281574   4.794   6.285  16.348  0.2857  0.5062  0.4641
20028TIP3    H181575   4.833   6.329  16.273 -0.4682 -0.5485 -0.5744
20028TIP3    H281576   4.856   6.300  16.420  0.6311  2.1943 -0.1499
20029TIP3   OH281577   5.219   1.082   4.312 -0.8088 -0.2926  0.1152
20029TIP3    H181578   5.288   1.036   4.360 -0.1976 -0.0183 -0.4860
20029TIP3    H281579   5.244   1.074   4.220 -0.0222  2.2509  0.0453
20030TIP3   OH281580   2.371   5.049  15.309  0.2606 -0.1157 -0.2997
20030TIP3    H181581   2.304   5.001  15.357  0.6996 -1.1011 -0.6365
20030TIP3    H281582   2.340   5.049  15.218  0.4426 -0.1010 -0.3632
20031TIP3   OH281583   5.082   3.489  14.519 -0.3706 -0.3981  0.0596
20031TIP3    H181584   5.077   3.487  14.615  1.6081  0.4962  0.2455
20031TIP3    H281585   5.065   3.398  14.493 -3.6507 -0.1660  0.9886
20032TIP3   OH281586   5.845   2.771   3.618  0.5091 -0.4193 -0.1878
20032TIP3    H181587   5.808   2.839   3.562  1.9175  0.6486  0.1255
20032TIP3    H281588   5.884   2.708   3.556  0.0294 -0.4569 -0.4567
20033TIP3   OH281589   5.370   6.316   4.076 -0.5191  0.6346  0.2636
20033TIP3    H181590   5.316   6.254   4.026 -1.2829  0.9961  0.6282
20033TIP3    H281591   5.460   6.297   4.048 -0.6792 -0.9485  0.6854
20034TIP3   OH281592   0.789   1.824  12.101  0.3421 -0.4263  0.1497
20034TIP3    H181593   0.813   1.852  12.013 -0.2497 -0.2564  0.0402
20034TIP3    H281594   0.752   1.737  12.091  0.1424 -0.3498  0.2105
20035TIP3   OH281595   6.719   5.354   5.943  0.1407  0.3804 -0.2879
20035TIP3    H181596   6.671   5.322   5.866 -1.4949 -1.9561  1.5560
20035TIP3    H281597   6.651   5.388   6.001  1.2806  1.4919  0.4471
20036TIP3   OH281598   6.556   5.858  15.953 -0.0710 -0.8209  0.0007
20036TIP3    H181599   6.461   5.846  15.963  0.1302 -2.1607  0.5699
20036TIP3    H281600   6.569   5.867  15.859 -0.8776  0.6347  0.0018
20037TIP3   OH281601   1.697   4.488  16.494 -0.2409  0.2499  0.2555
20037TIP3    H181602   1.651   4.571  16.507 -0.6823 -0.0597  0.7214
20037TIP3    H281603   1.649   4.445  16.423 -0.8922 -0.2155  0.9600
20038TIP3   OH281604   0.404   4.771   1.925  0.5423 -0.4243  0.0202
20038TIP3    H181605   0.496   4.794   1.911  0.1892  2.3385  1.4564
20038TIP3    H281606   0.371   4.747   1.839  2.5113 -1.1198 -0.5704
20039TIP3   OH281607   1.488   2.187  12.115  0.2147 -0.1595  0.5845
20039TIP3    H181608   1.482   2.198  12.210  0.1040  3.0929  0.3125
20039TIP3    H281609   1.397   2.192  12.085  0.4154  1.9974  0.1484
20040TIP3   OH281610   3.045   5.293   4.157 -0.1829 -0.2684  0.0936
20040TIP3    H181611   3.083   5.302   4.245 -1.4452  2.4291  0.4517
20040TIP3    H281612   2.951   5.299   4.171 -0.4502 -0.8380 -1.3635
20041TIP3   OH281613   6.210   3.129   0.726  0.1785  0.0195 -0.0379
20041TIP3    H181614   6.271   3.096   0.792 -0.8944 -1.8808  0.0840
20041TIP3    H281615   6.186   3.216   0.757  3.2020  1.0942 -0.3944
20042TIP3   OH281616   6.585   1.114  12.831 -0.0946 -0.2419 -0.4778
20042TIP3    H181617   6.627   1.109  12.917 -1.5281 -2.1877  0.1683
20042TIP3    H281618   6.561   1.206  12.821  0.5408  0.1051  0.9678
20043TIP3   OH281619   3.746   0.129   1.603  0.4150 -0.1229 -0.3135
20043TIP3    H181620   3.782   0.123   1.691  0.1534 -0.4352 -0.2241
20043TIP3    H281621   3.707   0.043   1.587 -0.5568  0.2944 -0.2809
20044TIP3   OH281622   4.177   3.183  16.262  0.4042 -0.4019 -0.4669
20044TIP3    H181623   4.218   3.226  16.187  1.8735  0.8789  0.9741
20044TIP3    H281624   4.247   3.131  16.301 -0.0604 -0.3087  0.5297
20045TIP3   OH281625   4.487   5.913  11.634 -0.1678  0.1873  0.5712
20045TIP3    H181626   4.480   5.823  11.666 -1.6231  0.3164  0.6614
20045TIP3    H281627   4.524   5.904  11.546 -0.4366 -0.5040  0.5259
20046TIP3   OH281628   0.585   4.089   3.300  0.3614  0.0963  0.2602
20046TIP3    H181629   0.624   4.080   3.213 -1.6408 -1.5260 -0.5542
20046TIP3    H281630   0.592   4.183   3.319  0.2736  0.6170 -1.9413
20047TIP3   OH281631   3.714   4.580  12.687 -0.2931  0.5171 -0.3403
20047TIP3    H181632   3.718   4.557  12.594  0.3338  0.8755 -0.4065
20047TIP3    H281633   3.805   4.576  12.717 -0.7563 -2.6262  1.0388
20048TIP3   OH281634   2.354   1.639  15.084  0.0999 -0.3019  0.4913
20048TIP3    H181635   2.435   1.637  15.136 -0.3094 -0.1205  1.1385
20048TIP3    H281636   2.292   1.586  15.134 -0.5031  0.4341  0.5363
20049TIP3   OH281637   6.667   2.493  11.942  0.0204 -0.2938 -0.0910
20049TIP3    H181638   6.685   2.460  11.854 -0.3724 -1.8724  0.3944
20049TIP3    H281639   6.595   2.438  11.974  1.3404 -0.9496  1.8792
20050TIP3   OH281640   2.121   4.927   3.623 -0.4215 -0.2935 -0.2025
20050TIP3    H181641   2.200   4.872   3.628 -0.7636 -1.1165 -2.7013
20050TIP3    H281642   2.153   5.016   3.635  1.1511 -0.4800 -2.3965
20051TIP3   OH281643   2.485   5.905  13.108 -0.5148 -0.7263 -0.1545
20051TIP3    H181644   2.503   5.839  13.175 -0.2517  0.2172  0.7284
20051TIP3    H281645   2.563   5.960  13.107 -0.6632 -0.5061 -0.9990
20052TIP3   OH281646   0.780   4.747  10.286  0.6261  0.0689  0.6589
20052TIP3    H181647   0.808   4.669  10.335  0.3545  0.2705  1.1399
20052TIP3    H281648   0.754   4.713  10.200  1.5056 -0.2339  0.5007
20053TIP3   OH281649   1.558   2.980  12.000 -0.6240  0.0493  0.0615
20053TIP3    H181650   1.578   2.887  12.002  2.1558  0.5335 -0.5581
20053TIP3    H281651   1.582   3.012  12.087  2.1056  0.7233 -0.8355
20054TIP3   OH281652   0.897   2.403   1.396 -0.4532 -0.5418 -0.3491
20054TIP3    H181653   0.911   2.492   1.430 -2.1935 -0.1464 -0.5919
20054TIP3    H281654   0.985   2.370   1.379  0.2877  0.6920  0.8766
20055TIP3   OH281655   6.054   3.217   4.132  0.0658  0.1867 -0.4230
20055TIP3    H181656   6.029   3.262   4.212  0.0736  0.2447 -0.4530
20055TIP3    H281657   6.016   3.130   4.140  3.4443 -1.3328  1.5515
20056TIP3   OH281658   3.494   2.390   0.682  0.2691 -0.6521 -0.1034
20056TIP3    H181659   3.552   2.447   0.734 -1.2243 -1.3015  2.4616
20056TIP3    H281660   3.416   2.443   0.667  0.1685 -0.9311 -0.5734
20057TIP3   OH281661   0.261   1.690   2.893 -0.8230 -0.3471  1.3054
20057TIP3    H181662   0.216   1.645   2.965 -1.1839 -1.0768  0.6443
20057TIP3    H281663   0.195   1.751   2.859 -0.6710 -0.0427  1.5522
20058TIP3   OH281664   3.160   6.096  13.712 -0.4529 -0.0579  0.1992
20058TIP3    H181665   3.222   6.043  13.662 -0.5122 -1.3708  1.4536
20058TIP3    H281666   3.074   6.070  13.681 -0.5454 -1.7055  1.6800
20059TIP3   OH281667   1.242   0.809   4.215 -0.0072  0.5021 -0.5179
20059TIP3    H181668   1.309   0.873   4.240  1.3203 -0.5956 -1.1706
20059TIP3    H281669   1.193   0.793   4.296  0.7479  1.0415  0.0565
20060TIP3   OH281670   4.519   6.785   2.943  0.1738  0.4292 -0.6168
20060TIP3    H181671   4.488   6.697   2.924 -2.6212  1.1245  0.2431
20060TIP3    H281672   4.517   6.791   3.038 -2.4020  2.2047 -0.6879
20061TIP3   OH281673   6.781   0.182   1.279 -0.0606 -0.2458  0.7199
20061TIP3    H181674   6.786   0.098   1.233  1.9334  0.7321 -1.0191
20061TIP3    H281675   6.813   0.163   1.367 -0.5984 -1.4976  0.6597
20062TIP3   OH281676   1.655   5.387   5.969 -0.5856  0.3722  0.1425
20062TIP3    H181677   1.703   5.326   5.914  1.5269  0.8658  1.3230
20062TIP3    H281678   1.710   5.398   6.047 -4.0667 -1.4133  3.1353
20063TIP3   OH281679   0.776   2.602   0.221 -0.8397 -0.7169 -0.4721
20063TIP3    H181680   0.861   2.559   0.207  0.7767  1.5486  1.4368
20063TIP3    H281681   0.793   2.694   0.200 -2.2344  0.1259  1.7108
20064TIP3   OH281682   3.550   6.552  13.477  0.1595 -0.0858 -0.4510
20064TIP3    H181683   3.524   6.645  13.482 -2.6444 -0.6957 -1.5771
20064TIP3    H281684   3.631   6.553  13.426 -0.8647  1.6371 -2.1782
20065TIP3   OH281685   2.599   0.585   2.871 -0.0125  0.0965 -0.1038
20065TIP3    H181686   2.613   0.527   2.796  1.3826  1.1280 -0.6843
20065TIP3    H281687   2.673   0.569   2.929  0.5402  1.4367 -0.3907
20066TIP3   OH281688   1.389   0.758  15.096  0.0067  0.0182 -0.0826
20066TIP3    H181689   1.453   0.785  15.162 -1.0694 -0.3636  1.1678
20066TIP3    H281690   1.337   0.690  15.139 -2.4225  1.5451 -0.3611
20067TIP3   OH281691   6.693   4.088   2.698  0.1153 -0.3526  0.1775
20067TIP3    H181692   6.689   4.171   2.650  1.3921  0.2485  1.0442
20067TIP3    H281693   6.623   4.095   2.763 -0.8053 -0.6454 -0.7467
20068TIP3   OH281694   2.077   3.677   2.723  0.5865 -0.1086 -0.0937
20068TIP3    H181695   1.993   3.722   2.709  0.5670  0.0309  0.4374
20068TIP3    H281696   2.063   3.589   2.688  0.1255 -0.1705  0.2235
20069TIP3   OH281697   2.046   2.285  13.637 -0.8193 -0.5981 -0.1504
20069TIP3    H181698   1.989   2.226  13.587  0.8962 -2.0517 -0.5148
20069TIP3    H281699   2.028   2.372  13.601 -0.5896 -1.4204 -2.4563
20070TIP3   OH281700   2.498   0.841  14.196  0.8096  0.1110  0.3731
20070TIP3    H181701   2.420   0.794  14.226  0.5507 -0.2469 -0.7873
20070TIP3    H281702   2.563   0.771  14.181  0.5348  0.1294 -1.0311
20071TIP3   OH281703   4.836   5.404   1.790  0.0218 -0.2441 -0.4700
20071TIP3    H181704   4.889   5.401   1.710 -0.4147  0.5160 -0.8063
20071TIP3    H281705   4.900   5.416   1.860  0.4403 -1.2658 -0.6541
20072TIP3   OH281706   4.484   0.851   0.410 -0.6294 -0.8319  0.0820
20072TIP3    H181707   4.418   0.889   0.468 -1.1291  0.0117 -1.0225
20072TIP3    H281708   4.447   0.766   0.385 -1.8139  0.0745 -1.3581
20073TIP3   OH281709   5.753   0.751   1.171  0.1407  0.8595  0.4028
20073TIP3    H181710   5.811   0.730   1.244  0.9099  0.2191 -0.3660
20073TIP3    H281711   5.672   0.703   1.190  0.2394  0.9121  0.9627
20074TIP3   OH281712   4.355   3.702  12.598 -0.8292 -0.3101 -0.0443
20074TIP3    H181713   4.413   3.776  12.616  0.7422 -1.1248 -1.5497
20074TIP3    H281714   4.323   3.676  12.685 -0.5185  1.3778  0.6284
20075TIP3   OH281715   6.583   0.795  11.250  0.0630  0.1234  0.1542
20075TIP3    H181716   6.653   0.852  11.216 -0.5088  2.0176  1.9765
20075TIP3    H281717   6.518   0.794  11.180 -0.2641  2.4166  0.3699
20076TIP3   OH281718   2.401   0.679  15.543 -0.7350  0.4532 -0.2033
20076TIP3    H181719   2.496   0.684  15.548 -0.6313 -1.2530  0.0022
20076TIP3    H281720   2.383   0.592  15.506 -2.2133  0.7332 -0.2225
20077TIP3   OH281721   1.368   4.113  13.709  0.3396 -0.4123  0.3586
20077TIP3    H181722   1.286   4.136  13.752  0.0374 -0.4246 -0.1978
20077TIP3    H281723   1.414   4.058  13.772 -0.1707 -0.5698  0.5956
20078TIP3   OH281724   1.516   3.287   3.122  0.1490 -0.7343 -0.1859
20078TIP3    H181725   1.481   3.206   3.158  1.0500 -0.7207  0.8061
20078TIP3    H281726   1.611   3.278   3.132  0.3559 -0.1882 -1.4604
20079TIP3   OH281727   4.940   4.299   2.448 -0.5343  0.1155 -0.0961
20079TIP3    H181728   4.888   4.221   2.468  0.6688 -0.8401 -0.5648
20079TIP3    H281729   4.890   4.372   2.486 -2.2585 -0.7383 -0.6352
20080TIP3   OH281730   4.119   6.442   2.685 -0.2129  0.0234  0.3326
20080TIP3    H181731   4.077   6.528   2.679 -0.3350 -0.0483  0.1349
20080TIP3    H281732   4.055   6.382   2.646 -0.1420 -0.1610  0.5000
20081TIP3   OH281733   2.215   5.774  15.225 -0.2070 -0.2314 -0.4779
20081TIP3    H181734   2.145   5.717  15.257 -0.0447  0.1520  0.5886
20081TIP3    H281735   2.177   5.861  15.223  0.0199 -0.1328 -0.5958
20082TIP3   OH281736   5.872   0.973  15.028  0.1917  0.2929  0.4738
20082TIP3    H181737   5.939   1.015  15.082 -0.5334  0.5858  1.1783
20082TIP3    H281738   5.844   0.897  15.079  0.5483 -0.2927 -0.1840
20083TIP3   OH281739   3.114   4.714   3.849  0.1701  0.0737 -0.2667
20083TIP3    H181740   3.030   4.714   3.896  0.4647  1.2930  0.3123
20083TIP3    H281741   3.095   4.669   3.767 -1.0350  0.2288 -0.0997
20084TIP3   OH281742   2.045   3.667   5.647  0.8229  0.2472 -0.2493
20084TIP3    H181743   2.055   3.671   5.742 -0.7424 -1.3226  0.0403
20084TIP3    H281744   2.023   3.757   5.622 -2.5317  0.0720  1.4547
20085TIP3   OH281745   0.457   6.431   2.702 -0.4648  0.6383 -0.4078
20085TIP3    H181746   0.517   6.461   2.634 -1.0274 -0.8800 -1.6251
20085TIP3    H281747   0.509   6.430   2.782  0.6771  0.8496 -1.1333
20086TIP3   OH281748   3.558   0.994   0.807  0.5950 -0.1637 -0.1078
20086TIP3    H181749   3.470   0.965   0.832  0.5478 -0.2694 -0.3924
20086TIP3    H281750   3.562   1.085   0.836  0.0955  0.0974 -0.8196
20087TIP3   OH281751   1.175   0.722   0.843  0.3675  0.3071 -0.7792
20087TIP3    H181752   1.101   0.780   0.862  0.0841 -0.1022 -0.6350
20087TIP3    H281753   1.231   0.729   0.920 -0.2264 -0.4818 -0.2669
20088TIP3   OH281754   2.862   2.488   6.543 -0.0892  0.0018 -0.6914
20088TIP3    H181755   2.920   2.422   6.506  0.1800  0.5944 -1.3547
20088TIP3    H281756   2.777   2.444   6.552 -0.1950 -0.1288 -2.1369
20089TIP3   OH281757   4.275   4.724   0.842 -0.5033 -0.2935 -0.1650
20089TIP3    H181758   4.346   4.787   0.834 -0.7641 -0.0233 -0.3602
20089TIP3    H281759   4.199   4.767   0.803 -0.6836 -0.7283 -0.3073
20090TIP3   OH281760   5.835   5.045  11.836 -0.3375  0.0640 -0.4138
20090TIP3    H181761   5.819   4.977  11.902 -1.9749  0.8234  0.0347
20090TIP3    H281762   5.840   4.997  11.754  1.0435 -0.8279  0.1485
20091TIP3   OH281763   4.799   3.554   2.392  0.2114 -0.1860  0.4055
20091TIP3    H181764   4.879   3.534   2.344  1.3171  0.2568  2.0220
20091TIP3    H281765   4.809   3.644   2.421 -0.6562 -0.2776  1.0318
20092TIP3   OH281766   5.164   6.012   2.293 -0.0114 -0.1438 -0.1952
20092TIP3    H181767   5.107   5.952   2.244  0.4095 -0.2827 -0.5242
20092TIP3    H281768   5.231   6.037   2.230 -0.4418  1.0564 -0.2101
20093TIP3   OH281769   6.664   1.518   1.421  0.4796  0.2474 -0.1042
20093TIP3    H181770   6.690   1.590   1.363  2.3500 -0.7667 -0.6207
20093TIP3    H281771   6.640   1.447   1.361 -1.1213  0.3338  0.3969
20094TIP3   OH281772   6.349   5.682  15.384 -0.4716  0.0844 -0.3784
20094TIP3    H181773   6.307   5.597  15.370 -1.7002  0.6394 -0.1393
20094TIP3    H281774   6.398   5.672  15.466 -0.1243 -0.5724 -0.6637
20095TIP3   OH281775   5.010   6.283  12.854  0.1448  0.1451  0.2559
20095TIP3    H181776   4.929   6.275  12.803 -0.1386 -3.1663  0.9958
20095TIP3    H281777   5.080   6.276  12.789 -0.1689  0.0903 -0.0785
20096TIP3   OH281778   6.358   6.569  11.883  0.0047 -0.2412 -0.2272
20096TIP3    H181779   6.280   6.524  11.914  1.0692 -2.3736 -0.4151
20096TIP3    H281780   6.398   6.606  11.962 -0.4930 -0.3079  0.0542
20097TIP3   OH281781   1.012   3.529   5.605 -0.3335 -0.0595 -0.3525
20097TIP3    H181782   0.943   3.510   5.669  0.0651 -1.9501 -0.4312
20097TIP3    H281783   0.965   3.554   5.526 -0.8540  0.9156  0.2359
20098TIP3   OH281784   4.495   6.307   1.367  0.1604  0.0826  0.1383
20098TIP3    H181785   4.496   6.253   1.288 -2.0003 -0.9333  0.7339
20098TIP3    H281786   4.498   6.244   1.439 -0.7770  0.8298  0.8528
20099TIP3   OH281787   5.059   0.423   2.889  0.3789 -0.0543 -0.1364
20099TIP3    H181788   5.037   0.472   2.810  0.6380  0.3489  0.0376
20099TIP3    H281789   5.022   0.336   2.874  0.0584  0.1424 -0.5200
20100TIP3   OH281790   6.210   0.339  15.885 -0.2494 -0.0385  0.3991
20100TIP3    H181791   6.171   0.348  15.799  1.0876 -1.8719 -0.4733
20100TIP3    H281792   6.215   0.429  15.919 -2.4785  0.5259 -0.6151
20101TIP3   OH281793   0.730   2.986   2.194 -0.1308 -0.0814  0.3229
20101TIP3    H181794   0.745   3.058   2.133  0.5989 -0.2592  0.2839
20101TIP3    H281795   0.811   2.935   2.191 -0.1527 -0.1957  1.2969
20102TIP3   OH281796   4.293   3.082  12.682  0.5662  0.2352  0.0616
20102TIP3    H181797   4.366   3.120  12.633  1.6242 -0.3834  1.1159
20102TIP3    H281798   4.249   3.157  12.721 -1.1216  0.8806 -2.8500
20103TIP3   OH281799   5.547   0.557  10.144 -0.0629 -0.3697  0.0099
20103TIP3    H181800   5.457   0.544  10.173  0.5559 -1.9717  1.4040
20103TIP3    H281801   5.577   0.633  10.194 -0.7154  0.3633 -0.6943
20104TIP3   OH281802   5.660   4.603   0.665 -0.2870 -0.1435 -0.4618
20104TIP3    H181803   5.593   4.670   0.679 -0.5325 -0.0966 -1.7681
20104TIP3    H281804   5.639   4.565   0.580 -1.9318 -3.9080  1.3483
20105TIP3   OH281805   5.300   5.739   3.993  0.2317 -0.1401  0.0266
20105TIP3    H181806   5.379   5.711   3.946 -0.3714 -2.6383  0.3629
20105TIP3    H281807   5.331   5.766   4.079  0.8940  0.7861 -0.4753
20106TIP3   OH281808   5.438   3.106   1.777 -0.2178  0.6579  0.0531
20106TIP3    H181809   5.408   3.155   1.854 -0.1223  0.8920 -0.0611
20106TIP3    H281810   5.358   3.068   1.741 -0.2010  0.1131  0.5712
20107TIP3   OH281811   1.843   3.337   3.739  0.0522  0.1495 -0.2300
20107TIP3    H181812   1.781   3.408   3.759 -0.1610 -0.2770  0.6690
20107TIP3    H281813   1.787   3.264   3.714  0.2221 -0.0188 -0.1133
20108TIP3   OH281814   4.122   2.105   1.378 -0.6891 -0.3072  0.0853
20108TIP3    H181815   4.035   2.065   1.387 -0.6792 -0.3028  0.2005
20108TIP3    H281816   4.134   2.154   1.459  0.1416 -1.7188  0.8633
20109TIP3   OH281817   6.588   6.281   6.167 -0.5494  0.1144  0.1540
20109TIP3    H181818   6.554   6.223   6.099  2.8668 -1.4773 -0.3979
20109TIP3    H281819   6.544   6.252   6.247 -0.9063 -1.4394 -0.5575
20110TIP3   OH281820   3.820   0.960  10.984 -0.4117 -0.1650  0.5797
20110TIP3    H181821   3.758   0.991  10.917  0.6571  2.4980  0.7173
20110TIP3    H281822   3.764   0.935  11.058 -1.4063  1.0346  0.2669
20111TIP3   OH281823   6.736   0.268  11.336 -0.3971  0.1549  0.4075
20111TIP3    H181824   6.683   0.261  11.257 -1.7222 -0.0477  1.2830
20111TIP3    H281825   6.748   0.362  11.349  0.4008  0.1726 -0.3876
20112TIP3   OH281826   1.778   0.939   5.909  0.0032 -0.2651 -0.3978
20112TIP3    H181827   1.684   0.923   5.897  0.1532 -0.9036 -0.8166
20112TIP3    H281828   1.787   0.968   6.000 -0.5356 -0.7941 -0.1702
20113TIP3   OH281829   6.226   3.799   2.959  0.3649  0.3152 -0.0418
20113TIP3    H181830   6.316   3.791   2.929  0.0026  0.4346 -1.2197
20113TIP3    H281831   6.212   3.723   3.015  0.8826 -0.2728 -0.6987
20114TIP3   OH281832   5.729   5.056  11.443 -0.0497 -0.2126 -0.0524
20114TIP3    H181833   5.689   4.970  11.430  0.6905 -0.3605 -1.6525
20114TIP3    H281834   5.814   5.038  11.484 -0.1024 -0.1996  0.0636
20115TIP3   OH281835   2.792   2.086  14.092  0.2013 -0.0790  0.0421
20115TIP3    H181836   2.734   2.107  14.165 -0.2498  0.6585 -0.5098
20115TIP3    H281837   2.863   2.035  14.131  0.3147  0.8579  1.1319
20116TIP3   OH281838   5.775   5.476  10.489  0.2151  0.8126  0.6084
20116TIP3    H181839   5.713   5.545  10.465  0.1411 -0.3702 -3.1631
20116TIP3    H281840   5.839   5.475  10.418  2.8341 -0.0998  2.8095
20117TIP3   OH281841   1.061   5.720   0.496 -0.3623  0.2322 -0.5032
20117TIP3    H181842   0.967   5.715   0.514 -0.1046 -0.9691  0.6876
20117TIP3    H281843   1.078   5.646   0.438  0.1031 -0.6331  0.6836
20118TIP3   OH281844   2.934   0.313   5.438 -0.0948  0.0913  0.3924
20118TIP3    H181845   2.861   0.372   5.456 -0.8148 -0.8539  0.6455
20118TIP3    H281846   2.906   0.228   5.471  0.9342 -0.3997  0.0699
20119TIP3   OH281847   5.930   3.718   4.533 -0.3140  0.4911  0.2454
20119TIP3    H181848   5.920   3.775   4.609 -2.3630  0.7232 -0.1376
20119TIP3    H281849   5.842   3.713   4.495  0.3489 -0.8436 -1.2332
20120TIP3   OH281850   3.660   4.730   4.778  0.6995  0.9138  0.1434
20120TIP3    H181851   3.579   4.678   4.784  1.9152 -1.1634 -0.4941
20120TIP3    H281852   3.717   4.694   4.845  1.3091  1.9849  0.2222
20121TIP3   OH281853   1.886   0.458   5.488 -0.6797 -0.2061  0.5234
20121TIP3    H181854   1.980   0.449   5.475 -0.8796 -0.3516 -0.9120
20121TIP3    H281855   1.876   0.543   5.530  0.0623 -0.0235  0.3450
20122TIP3   OH281856   4.508   1.310   0.089 -0.3561  0.3399  0.4015
20122TIP3    H181857   4.483   1.238   0.148  0.1245  0.8070  1.1948
20122TIP3    H281858   4.425   1.344   0.056 -0.7158  0.8035  1.7090
20123TIP3   OH281859   1.011   2.471  16.121  0.2401  0.2381 -0.2779
20123TIP3    H181860   1.028   2.484  16.028  0.9679 -0.3162 -0.2306
20123TIP3    H281861   0.992   2.377  16.129 -0.9065  0.4720 -0.0194
20124TIP3   OH281862   2.139   0.192   4.055 -0.3103  0.3599  0.0402
20124TIP3    H181863   2.219   0.212   4.007 -0.3446 -1.5640 -0.9138
20124TIP3    H281864   2.102   0.116   4.009 -2.0167  0.4274  1.2225
20125TIP3   OH281865   5.316   0.258  14.849  0.7272 -1.0253 -0.3007
20125TIP3    H181866   5.366   0.338  14.862  0.9678 -1.4220  1.3791
20125TIP3    H281867   5.331   0.235  14.757 -1.5508  2.2893 -1.6875
20126TIP3   OH281868   0.218   3.445   2.571  0.2391 -0.2272 -0.1570
20126TIP3    H181869   0.249   3.405   2.652  2.9015  1.9350  0.0225
20126TIP3    H281870   0.256   3.392   2.501  1.3104  0.2429  0.0566
20127TIP3   OH281871   0.824   1.665  11.178 -0.0418  0.5032  0.0195
20127TIP3    H181872   0.801   1.635  11.266  1.2859  1.2134  0.6391
20127TIP3    H281873   0.895   1.607  11.151 -0.6067  0.1287 -0.7102
20128TIP3   OH281874   4.750   6.733   4.873 -0.0469  0.4389  0.1765
20128TIP3    H181875   4.751   6.740   4.778  0.7101 -1.1291  0.0372
20128TIP3    H281876   4.668   6.688   4.894  0.6455 -0.9105  0.0897
20129TIP3   OH281877   1.239   3.274  10.783 -0.2049  0.1125 -0.3047
20129TIP3    H181878   1.190   3.352  10.810  0.2915  0.2805  0.1257
20129TIP3    H281879   1.276   3.298  10.697  1.4305  1.0530  0.6053
20130TIP3   OH281880   0.112   6.356  15.429  0.0700 -0.0565 -0.1872
20130TIP3    H181881   0.017   6.350  15.435 -0.0808  0.7039 -1.4533
20130TIP3    H281882   0.144   6.282  15.481 -1.2826 -2.3226 -2.3181
20131TIP3   OH281883   4.238   2.773  14.977  0.7296  0.1768 -0.1041
20131TIP3    H181884   4.219   2.731  14.893 -1.7738 -1.2399  1.0641
20131TIP3    H281885   4.231   2.703  15.042  0.9440  1.5386  1.4629
20132TIP3   OH281886   5.626   2.430  15.381  0.1858 -0.3421  0.5630
20132TIP3    H181887   5.604   2.431  15.475  1.9186 -1.5606  1.0338
20132TIP3    H281888   5.721   2.422  15.379  0.2589  0.4952 -1.3392
20133TIP3   OH281889   4.949   6.456  12.540  0.0214  0.2637  0.1616
20133TIP3    H181890   4.956   6.366  12.573 -1.3008 -0.2454 -0.8366
20133TIP3    H281891   4.925   6.445  12.448  0.4800  1.6505 -0.1357
20134TIP3   OH281892   1.997   0.114  14.719  0.2717  0.2407  0.7130
20134TIP3    H181893   2.066   0.114  14.785 -0.6133 -1.5230  1.7142
20134TIP3    H281894   1.967   0.205  14.716 -0.4264  0.1927  3.6078
20135TIP3   OH281895   5.241   2.957   5.125 -0.5016 -0.7182 -0.0760
20135TIP3    H181896   5.160   2.973   5.174 -1.2922 -2.2670 -0.8287
20135TIP3    H281897   5.243   3.026   5.059 -1.2385 -0.7059 -0.0906
20136TIP3   OH281898   1.747   1.037  17.204  0.1602 -0.7140  0.4536
20136TIP3    H181899   1.688   0.977  17.249 -0.8368 -1.2190 -1.4241
20136TIP3    H281900   1.715   1.125  17.227  0.5541 -0.9084  1.8144
20137TIP3   OH281901   6.434   5.585   3.518 -0.1954 -0.7112  0.0477
20137TIP3    H181902   6.356   5.627   3.483 -0.7442 -0.5519  1.4266
20137TIP3    H281903   6.429   5.495   3.486 -0.5795 -0.5232 -0.4351
20138TIP3   OH281904   1.164   2.375  13.128  0.5701  0.4450  0.1211
20138TIP3    H181905   1.172   2.322  13.208  1.7735 -1.6166 -1.2556
20138TIP3    H281906   1.069   2.379  13.112  0.3739 -0.0499  1.0573
20139TIP3   OH281907   5.367   3.119  16.659 -0.1663  0.1752  0.4349
20139TIP3    H181908   5.404   3.207  16.651 -1.1384  0.4323 -3.1580
20139TIP3    H281909   5.272   3.133  16.653 -0.2783 -1.1362 -2.8069
20140TIP3   OH281910   2.661   6.175   0.368 -0.1889 -0.3464  0.0901
20140TIP3    H181911   2.717   6.248   0.339  0.8427 -1.5256 -0.9885
20140TIP3    H281912   2.627   6.204   0.452  0.4848  1.2389 -0.1397
20141TIP3   OH281913   1.895   0.068   3.034 -0.0620  0.7732  0.1748
20141TIP3    H181914   1.835   0.134   3.068  0.2945  0.1504  2.1723
20141TIP3    H281915   1.902   0.087   2.941 -2.5175  1.5075  0.0724
20142TIP3   OH281916   4.664   5.865  16.836  0.1395 -0.8627  0.3031
20142TIP3    H181917   4.697   5.838  16.922  1.0470 -2.5486 -0.5287
20142TIP3    H281918   4.569   5.853  16.842  0.3026 -2.0337  0.7253
20143TIP3   OH281919   3.933   2.677  14.472  0.3223 -0.1520  0.1039
20143TIP3    H181920   3.976   2.612  14.416  0.0605  0.9953 -1.5098
20143TIP3    H281921   3.956   2.761  14.432 -0.0798  0.7000  1.6140
20144TIP3   OH281922   3.496   1.426   0.748  0.0374  0.0271  0.2085
20144TIP3    H181923   3.417   1.474   0.770  0.5093  0.2475  1.5072
20144TIP3    H281924   3.467   1.356   0.689 -1.3974 -0.9353  1.9608
20145TIP3   OH281925   2.372   3.717  13.076  0.1928  0.0045 -0.0101
20145TIP3    H181926   2.308   3.769  13.028 -1.3202 -0.9268  0.9165
20145TIP3    H281927   2.455   3.762  13.063 -0.0942 -0.2338 -3.5254
20146TIP3   OH281928   3.584   5.623   6.549 -0.0628  0.0910 -0.0238
20146TIP3    H181929   3.498   5.651   6.517  0.9060  2.1290 -0.9804
20146TIP3    H281930   3.634   5.704   6.557  1.7444 -1.0475  0.6321
20147TIP3   OH281931   1.686   3.428   6.118 -0.1966 -0.1383  0.0149
20147TIP3    H181932   1.772   3.449   6.153 -0.1572 -0.8779  0.3882
20147TIP3    H281933   1.626   3.441   6.192 -0.1371 -1.5272  0.3433
20148TIP3   OH281934   3.202   3.616   2.062  0.6842 -0.0931 -0.3036
20148TIP3    H181935   3.293   3.639   2.046  1.0717  0.0017  1.7272
20148TIP3    H281936   3.162   3.698   2.091  0.3712 -0.4731  0.3592
20149TIP3   OH281937   3.534   6.021  11.005 -0.3808 -0.0952 -0.5343
20149TIP3    H181938   3.500   5.932  11.013 -2.2280  0.5403 -0.8630
20149TIP3    H281939   3.482   6.060  10.935  0.7485  1.0945 -0.7421
20150TIP3   OH281940   5.009   3.173  13.836 -0.2280  0.1229  0.5486
20150TIP3    H181941   5.041   3.208  13.754 -0.2934 -0.1324  0.4111
20150TIP3    H281942   4.927   3.221  13.852  0.1361  0.6562  0.8178
20151TIP3   OH281943   4.175   2.374  14.542  0.1735 -0.3419  0.1661
20151TIP3    H181944   4.153   2.413  14.457 -0.4664 -0.6898  0.1632
20151TIP3    H281945   4.257   2.328  14.527  0.4574  0.2390 -0.0652
20152TIP3   OH281946   1.864   2.650   5.308  1.2037 -0.2143 -0.2351
20152TIP3    H181947   1.792   2.685   5.361  1.6697 -1.3477  1.2383
20152TIP3    H281948   1.863   2.702   5.228 -1.1024 -0.0490 -0.1670
20153TIP3   OH281949   3.554   0.859  16.842 -0.3842  0.1450  0.7226
20153TIP3    H181950   3.566   0.893  16.753 -2.6718  0.2662  0.4139
20153TIP3    H281951   3.483   0.911  16.879 -0.5179 -0.9325  2.0692
20154TIP3   OH281952   1.126   3.436  12.024  0.2909 -0.5214 -0.4364
20154TIP3    H181953   1.047   3.491  12.024 -0.4013 -1.4894 -0.5393
20154TIP3    H281954   1.094   3.349  12.001  1.5791 -0.6902 -1.7425
20155TIP3   OH281955   4.326   3.346   0.739  0.2464 -0.7079 -0.1644
20155TIP3    H181956   4.230   3.349   0.743  0.3097  0.5911  1.4731
20155TIP3    H281957   4.345   3.269   0.685 -1.6999 -1.3756  0.0099
20156TIP3   OH281958   1.374   0.828   1.577 -0.4497 -0.4304  0.1678
20156TIP3    H181959   1.391   0.861   1.665  1.5931 -1.1873  0.1118
20156TIP3    H281960   1.446   0.767   1.560 -0.1257  0.5505 -2.4592
20157TIP3   OH281961   5.163   0.637  12.050 -0.2830 -0.9741  0.0781
20157TIP3    H181962   5.095   0.704  12.063  0.1503 -0.8353  1.9100
20157TIP3    H281963   5.137   0.592  11.969 -1.3019  0.5357 -0.4873
20158TIP3   OH281964   2.414   1.693   2.305  0.7901  0.0753 -0.1971
20158TIP3    H181965   2.323   1.722   2.300  0.9554  0.3691 -2.5212
20158TIP3    H281966   2.411   1.611   2.355 -0.8574 -0.3090 -0.8737
20159TIP3   OH281967   1.494   5.969  16.656  0.2501  0.0126  0.5755
20159TIP3    H181968   1.547   5.987  16.578  0.2502 -0.0977  0.5503
20159TIP3    H281969   1.533   5.890  16.694 -0.4092 -0.5688  0.0867
20160TIP3   OH281970   6.632   1.752   2.819 -0.4135 -0.0270 -0.1221
20160TIP3    H181971   6.719   1.775   2.853 -1.0711 -0.2789  1.8542
20160TIP3    H281972   6.579   1.831   2.832 -1.1660 -0.7264  1.2679
20161TIP3   OH281973   6.229   4.793  11.050 -0.2600 -0.4372  0.4748
20161TIP3    H181974   6.297   4.843  11.004 -2.3127  1.6191 -0.5366
20161TIP3    H281975   6.268   4.707  11.062  1.7360 -0.0171 -1.9865
20162TIP3   OH281976   1.310   4.556   4.007  0.8571 -0.0928 -0.1233
20162TIP3    H181977   1.266   4.615   3.946 -2.0216 -3.3599 -1.5293
20162TIP3    H281978   1.391   4.530   3.962  0.1478 -0.2823 -1.3139
20163TIP3   OH281979   5.073   0.843   0.076  0.0197 -0.4088  0.0681
20163TIP3    H181980   5.016   0.860   0.001  0.0661  1.7363  0.4419
20163TIP3    H281981   5.039   0.901   0.145 -0.0403 -2.3125  1.7415
20164TIP3   OH281982   0.129   6.631  13.127  0.3991 -0.0208  0.2093
20164TIP3    H181983   0.125   6.714  13.080 -0.3825 -0.5517 -0.7042
20164TIP3    H281984   0.042   6.623  13.167  1.2139  0.6843  2.2704
20165TIP3   OH281985   2.652   2.852   3.680 -0.0611  0.4773 -0.1662
20165TIP3    H181986   2.694   2.921   3.731  1.0467  0.3236 -0.8512
20165TIP3    H281987   2.707   2.842   3.603  0.6345 -2.1401  0.5601
20166TIP3   OH281988   2.118   5.456   3.208 -0.0965 -0.0381 -0.1120
20166TIP3    H181989   2.204   5.418   3.190 -0.0622  0.2502 -0.5789
20166TIP3    H281990   2.131   5.505   3.290  0.4179  0.7149 -0.6278
20167TIP3   OH281991   2.610   2.110  13.902 -0.1681  0.0370  0.3180
20167TIP3    H181992   2.652   2.097  13.987 -0.6215  1.7770  0.8634
20167TIP3    H281993   2.630   2.201  13.879 -1.0335 -0.0497 -0.8820
20168TIP3   OH281994   4.497   5.454   0.978  0.2707 -0.0236 -0.7113
20168TIP3    H181995   4.443   5.442   0.901 -0.0975  0.1890 -0.4894
20168TIP3    H281996   4.568   5.511   0.950  0.6834 -0.7435 -1.1440
20169TIP3   OH281997   3.159   2.500  13.092 -0.4987  0.3276  0.0799
20169TIP3    H181998   3.137   2.581  13.137 -1.2344  0.4251 -0.4342
20169TIP3    H281999   3.080   2.478  13.042 -0.6504 -1.1934  0.9186
20170TIP3   OH282000   5.092   3.942  12.618 -0.5002  0.5615  0.1206
20170TIP3    H182001   5.084   4.035  12.640  0.5217  0.9297 -0.9354
20170TIP3    H282002   5.186   3.927  12.611 -0.6429 -0.6406  0.5638
20171TIP3   OH282003   4.212   0.014   1.604  0.1771  0.1481 -0.1682
20171TIP3    H182004   4.293   0.035   1.558  0.6494 -0.3209  0.4435
20171TIP3    H282005   4.143   0.053   1.549  0.8448  1.0505 -0.3893
20172TIP3   OH282006   0.786   3.127   5.413 -0.1206  0.2019  0.6924
20172TIP3    H182007   0.881   3.140   5.410  0.2031 -1.9410 -1.6367
20172TIP3    H282008   0.750   3.215   5.424  2.0970  1.0842  1.4347
20173TIP3   OH282009   0.046   6.017  15.139 -0.1461  1.1810  0.1577
20173TIP3    H182010  -0.044   6.004  15.109 -0.2225  0.3827  0.6890
20173TIP3    H282011   0.048   5.977  15.226  1.0528  0.0356 -0.3667
20174TIP3   OH282012   4.896   5.716  16.788 -0.3410 -0.3866  0.3390
20174TIP3    H182013   4.888   5.663  16.709 -0.8910  0.8162 -0.4502
20174TIP3    H282014   4.816   5.768  16.790  0.3416  0.6794  0.8619
20175TIP3   OH282015   4.451   0.059  11.406 -0.5476 -0.4023 -0.3360
20175TIP3    H182016   4.537   0.019  11.419 -0.3237  0.2086  0.1263
20175TIP3    H282017   4.418   0.020  11.325 -0.2313 -1.3152 -0.0349
20176TIP3   OH282018   6.482   5.050  11.924  0.3619 -0.1655 -0.1134
20176TIP3    H182019   6.574   5.063  11.901  0.9358 -2.1390  0.8896
20176TIP3    H282020   6.482   5.039  12.019 -1.1649  1.5623  0.1482
20177TIP3   OH282021   6.773   5.809   4.365 -0.4849  0.2167 -0.1123
20177TIP3    H182022   6.709   5.880   4.360 -1.0142 -0.0589  1.8049
20177TIP3    H282023   6.729   5.735   4.323 -1.1978  0.2094  0.6115
20178TIP3   OH282024   0.701   0.872   5.486  0.3306  0.1398 -0.2419
20178TIP3    H182025   0.640   0.930   5.533  0.8567  0.4246  0.0930
20178TIP3    H282026   0.785   0.884   5.530  0.6013 -0.3675 -0.6071
20179TIP3   OH282027   3.693   0.639   0.299 -0.0340  0.6402 -0.0598
20179TIP3    H182028   3.648   0.580   0.238 -1.0763 -0.0883  1.3504
20179TIP3    H282029   3.627   0.662   0.363  1.9522 -2.2737  3.4510
20180TIP3   OH282030   2.528   5.361  12.057 -0.2098 -0.4219  0.2756
20180TIP3    H182031   2.547   5.268  12.046  0.6602 -0.1869 -0.3644
20180TIP3    H282032   2.433   5.366  12.065 -0.3070 -1.3139 -0.1976
20181TIP3   OH282033   4.391   3.514  15.359 -0.2542  0.4419 -0.2317
20181TIP3    H182034   4.362   3.574  15.290  2.7724  2.5816  0.1303
20181TIP3    H282035   4.384   3.566  15.439 -1.2351 -1.1074  0.7362
20182TIP3   OH282036   3.840   0.027  15.306  0.1112 -0.3238 -0.6086
20182TIP3    H182037   3.819  -0.064  15.287 -0.0408 -0.9221  1.9747
20182TIP3    H282038   3.760   0.075  15.286  0.0474 -0.8150 -1.5680
20183TIP3   OH282039   5.048   6.556   2.122 -0.0702  0.5752 -0.1890
20183TIP3    H182040   5.079   6.636   2.079  1.5628 -1.1467 -2.5306
20183TIP3    H282041   5.109   6.489   2.092 -2.2504 -1.8395  0.4620
20184TIP3   OH282042   2.076   2.509   5.149 -0.2507 -0.3639 -0.3402
20184TIP3    H182043   2.012   2.553   5.204 -1.2741  0.0140 -1.7577
20184TIP3    H282044   2.158   2.557   5.163 -0.8997  0.7924 -0.4307
20185TIP3   OH282045   2.225   5.992  12.370  0.2381 -0.4592  0.7198
20185TIP3    H182046   2.175   5.910  12.372 -1.8809  0.6503 -1.4096
20185TIP3    H282047   2.187   6.044  12.440 -1.2591  0.1477 -0.4983
20186TIP3   OH282048   1.058   3.087   1.304 -0.1515 -0.3691 -0.1095
20186TIP3    H182049   1.015   3.119   1.383  1.6882 -0.0057  0.8088
20186TIP3    H282050   0.997   3.023   1.267 -2.0636  1.1237  0.3216
20187TIP3   OH282051   3.774   2.421   0.059 -0.1499  0.2480  0.1284
20187TIP3    H182052   3.798   2.461  -0.024  0.5336 -0.1321  0.1407
20187TIP3    H282053   3.856   2.392   0.097 -0.5153 -0.1029  0.6711
20188TIP3   OH282054   2.992   1.038   1.437 -0.1158  0.2984  0.4035
20188TIP3    H182055   3.065   1.085   1.477  0.8858 -0.9166  0.0840
20188TIP3    H282056   2.918   1.099   1.442  1.1159  1.9111 -0.0441
20189TIP3   OH282057   0.742   6.376  16.899  0.0806 -0.0338  0.2796
20189TIP3    H182058   0.763   6.389  16.807 -0.7160  2.8922  0.4274
20189TIP3    H282059   0.826   6.364  16.942  0.4334 -1.8978 -0.8241
20190TIP3   OH282060   1.118   0.400   2.290  0.1677  0.1654 -0.2681
20190TIP3    H182061   1.158   0.465   2.347  0.5340 -1.0211  0.8601
20190TIP3    H282062   1.093   0.328   2.348 -2.0360  0.0993 -1.1873
20191TIP3   OH282063   3.367   4.822  15.940  0.5481  0.5373 -0.0186
20191TIP3    H182064   3.358   4.797  15.848  0.5697 -2.0128  0.6143
20191TIP3    H282065   3.421   4.901  15.938  0.4911  0.5879 -2.1776
20192TIP3   OH282066   4.426   4.043  14.670 -0.2345 -0.4468  0.4400
20192TIP3    H182067   4.438   4.070  14.761  1.5270 -0.8153  0.3491
20192TIP3    H282068   4.389   3.955  14.676 -0.2945 -0.3998  0.7816
20193TIP3   OH282069   4.655   2.868   0.498 -0.2633 -0.0649  0.2641
20193TIP3    H182070   4.742   2.905   0.512  1.2212 -2.3611 -2.0740
20193TIP3    H282071   4.624   2.910   0.418 -1.5801  1.0488  1.3010
20194TIP3   OH282072   3.138   6.185   6.272  0.2063  0.3099 -0.9822
20194TIP3    H182073   3.142   6.124   6.345 -1.0960 -0.1340 -1.2429
20194TIP3    H282074   3.199   6.255   6.295 -1.2646  0.9595  1.2807
20195TIP3   OH282075   2.054   3.942   2.942  0.2951  0.0242  0.4144
20195TIP3    H182076   2.071   3.865   2.996 -0.1983 -0.4025 -0.0251
20195TIP3    H282077   1.961   3.935   2.918  1.0026 -1.0283 -2.3531
20196TIP3   OH282078   6.552   3.806   0.967 -0.0043  0.2768 -0.2720
20196TIP3    H182079   6.473   3.791   1.018  0.5304  0.0960  0.5306
20196TIP3    H282080   6.521   3.823   0.878 -1.0177  1.3052  0.2437
20197TIP3   OH282081   6.433   5.427  15.135  0.0983  0.3531 -0.3766
20197TIP3    H182082   6.526   5.450  15.135  0.0319  1.0008 -3.2607
20197TIP3    H282083   6.390   5.503  15.095 -1.3571 -0.8431 -1.1759
20198TIP3   OH282084   0.334   4.624   5.401  0.0301  0.0935  1.0976
20198TIP3    H182085   0.321   4.544   5.350 -0.5962 -0.1150  1.5702
20198TIP3    H282086   0.284   4.610   5.481 -0.1116  0.9734  1.1767
20199TIP3   OH282087   1.486   3.590  10.615 -0.6751 -0.0816 -0.3104
20199TIP3    H182088   1.457   3.503  10.587  1.0763 -0.5278 -0.9101
20199TIP3    H282089   1.407   3.634  10.646 -1.9752 -1.1408 -1.9491
20200TIP3   OH282090   3.598   3.204   6.062 -0.2803  0.2967  0.2806
20200TIP3    H182091   3.629   3.215   6.151  1.0223  0.5759 -0.1837
20200TIP3    H282092   3.616   3.112   6.041  0.6286  0.5549 -0.1188
20201TIP3   OH282093   1.127   4.114   3.224 -0.3615 -0.5077 -0.0680
20201TIP3    H182094   1.105   4.097   3.133 -1.4286  0.2472  0.0296
20201TIP3    H282095   1.093   4.202   3.241 -0.9712 -0.9714  1.2993
20202TIP3   OH282096   2.871   6.563  15.503  0.0504 -0.0710 -0.0700
20202TIP3    H182097   2.815   6.631  15.540  0.3664  1.1609 -1.7022
20202TIP3    H282098   2.922   6.530  15.577 -0.5096  1.0935  0.8649
20203TIP3   OH282099   5.870   4.119  11.213  0.3402  0.0970 -0.1332
20203TIP3    H182100   5.960   4.087  11.225 -0.1992 -1.6104 -0.4682
20203TIP3    H282101   5.851   4.104  11.121 -0.5646 -0.3213  0.1084
20204TIP3   OH282102   4.962   4.979  15.793  0.1788 -0.5312 -0.4218
20204TIP3    H182103   4.908   4.958  15.870 -0.8659  2.7732 -0.1047
20204TIP3    H282104   4.908   4.954  15.718 -0.2467 -0.6166 -0.0908
20205TIP3   OH282105   5.527   6.385   3.149  0.0623  0.0439 -0.4616
20205TIP3    H182106   5.606   6.336   3.123  0.6449  0.7388 -0.0359
20205TIP3    H282107   5.456   6.345   3.098  0.7030 -0.5445 -0.9089
20206TIP3   OH282108   0.699   2.229   0.402 -0.0978 -0.3518 -0.2980
20206TIP3    H182109   0.615   2.186   0.418  0.0421 -0.3569  0.4492
20206TIP3    H282110   0.761   2.182   0.456  0.5308 -0.7662 -1.3465
20207TIP3   OH282111   1.826   0.946  11.029  0.4398 -0.4024  0.2566
20207TIP3    H182112   1.858   0.856  11.032  1.1409 -0.1701  0.0714
20207TIP3    H282113   1.905   0.998  11.017  0.0784  0.2652  0.7217
20208TIP3   OH282114   5.770   2.251  11.097 -0.1842 -0.2662  0.4358
20208TIP3    H182115   5.858   2.285  11.078  0.1296 -0.7681  0.9617
20208TIP3    H282116   5.719   2.273  11.019  0.0525  1.2330  0.6695
20209TIP3   OH282117   2.424   5.214   4.180 -0.3617 -0.3633 -0.1449
20209TIP3    H182118   2.473   5.227   4.099  1.8517 -1.3838  0.9326
20209TIP3    H282119   2.411   5.119   4.185  0.3481 -0.4135  1.0987
20210TIP3   OH282120   0.983   1.519   1.836  0.1904 -0.2397 -0.7026
20210TIP3    H182121   0.990   1.528   1.932 -0.8132  0.7565 -0.6964
20210TIP3    H282122   0.934   1.438   1.824 -0.1229 -0.1109 -0.3433
20211TIP3   OH282123   4.341   1.697  11.930  0.1054  0.5927  0.1023
20211TIP3    H182124   4.287   1.652  11.865  1.4368 -1.2493  0.2088
20211TIP3    H282125   4.388   1.628  11.976  0.3651  1.9446  2.0259
20212TIP3   OH282126   6.561   2.878   4.466 -0.2113  0.1091  0.1230
20212TIP3    H182127   6.496   2.820   4.506 -1.3242  0.5929 -0.9235
20212TIP3    H282128   6.645   2.845   4.499 -1.0327  1.6754  4.4655
20213TIP3   OH282129   4.312   1.211   1.787  0.2874 -0.6931  0.5244
20213TIP3    H182130   4.400   1.174   1.792  0.0495 -1.1976  1.3521
20213TIP3    H282131   4.312   1.265   1.709  1.4742 -0.3171  0.7657
20214TIP3   OH282132   5.991   4.080  14.230  0.2397  0.1937 -0.4763
20214TIP3    H182133   6.004   4.137  14.306  1.0189  0.3303 -0.7014
20214TIP3    H282134   5.926   4.126  14.176 -0.1426  0.2090 -0.0146
20215TIP3   OH282135   2.069   5.226   4.540  0.1097 -0.7777  0.5170
20215TIP3    H182136   2.098   5.197   4.453 -0.9713 -0.7100  0.1179
20215TIP3    H282137   2.038   5.146   4.583 -2.2436 -0.4096 -0.3346
20216TIP3   OH282138   5.601   5.093  16.976  0.0118  0.3370  0.4472
20216TIP3    H182139   5.599   5.137  16.891  1.3145 -1.1900 -0.4142
20216TIP3    H282140   5.509   5.089  17.003 -0.5213  0.1156 -1.2881
20217TIP3   OH282141   4.228   3.113   2.433 -0.0770  0.1904 -0.4727
20217TIP3    H182142   4.240   3.019   2.419  1.0722  0.5693 -2.4068
20217TIP3    H282143   4.310   3.152   2.403 -0.7154  1.8623 -0.1514
20218TIP3   OH282144   2.151   1.478   0.402  0.7716  0.5052 -0.1351
20218TIP3    H182145   2.059   1.503   0.403  0.5848 -0.1545 -0.0137
20218TIP3    H282146   2.184   1.503   0.489  0.4998  0.0348  0.1115
20219TIP3   OH282147   3.658   6.757  16.326 -0.2470  0.1294 -0.2178
20219TIP3    H182148   3.675   6.819  16.397  0.7423  0.5192 -0.7780
20219TIP3    H282149   3.637   6.812  16.251 -0.6465 -0.2632 -0.3997
20220TIP3   OH282150   6.807   0.707   2.828 -0.5059 -0.4854 -0.3373
20220TIP3    H182151   6.718   0.740   2.838 -0.9209 -1.9521  1.4646
20220TIP3    H282152   6.798   0.630   2.771 -0.3147 -0.3270 -0.5825
20221TIP3   OH282153   2.278   0.320  13.031 -0.6028  0.3354 -0.2192
20221TIP3    H182154   2.207   0.283  12.979 -0.0580 -0.8198 -0.1834
20221TIP3    H282155   2.262   0.287  13.119  1.5840 -2.5691 -0.7350
20222TIP3   OH282156   1.010   2.203   4.301  0.1729  0.5327 -0.0095
20222TIP3    H182157   1.020   2.191   4.396 -1.4455 -0.4498  0.0730
20222TIP3    H282158   0.924   2.243   4.291 -1.0744 -2.1844 -1.1595
20223TIP3   OH282159   3.675   6.644  15.311 -0.4027 -0.6379 -0.7292
20223TIP3    H182160   3.590   6.646  15.355 -0.0815  1.0109 -0.1231
20223TIP3    H282161   3.653   6.647  15.217 -1.0197  0.7518 -0.5579
20224TIP3   OH282162   6.128   1.470   6.448 -0.0991  0.3217  0.1358
20224TIP3    H182163   6.082   1.552   6.464 -2.1452 -1.0810  2.2756
20224TIP3    H282164   6.207   1.476   6.501 -0.8680  0.4812  1.3229
20225TIP3   OH282165   3.431   2.629   3.121 -0.4551  0.8525  0.0854
20225TIP3    H182166   3.413   2.540   3.091 -1.6650  1.1553 -0.1431
20225TIP3    H282167   3.401   2.629   3.213  0.4373  0.7615  0.3810
20226TIP3   OH282168   0.999   3.677   6.232 -0.1801 -0.4616  0.3380
20226TIP3    H182169   1.021   3.755   6.282  2.3882 -2.4813  2.6662
20226TIP3    H282170   0.921   3.642   6.276 -0.0068 -0.3828  0.7131
20227TIP3   OH282171   0.924   6.724  14.213  0.8990  0.0499 -0.8320
20227TIP3    H182172   0.935   6.746  14.306 -2.2214 -2.2564  0.2760
20227TIP3    H282173   0.832   6.746  14.195  1.6052  1.0389 -3.6256
20228TIP3   OH282174   2.921   5.861   1.177  0.0619 -0.6298  0.1227
20228TIP3    H182175   2.953   5.921   1.244  3.5120 -1.1995 -0.8161
20228TIP3    H282176   2.955   5.895   1.095 -0.6804 -2.1018 -0.8560
20229TIP3   OH282177   1.166   5.517   0.369  0.2211 -0.8185  0.3730
20229TIP3    H182178   1.249   5.561   0.388 -0.4895  1.5134 -1.4025
20229TIP3    H282179   1.172   5.493   0.277 -0.6593 -1.6052  0.5067
20230TIP3   OH282180   0.924   4.045   4.139  0.0091 -0.0121 -0.4261
20230TIP3    H182181   0.892   4.134   4.154 -1.3556 -0.7876  1.8519
20230TIP3    H282182   0.945   4.042   4.046 -3.4483  1.6212 -1.4329
20231TIP3   OH282183   5.289   5.775   2.101  0.6747  0.0941  0.4892
20231TIP3    H182184   5.193   5.771   2.104  0.6979 -0.8482  0.3992
20231TIP3    H282185   5.310   5.770   2.008  0.8541 -1.6724  0.5972
20232TIP3   OH282186   4.562   0.473   4.787 -0.4106  0.0018 -0.2477
20232TIP3    H182187   4.606   0.403   4.834  1.4208  0.4522 -1.1909
20232TIP3    H282188   4.482   0.433   4.753  0.5751 -1.6450 -0.7468
20233TIP3   OH282189   2.564   2.575   0.202  0.3636 -0.4550 -0.0898
20233TIP3    H182190   2.484   2.595   0.153  0.1672  0.3506  0.5451
20233TIP3    H282191   2.547   2.490   0.242 -1.5333  1.0790  2.6948
20234TIP3   OH282192   0.208   1.514  13.217 -0.1819  0.1041  0.3045
20234TIP3    H182193   0.118   1.546  13.218 -0.0069  0.7800 -1.5851
20234TIP3    H282194   0.219   1.470  13.302 -2.2845 -0.0289  0.5612
20235TIP3   OH282195   4.195   6.172  14.663 -0.2071  0.2463 -0.2002
20235TIP3    H182196   4.115   6.159  14.714  0.9048 -1.3181  1.2638
20235TIP3    H282197   4.253   6.220  14.721  0.6451 -0.4528 -0.4530
20236TIP3   OH282198   6.308   4.877   3.015 -0.1407  0.1463 -0.2133
20236TIP3    H182199   6.249   4.805   2.991  0.1114 -0.1340  0.0051
20236TIP3    H282200   6.369   4.883   2.942 -0.8991  0.9516 -0.8149
20237TIP3   OH282201   0.345   1.204  13.542  0.0280  0.2073  0.0593
20237TIP3    H182202   0.272   1.259  13.513 -0.2936  1.0051  2.2194
20237TIP3    H282203   0.316   1.167  13.625  2.3116  1.0671  1.3334
20238TIP3   OH282204   1.859   4.398  12.090 -0.3199  0.2073  0.2581
20238TIP3    H182205   1.803   4.409  12.013 -0.1671 -0.5017  0.0349
20238TIP3    H282206   1.896   4.484  12.105 -1.5778  0.7337  0.5014
20239TIP3   OH282207   1.926   0.261   5.087 -0.2731  0.5557  0.9075
20239TIP3    H182208   1.915   0.166   5.075 -0.7367  0.5201  1.5755
20239TIP3    H282209   1.947   0.293   4.999 -0.5942 -0.0999  0.5787
20240TIP3   OH282210   6.107   6.390  13.380 -0.1754 -0.3489  0.3963
20240TIP3    H182211   6.134   6.314  13.328  1.6265  1.5770 -1.7158
20240TIP3    H282212   6.019   6.410  13.349  0.8549  0.7464 -2.1216
20241TIP3   OH282213   3.037   4.929   3.322 -0.3910  0.0448 -0.3461
20241TIP3    H182214   2.986   4.852   3.297 -0.0250  0.1562 -1.5015
20241TIP3    H282215   2.972   4.995   3.344 -0.7122 -0.4972  0.3814
20242TIP3   OH282216   5.190   2.810  10.768  0.5658 -0.0331 -0.3149
20242TIP3    H182217   5.225   2.775  10.686 -0.8688 -0.1259 -0.9184
20242TIP3    H282218   5.260   2.796  10.832  1.7643  0.1589 -1.5362
20243TIP3   OH282219   1.134   1.508  15.865  0.2197 -0.2886  0.4773
20243TIP3    H182220   1.143   1.483  15.773  1.7769 -1.5311  0.9161
20243TIP3    H282221   1.061   1.570  15.867  0.8427  0.5921 -1.7328
20244TIP3   OH282222   3.493   3.573   4.995  0.2481 -0.0096  0.3402
20244TIP3    H182223   3.423   3.531   4.945 -0.6921  0.0335  1.5963
20244TIP3    H282224   3.460   3.580   5.084  1.2909  1.3000  0.6754
20245TIP3   OH282225   1.805   1.355   0.613  0.2240 -0.0264  0.0050
20245TIP3    H182226   1.771   1.403   0.688 -0.3604  0.6947 -0.6964
20245TIP3    H282227   1.730   1.348   0.554 -0.1598 -3.1475  0.6878
20246TIP3   OH282228   2.694   2.643   1.319 -0.1907  0.0918  0.5308
20246TIP3    H182229   2.650   2.654   1.404  0.6288  3.8435  0.6406
20246TIP3    H282230   2.787   2.637   1.341 -0.0439  0.1330 -0.0675
20247LIG      S82231   2.965   3.420  16.654 -0.3765 -0.2950  0.4451
20247LIG     N182232   3.241   3.392  16.548 -0.2321 -0.2469 -0.1291
20247LIG     N282233   3.304   3.442  17.004  0.4736 -0.6878 -0.2338
20247LIG     C182234   3.377   3.228  16.696  0.7168 -0.6561  0.4439
20247LIG     C282235   3.307   3.272  16.823 -0.3708 -0.0795 -0.3129
20247LIG     C382236   3.373   3.335  16.581 -0.5957 -0.3688  0.6253
20247LIG     C482237   3.352   3.411  16.873  0.6966 -0.4342  0.2903
20247LIG     C582238   3.312   3.102  16.651 -0.1812 -0.6487  0.1018
20247LIG     C682239   3.148   3.318  16.472 -0.0133 -0.0405  0.6905
20247LIG     C782240   3.206   3.529  16.568 -0.0254 -0.2967 -0.6487
20247LIG     C882241   3.365   3.357  17.116 -0.2693  0.7328  0.1406
20247LIG     C982242   3.160   3.486  17.019  0.1183  0.5331 -0.2921
20247LIG    C1082243   3.009   3.325  16.508  0.0652  0.4802  0.0287
20247LIG    C1182244   3.074   3.557  16.618  0.0617  0.3859 -0.4276
20247LIG    C1282245   3.185   3.255  16.349  0.4179  0.0133  0.1143
20247LIG    C1382246   3.288   3.642  16.536  0.0827  0.7385 -0.4388
20247LIG    C1482247   3.398   3.427  17.243  0.2339 -0.5150  0.4498
20247LIG    C1582248   3.143   3.639  17.008 -0.3983 -0.4759 -0.5618
20247LIG    C1682249   2.914   3.275  16.421  0.2985  0.7195 -0.3901
20247LIG    C1782250   3.030   3.683  16.651 -0.2309 -0.8723  0.2965
20247LIG    C1882251   3.085   3.205  16.265 -0.4422 -0.3526 -0.4839
20247LIG    C1982252   3.242   3.772  16.564 -0.5425 -0.7602 -0.3858
20247LIG    C2082253   2.951   3.216  16.295 -0.3798 -0.1057 -0.3617
20247LIG    C2182254   3.116   3.796  16.616  1.0105  0.8138  1.1208
20247LIG     H182255   3.483   3.199  16.710  0.7751 -0.5856  0.1440
20247LIG     H282256   3.314   3.200  16.907 -1.9808  1.3214  1.0930
20247LIG     H382257   3.200   3.290  16.800 -0.3622  0.2636 -0.0845
20247LIG     H482258   3.451   3.412  16.601 -0.0084 -0.1582 -2.0692
20247LIG     H582259   3.409   3.290  16.487 -1.5263 -0.2889  0.2190
20247LIG     H682260   3.462   3.408  16.857  0.6834 -3.2547  0.1944
20247LIG     H782261   3.308   3.490  16.810 -0.5903 -2.2010 -1.1265
20247LIG     H882262   3.202   3.117  16.643 -0.0736 -0.8405 -2.9013
20247LIG     H982263   3.333   3.012  16.712  0.6649 -1.3660 -1.1846
20247LIG    H1082264   3.343   3.089  16.545 -0.0508  0.1767  0.0360
20247LIG    H1182265   3.456   3.314  17.068 -0.0108  0.2985  0.9813
20247LIG    H1282266   3.296   3.280  17.156 -2.2664  1.8484 -1.0058
20247LIG    H1382267   3.117   3.442  17.112 -0.5317  2.0574  0.1479
20247LIG    H1482268   3.108   3.435  16.935  2.2107  2.0153 -2.6083
20247LIG    H1582269   3.288   3.267  16.319  0.3420 -0.5972 -0.4011
20247LIG    H1682270   3.393   3.625  16.516  0.7501  1.9231  1.7538
20247LIG    H1782271   3.414   3.350  17.322 -1.4634 -3.2755 -1.7001
20247LIG    H1882272   3.327   3.504  17.278  2.1394  0.2765  2.8511
20247LIG    H1982273   3.491   3.483  17.220  0.1731 -0.4958  0.2502
20247LIG    H2082274   3.036   3.663  16.992 -0.8822 -1.6456  0.7117
20247LIG    H2182275   3.204   3.692  16.932 -0.6346 -0.8992 -1.0571
20247LIG    H2282276   3.181   3.682  17.103  0.8946 -2.0869 -0.2987
20247LIG    H2382277   2.808   3.276  16.442  0.0414 -1.1986 -1.3299
20247LIG    H2482278   2.934   3.692  16.699 -1.1492 -2.3602 -1.1520
20247LIG    H2582279   3.123   3.157  16.175 -0.5887 -2.7162  0.6280
20247LIG    H2682280   3.311   3.851  16.540  0.7389 -1.9616 -0.7892
20247LIG    H2782281   2.880   3.175  16.225  1.1884 -0.7686 -1.6234
20247LIG    H2882282   3.078   3.897  16.624  0.1976  0.6329 -0.1463
   6.83608   6.83608  17.20938
